
                                 *****************
                                 * O   R   C   A *
                                 *****************

                                            #,                                       
                                            ###                                      
                                            ####                                     
                                            #####                                    
                                            ######                                   
                                           ########,                                 
                                     ,,################,,,,,                         
                               ,,#################################,,                 
                          ,,##########################################,,             
                       ,#########################################, ''#####,          
                    ,#############################################,,   '####,        
                  ,##################################################,,,,####,       
                ,###########''''           ''''###############################       
              ,#####''   ,,,,##########,,,,          '''####'''          '####       
            ,##' ,,,,###########################,,,                        '##       
           ' ,,###''''                  '''############,,,                           
         ,,##''                                '''############,,,,        ,,,,,,###''
      ,#''                                            '''#######################'''  
     '                                                          ''''####''''         
             ,#######,   #######,   ,#######,      ##                                
            ,#'     '#,  ##    ##  ,#'     '#,    #''#        ,####,   ,####,        
            ##       ##  ##   ,#'  ##            #'  '#       #'       #'  '#        
            ##       ##  #######   ##           ,######,      #####,   #    #        
            '#,     ,#'  ##    ##  '#,     ,#' ,#      #,     #,   #   #,  ,#        
             '#######'   ##     ##  '#######'  #'      '#     '####' # '####'        



                #########################################################
                #                        -***-                          #
                #          Department of theory and spectroscopy        #
                #                                                       #
                #                      Frank Neese                      #
                #                                                       #
                #     Directorship, Architecture, Infrastructure        #
                #                    SHARK, DRIVERS                     #
                #        Core code/Algorithms in most modules           #
                #                                                       #
                #        Max Planck Institute fuer Kohlenforschung      #
                #                Kaiser Wilhelm Platz 1                 #
                #                 D-45470 Muelheim/Ruhr                 #
                #                      Germany                          #
                #                                                       #
                #                  All rights reserved                  #
                #                        -***-                          #
                #########################################################


                         Program Version 6.0.1  -  RELEASE   -


 With contributions from (in alphabetic order):
[Max-Planck-Institut fuer Kohlenforschung]                               
  Daniel Aravena         : Magnetic Suceptibility                        
  Michael Atanasov       : Ab Initio Ligand Field Theory (pilot matlab implementation)
  Alexander A. Auer      : GIAO ZORA, VPT2 properties, NMR spectrum      
  Ute Becker             : All parallelization in ORCA, NUMFREQ, NUMCALC 
  Giovanni Bistoni       : ED, misc. LED, open-shell LED, HFLD           
  Martin Brehm           : Molecular dynamics                            
  Dmytro Bykov           : pre 5.0 version of the SCF Hessian            
  Marcos Casanova-Páez   : Triplet and SCS-CIS(D). UHF-(DLPNO)-IP/EA/STEOM-CCSD. UHF-CVS-IP/STEOM-CCSD   
  Vijay G. Chilkuri      : MRCI spin determinant printing, contributions to CSF-ICE 
  Pauline Colinet        : FMM embedding                                 
  Dipayan Datta          : RHF DLPNO-CCSD density                        
  Achintya Kumar Dutta   : EOM-CC, STEOM-CC                              
  Nicolas Foglia         : Exact transition moments, OPA infrastructure, MCD improvements    
  Dmitry Ganyushin       : Spin-Orbit,Spin-Spin,Magnetic field MRCI      
  Miquel Garcia-Rates    : C-PCM and meta-GGA Hessian, CCSD/C-PCM, Gaussian charge scheme 
  Tiago L. C. Gouveia    : GS-ROHF, GS-ROCIS                             
  Yang Guo               : DLPNO-NEVPT2, F12-NEVPT2, CIM, IAO-localization        
  Andreas Hansen         : Spin unrestricted coupled pair/coupled cluster methods 
  Ingolf Harden          : AUTO-CI MPn and infrastructure                
  Benjamin Helmich-Paris : MC-RPA, TRAH-(SCF,CASSCF), AVAS, COSX integrals, SCF dyn. polar. 
  Lee Huntington         : MR-EOM, pCC                                   
  Robert Izsak           : Overlap fitted RIJCOSX, COSX-SCS-MP3, EOM     
  Riya Kayal             : Wick's Theorem for AUTO-CI, AUTO-CI UHF-CCSDT 
  Emily Kempfer          : AUTO-CI, RHF CISDT and CCSDT                  
  Christian Kollmar      : KDIIS, OOCD, Brueckner-CCSD(T), CCSD density, CASPT2, CASPT2-K, improved NEVPT2 
  Axel Koslowski         : Symmetry handling                             
  Simone Kossmann        : meta-GGA functionals, TD-DFT gradient, OOMP2, (MP2 Hessian; deprecated post 5.0) 
  Lucas Lang             : DCDCAS                                        
  Marvin Lechner         : AUTO-CI (C++ implementation), FIC-MRCC        
  Spencer Leger          : CASSCF response                               
  Dagmar Lenk            : GEPOL surface, SMD, ORCA-2-JSON               
  Dimitrios Liakos       : Extrapolation schemes; Compound Job, initial MDCI parallelization 
  Dimitrios Manganas     : Further ROCIS development; embedding schemes. LFT, Crystal Embedding 
  Dimitrios Pantazis     : SARC Basis sets                               
  Anastasios Papadopoulos: AUTO-CI, single reference methods and gradients 
  Taras Petrenko         : pre 6.0 DFT Hessian and TD-DFT gradient, (ASA, deprecated), ECA, 1-Electron XAS/XES, NRVS 
  Peter Pinski           : DLPNO-MP2, DLPNO-MP2 Gradient                 
  Christoph Reimann      : Effective Core Potentials                     
  Marius Retegan         : Local ZFS, SOC                                
  Christoph Riplinger    : Optimizer, TS searches, QM/MM, DLPNO-CCSD(T), (RO)-DLPNO pert. Triples 
  Michael Roemelt        : Original ROCIS implementation                 
  Masaaki Saitow         : Open-shell DLPNO-CCSD energy and density      
  Barbara Sandhoefer     : DKH picture change effects                    
  Kantharuban Sivalingam : CASSCF convergence/infrastructure, NEVPT2 and variants, FIC-MRCI 
  Bernardo de Souza      : ESD, SOC TD-DFT                               
  Georgi L. Stoychev     : AutoAux, RI-MP2 NMR, DLPNO-MP2 response, X2C  
  Van Anh Tran           : RI-MP2 g-tensors                              
  Willem Van den Heuvel  : Paramagnetic NMR                              
  Zikuan Wang            : NOTCH, Electric field optimization            
  Frank Wennmohs         : Technical directorship and infrastructure     
  Hang Xu                : AUTO-CI-Response properties                   
                                                                         
[FACCTs GmbH]                                                            
  Markus Bursch, Miquel Garcia-Rates, Christoph Riplinger, Bernardo de Souza, Georgi L. Stoychev 
                                                                 
  APM, Basis sets (HGBS, AHGBS, def-TZVP (Ac-Lr), def2-XVPD (La-Lu)), CI-OPT, improved COSX, DLPNO-Multilevel,           
  DOCKER, DRACO, updates on ESD, GOAT, IRC, LR-CPCM, MBIS, meta-GGA TD-DFT gradient, ML-optimized integration grids, 
  MM, NACMEs, nearIR, NEB, NEB-TS, NL-DFT gradient (VV10), 2- and 3-layer-ONIOM, interface openCOSMO-RS, QMMM,   
  Crystal-QMMM, SF, symmetry and pop. for TD-DFT, r2SCAN hybrids, SOLVATOR                                   
                                                                         
[Other institutions]                                                     
  V. Asgeirsson          : NEB                                           
  Christoph Bannwarth    : sTDA-DFT, sTD-DFT, PBEh-3c, B97-3c, D3        
  Sebastian Ehlert       : rSCAN, r2SCAN, r2SCAN-3c, D4, dhf basis sets  
  Marvin Friede          : D4 for Fr, Ra, Ac-Lr                          
  Lars Goerigk           : TD-DFT with DH, B97 family of functionals     
  Stefan Grimme          : VdW corrections, initial TS optimization, DFT functionals, gCP, sTDA/sTD-DF 
  Waldemar Hujo          : DFT-NL                                        
  H. Jonsson             : NEB                                           
  Holger Kruse           : gCP                                           
  Marcel Mueller         : wB97X-3c, vDZP basis set                      
  Hagen Neugebauer       : wr2SCAN                                       
  Tobias Risthaus        : range-separated hybrid DFT                    
  Lukas Wittmann         : regularized MP2, r2SCAN double-hybrids, wr2SCAN        
                                                                         
We gratefully acknowledge several colleagues who have allowed us to      
interface, adapt or use parts of their codes:                            
  Ed Valeev, F. Pavosevic, A. Kumar             : LibInt (2-el integral package), F12 methods 
  Garnet Chan, S. Sharma, J. Yang, R. Olivares  : DMRG                   
  Ulf Ekstrom                                   : XCFun DFT Library      
  Mihaly Kallay                                 : mrcc  (arbitrary order and MRCC methods)
  Frank Weinhold                                : gennbo (NPA and NBO analysis)           
  Simon Mueller                                 : openCOSMO-RS                            
  Christopher J. Cramer and Donald G. Truhlar   : smd solvation model                     
  S Lehtola, MJT Oliveira, MAL Marques          : LibXC Library                           
  Liviu Ungur et al                             : ANISO software                          


 Your calculation uses the libint2 library for the computation of 2-el integrals
 For citations please refer to: http://libint.valeyev.net

 Your ORCA version has been built with support for libXC version: 6.2.2
 For citations please refer to: https://libxc.gitlab.io

 This ORCA versions uses:
   CBLAS   interface :  Fast vector & matrix operations
   LAPACKE interface :  Fast linear algebra routines
   SCALAPACK package :  Parallel linear algebra routines
   Shared memory     :  Shared parallel matrices
   BLAS/LAPACK       :  OpenBLAS 0.3.27  USE64BITINT DYNAMIC_ARCH NO_AFFINITY SkylakeX SINGLE_THREADED
        Core in use  :  SkylakeX
   Copyright (c) 2011-2014, The OpenBLAS Project


Your calculation utilizes the atom-pairwise dispersion correction
based on EEQ partial charges (D4)


================================================================================

cite the ECPs for C  [vDZP-ECP], O  [vDZP-ECP] as follows:
   B-Ne (ecp-2-mwb), Al-Ar (ecp-10-mwb), Ga-Kr (ecp-28-mwb), Y-Cd (ecp-28-mwb), In-Xe (ecp-46-mwb):
     A. Bergner, M. Dolg, W. Küchle, H. Stoll, and H. Preuß, Mol. Phys. 80, 1431 (1993)., T. Leininger, A. Berning, A. Nicklass, H. Stoll, H.-J. Werner, and H.-J.Flad, Chem. Phys. 217, 19 (1997).
   Na-Mg, K-Ca, Rb-Sr, Cs-Ba (CRENBL):
     L. Fernandez Pacios and P. A. Christiansen, J. Chem. Phys. 82, 2664 (1985)., M. M. Hurley, L. F. Pacios, P. A. Christiansen, R. B. Ross, and W. C. Ermler, J. Chem. Phys. 84, 6840 (1986)., L. A. LaJohn, P. A. Christiansen, R. B. Ross, T. Atashroo, and W. C. Ermler, J. Chem. Phys. 87, 2812 (1987)., R. B. Ross, J. M. Powers, T. Atashroo, W. C. Ermler, L. A. LaJohn, and P. A. Christiansen, J. Chem. Phys. 93, 6654 (1990). 
   Sc-Zn (ecp-10-mdf):
     M. Dolg, U. Wedig, H. Stoll, and H. Preuss, J. Chem. Phys. 86, 866 (1986). 
   Y-Cd (ecp-28-mwb), Hf-Hg (ecp-60-mwb):
     D. Andrae, U. Häußermann, M. Dolg, H. Stoll, and H. Preuß, Theor. Chim. Acta 77, 123 (1990). 
   La (ecp-46-mwb):
     M. Dolg, H. Stoll, and H. Preuss, J. Chem. Phys. 90, 1730 (1989)., M. Dolg, H. Stoll, and H. Preuss, Theor. Chim. Acta 85, 441 (1993).
   Ce-Lu (SBKJC-ecp):
     T. R. Cundari and W. J. Stevens, J. Chem. Phys. 98, 5555 (1993).
   Tl-Rn (ecp-78-mwb):
     W. Küchle, M. Dolg, H. Stoll, and H. Preuss, Mol. Phys. 74, 1245 (1991).

ECP parameters for C  [vDZP-ECP], O  [vDZP-ECP] have been obtained from:
MM, AH, SG, J. Chem. Phys. 158, 014103 (2023), 10.1063/5.0133026

----- Orbital basis set information -----
Your calculation utilizes the basis: vDZP
   Marcel Mueller, Andreas Hansen, Stefan Grimme 
   J. Chem. Phys. 158, 014103 (2023). DOI: 10.1063/5.0133026

----- AuxJ basis set information -----
Your calculation utilizes the auxiliary basis: def2/J
   F. Weigend, Phys. Chem. Chem. Phys. 8, 1057 (2006).

================================================================================
                                        WARNINGS
                       Please study these warnings very carefully!
================================================================================

WARNING: Frozen-Core approximation turned on, but there are no core electrons.
  ===> : Turning off frozen-core approximation


WARNING: Geometry Optimization
  ===> : Switching off AutoStart
         For restart on a previous wavefunction, please use MOREAD

================================================================================
                                       INPUT FILE
================================================================================
NAME = ./output/octyl_acetate/octyl_acetate.inp
|  1> ! wB97X-3c OPT FREQ TightSCF
|  2> %pal
|  3>   nprocs 40
|  4> end
|  5> * xyz 0 1
|  6> C     -5.211328    -0.190458     0.642062
|  7> C     -4.412702    -0.274707    -0.658641
|  8> C     -2.962548    -0.734003    -0.439748
|  9> C     -2.095949     0.349202     0.226122
| 10> C     -0.639653    -0.101491     0.428705
| 11> C      0.178700    -0.058351    -0.873716
| 12> C      1.626636    -0.534980    -0.675989
| 13> C      2.484437     0.472042     0.093101
| 14> O      3.837537     0.028350     0.102610
| 15> C      4.860596     0.743128     0.731798
| 16> O      4.621822     1.840944     1.304740
| 17> C      6.257583     0.224888     0.681844
| 18> H     -5.158302    -1.152534     1.194626
| 19> H     -6.275511     0.022712     0.407422
| 20> H     -4.831035     0.628581     1.286473
| 21> H     -4.429231     0.711591    -1.171366
| 22> H     -4.915468    -1.007772    -1.326282
| 23> H     -2.950874    -1.661196     0.174223
| 24> H     -2.539146    -0.984712    -1.434443
| 25> H     -2.516121     0.582157     1.227269
| 26> H     -2.122133     1.284012    -0.375768
| 27> H     -0.177453     0.585680     1.168339
| 28> H     -0.617644    -1.125847     0.861151
| 29> H      0.175816     0.972584    -1.290730
| 30> H     -0.291101    -0.725527    -1.625851
| 31> H      2.082011    -0.687411    -1.678984
| 32> H      1.637299    -1.514924    -0.150621
| 33> H      2.124772     0.559241     1.140181
| 34> H      2.427590     1.467972    -0.398451
| 35> H      6.249223    -0.872856     0.516413
| 36> H      6.804058     0.714588    -0.150680
| 37> H      6.778120     0.439095     1.639066
| 38> *
| 39> 
| 40>                          ****END OF INPUT****
================================================================================

                       *****************************
                       * Geometry Optimization Run *
                       *****************************

Geometry optimization settings:
Update method            Update   .... BFGS
Choice of coordinates    CoordSys .... (2022) Redundant Internals
Initial Hessian          InHess   .... Almloef's Model
Max. no of cycles        MaxIter  .... 96

Convergence Tolerances:
Energy Change            TolE     ....  5.0000e-06 Eh
Max. Gradient            TolMAXG  ....  3.0000e-04 Eh/bohr
RMS Gradient             TolRMSG  ....  1.0000e-04 Eh/bohr
Max. Displacement        TolMAXD  ....  4.0000e-03 bohr
RMS Displacement         TolRMSD  ....  2.0000e-03 bohr
Strict Convergence                .... False

------------------------------------------------------------------------------
                        ORCA OPTIMIZATION COORDINATE SETUP
------------------------------------------------------------------------------

The optimization will be done in redundant internal coordinates (2022)
Making redundant internal coordinates   ...  (2022 redundants) done
Evaluating the initial hessian          ...  (Almloef) done
Evaluating the coordinates              ...  done
Calculating the B-matrix                .... done
Calculating the G-matrix                .... done
Diagonalizing the G-matrix              .... done
Small eigenvalue found = 2.666e-03
Small eigenvalue found = 4.669e-03
Small eigenvalue found = 1.422e-02
Small eigenvalue found = 1.755e-02
Small eigenvalue found = 2.326e-02
The first mode is                       ....   51
The number of degrees of freedom        ....   90

    -----------------------------------------------------------------
                    Redundant Internal Coordinates


    -----------------------------------------------------------------
         Definition                    Initial Value    Approx d2E/dq
    -----------------------------------------------------------------
      1. B(C   1,C   0)                  1.5286         0.375451   
      2. B(C   2,C   1)                  1.5368         0.364332   
      3. B(C   3,C   2)                  1.5387         0.361775   
      4. B(C   4,C   3)                  1.5378         0.362964   
      5. B(C   5,C   4)                  1.5388         0.361709   
      6. B(C   6,C   5)                  1.5371         0.363908   
      7. B(C   7,C   6)                  1.5302         0.373344   
      8. B(O   8,C   7)                  1.4240         0.493854   
      9. B(C   9,O   8)                  1.3977         0.544083   
     10. B(O  10,C   9)                  1.2611         0.898385   
     11. B(C  11,C   9)                  1.4909         0.431355   
     12. B(H  12,C   0)                  1.1107         0.333691   
     13. B(H  13,C   0)                  1.1104         0.334103   
     14. B(H  14,C   0)                  1.1094         0.335360   
     15. B(H  15,C   1)                  1.1117         0.332471   
     16. B(H  16,C   1)                  1.1117         0.332494   
     17. B(H  17,C   2)                  1.1121         0.332010   
     18. B(H  18,C   2)                  1.1097         0.334900   
     19. B(H  19,C   3)                  1.1105         0.334034   
     20. B(H  20,C   3)                  1.1121         0.331987   
     21. B(H  21,C   4)                  1.1104         0.334153   
     22. B(H  22,C   4)                  1.1121         0.332002   
     23. B(H  23,C   5)                  1.1121         0.332036   
     24. B(H  24,C   5)                  1.1097         0.334899   
     25. B(H  25,C   6)                  1.1120         0.332111   
     26. B(H  26,C   6)                  1.1119         0.332212   
     27. B(H  27,C   7)                  1.1106         0.333906   
     28. B(H  28,C   7)                  1.1121         0.332039   
     29. B(H  29,C  11)                  1.1102         0.334381   
     30. B(H  30,C  11)                  1.1097         0.334903   
     31. B(H  31,C  11)                  1.1105         0.334028   
     32. A(H  12,C   0,H  13)          108.4911         0.284053   
     33. A(C   1,C   0,H  12)          110.5252         0.320559   
     34. A(C   1,C   0,H  13)          109.3584         0.320624   
     35. A(C   1,C   0,H  14)          110.8462         0.320821   
     36. A(H  13,C   0,H  14)          108.0318         0.284274   
     37. A(H  12,C   0,H  14)          109.5202         0.284219   
     38. A(C   0,C   1,H  15)          109.6190         0.320367   
     39. A(C   0,C   1,H  16)          108.1240         0.320371   
     40. A(C   0,C   1,C   2)          112.8462         0.362110   
     41. A(C   2,C   1,H  16)          108.3735         0.318802   
     42. A(H  15,C   1,H  16)          107.5362         0.283679   
     43. A(C   2,C   1,H  15)          110.1733         0.318799   
     44. A(C   3,C   2,H  18)          109.3924         0.318811   
     45. A(C   3,C   2,H  17)          110.0043         0.318360   
     46. A(H  17,C   2,H  18)          107.6069         0.283936   
     47. A(C   1,C   2,H  18)          107.4495         0.319177   
     48. A(C   1,C   2,C   3)          112.4997         0.359826   
     49. A(C   1,C   2,H  17)          109.7373         0.318726   
     50. A(C   2,C   3,H  20)          110.1365         0.318357   
     51. A(C   2,C   3,H  19)          108.9487         0.318676   
     52. A(C   2,C   3,C   4)          112.5831         0.359595   
     53. A(C   4,C   3,H  19)          107.5195         0.318847   
     54. A(H  19,C   3,H  20)          107.6191         0.283818   
     55. A(C   4,C   3,H  20)          109.8727         0.318527   
     56. A(C   3,C   4,C   5)          112.5757         0.359584   
     57. A(H  21,C   4,H  22)          107.6245         0.283836   
     58. A(C   5,C   4,H  22)          110.1463         0.318350   
     59. A(C   3,C   4,H  22)          109.8712         0.318530   
     60. A(C   5,C   4,H  21)          108.9703         0.318685   
     61. A(C   3,C   4,H  21)          107.4917         0.318865   
     62. A(H  23,C   5,H  24)          107.5826         0.283939   
     63. A(C   4,C   5,C   6)          112.5437         0.359743   
     64. A(C   6,C   5,H  24)          107.4299         0.319117   
     65. A(C   4,C   5,H  24)          109.3691         0.318801   
     66. A(C   6,C   5,H  23)          109.7628         0.318670   
     67. A(C   4,C   5,H  23)          109.9984         0.318355   
     68. A(C   5,C   6,C   7)          112.8705         0.361690   
     69. A(H  25,C   6,H  26)          107.5431         0.283594   
     70. A(C   7,C   6,H  26)          109.7025         0.320032   
     71. A(C   5,C   6,H  26)          110.0644         0.318697   
     72. A(C   7,C   6,H  25)          108.2996         0.320016   
     73. A(C   5,C   6,H  25)          108.1930         0.318681   
     74. A(C   6,C   7,O   8)          109.3281         0.378798   
     75. A(H  27,C   7,H  28)          109.2611         0.283808   
     76. A(O   8,C   7,H  28)          109.3026         0.333079   
     77. A(C   6,C   7,H  28)          109.7889         0.320005   
     78. A(O   8,C   7,H  27)          109.0201         0.333389   
     79. A(C   6,C   7,H  27)          110.1213         0.320298   
     80. A(C   7,O   8,C   9)          122.6285         0.401986   
     81. A(O  10,C   9,C  11)          119.6849         0.431854   
     82. A(O   8,C   9,C  11)          119.5405         0.395065   
     83. A(O   8,C   9,O  10)          120.7379         0.447379   
     84. A(H  30,C  11,H  31)          109.3124         0.284204   
     85. A(H  29,C  11,H  31)          108.8276         0.284135   
     86. A(C   9,C  11,H  31)          110.0785         0.328004   
     87. A(H  29,C  11,H  30)          109.1627         0.284250   
     88. A(C   9,C  11,H  30)          109.4615         0.328146   
     89. A(C   9,C  11,H  29)          109.9780         0.328061   
     90. D(H  15,C   1,C   0,H  12)   -176.8961         0.011249   
     91. D(H  15,C   1,C   0,H  13)     63.7312         0.011249   
     92. D(H  15,C   1,C   0,H  14)    -55.2721         0.011249   
     93. D(C   2,C   1,C   0,H  14)     67.9209         0.011249   
     94. D(C   2,C   1,C   0,H  12)    -53.7032         0.011249   
     95. D(C   2,C   1,C   0,H  13)   -173.0758         0.011249   
     96. D(H  17,C   2,C   1,C   0)     50.6965         0.010632   
     97. D(H  17,C   2,C   1,H  16)    -69.0143         0.010632   
     98. D(H  17,C   2,C   1,H  15)    173.5810         0.010632   
     99. D(C   3,C   2,C   1,H  15)     50.7612         0.010632   
    100. D(C   3,C   2,C   1,C   0)    -72.1233         0.010632   
    101. D(C   3,C   2,C   1,H  16)    168.1659         0.010632   
    102. D(C   4,C   3,C   2,H  17)     58.1083         0.010493   
    103. D(C   4,C   3,C   2,H  18)    -59.8882         0.010493   
    104. D(C   4,C   3,C   2,C   1)   -179.2220         0.010493   
    105. D(H  19,C   3,C   2,H  17)    -61.0683         0.010493   
    106. D(H  19,C   3,C   2,H  18)   -179.0648         0.010493   
    107. D(H  19,C   3,C   2,C   1)     61.6014         0.010493   
    108. D(H  21,C   4,C   3,H  20)     73.6791         0.010558   
    109. D(H  21,C   4,C   3,H  19)    -43.1681         0.010558   
    110. D(H  21,C   4,C   3,C   2)   -163.1739         0.010558   
    111. D(C   5,C   4,C   3,H  19)   -163.1777         0.010558   
    112. D(C   5,C   4,C   3,C   2)     76.8166         0.010558   
    113. D(C   5,C   4,C   3,H  20)    -46.3305         0.010558   
    114. D(H  23,C   5,C   4,H  22)   -178.6134         0.010490   
    115. D(H  23,C   5,C   4,H  21)    -60.7645         0.010490   
    116. D(H  23,C   5,C   4,C   3)     58.3870         0.010490   
    117. D(C   6,C   5,C   4,H  22)    -55.8844         0.010490   
    118. D(C   6,C   5,C   4,H  21)     61.9646         0.010490   
    119. D(C   6,C   5,C   4,C   3)   -178.8839         0.010490   
    120. D(C   7,C   6,C   5,C   4)    -72.3630         0.010609   
    121. D(H  25,C   6,C   5,H  24)     47.3691         0.010609   
    122. D(H  25,C   6,C   5,H  23)    -69.3255         0.010609   
    123. D(H  25,C   6,C   5,C   4)    167.8131         0.010609   
    124. D(C   7,C   6,C   5,H  24)    167.1929         0.010609   
    125. D(C   7,C   6,C   5,H  23)     50.4983         0.010609   
    126. D(H  27,C   7,C   6,H  26)    -56.4038         0.011131   
    127. D(H  27,C   7,C   6,H  25)   -173.5105         0.011131   
    128. D(H  27,C   7,C   6,C   5)     66.7271         0.011131   
    129. D(O   8,C   7,C   6,H  26)     63.3528         0.011131   
    130. D(O   8,C   7,C   6,H  25)    -53.7539         0.011131   
    131. D(O   8,C   7,C   6,C   5)   -173.5164         0.011131   
    132. D(C   9,O   8,C   7,H  28)     59.7991         0.019267   
    133. D(C   9,O   8,C   7,H  27)    -59.5705         0.019267   
    134. D(C   9,O   8,C   7,C   6)    179.9974         0.019267   
    135. D(C  11,C   9,O   8,C   7)   -179.0957         0.021389   
    136. D(O  10,C   9,O   8,C   7)     -1.3078         0.021389   
    137. D(H  31,C  11,C   9,O   8)   -143.9394         0.013740   
    138. D(H  30,C  11,C   9,O  10)    -81.9243         0.013740   
    139. D(H  30,C  11,C   9,O   8)     95.8873         0.013740   
    140. D(H  29,C  11,C   9,O  10)    158.1490         0.013740   
    141. D(H  29,C  11,C   9,O   8)    -24.0395         0.013740   
    -----------------------------------------------------------------

Number of atoms                         .... 32
Number of degrees of freedom            .... 141


         *************************************************************
         *                GEOMETRY OPTIMIZATION CYCLE   1            *
         *************************************************************
---------------------------------
CARTESIAN COORDINATES (ANGSTROEM)
---------------------------------
  C     -5.211328   -0.190458    0.642062
  C     -4.412702   -0.274707   -0.658641
  C     -2.962548   -0.734003   -0.439748
  C     -2.095949    0.349202    0.226122
  C     -0.639653   -0.101491    0.428705
  C      0.178700   -0.058351   -0.873716
  C      1.626636   -0.534980   -0.675989
  C      2.484437    0.472042    0.093101
  O      3.837537    0.028350    0.102610
  C      4.860596    0.743128    0.731798
  O      4.621822    1.840944    1.304740
  C      6.257583    0.224888    0.681844
  H     -5.158302   -1.152534    1.194626
  H     -6.275511    0.022712    0.407422
  H     -4.831035    0.628581    1.286473
  H     -4.429231    0.711591   -1.171366
  H     -4.915468   -1.007772   -1.326282
  H     -2.950874   -1.661196    0.174223
  H     -2.539146   -0.984712   -1.434443
  H     -2.516121    0.582157    1.227269
  H     -2.122133    1.284012   -0.375768
  H     -0.177453    0.585680    1.168339
  H     -0.617644   -1.125847    0.861151
  H      0.175816    0.972584   -1.290730
  H     -0.291101   -0.725527   -1.625851
  H      2.082011   -0.687411   -1.678984
  H      1.637299   -1.514924   -0.150621
  H      2.124772    0.559241    1.140181
  H      2.427590    1.467972   -0.398451
  H      6.249223   -0.872856    0.516413
  H      6.804058    0.714588   -0.150680
  H      6.778120    0.439095    1.639066

----------------------------
CARTESIAN COORDINATES (A.U.)
----------------------------
  NO LB      ZA    FRAG     MASS         X           Y           Z
   0 C     4.0000*   0    12.011   -9.847983   -0.359913    1.213321
   1 C     4.0000*   0    12.011   -8.338798   -0.519121   -1.244651
   2 C     4.0000*   0    12.011   -5.598404   -1.387065   -0.831003
   3 C     4.0000*   0    12.011   -3.960770    0.659896    0.427309
   4 C     4.0000*   0    12.011   -1.208769   -0.191790    0.810135
   5 C     4.0000*   0    12.011    0.337694   -0.110267   -1.651084
   6 C     4.0000*   0    12.011    3.073897   -1.010966   -1.277434
   7 C     4.0000*   0    12.011    4.694906    0.892030    0.175935
   8 O     6.0000*   0    15.999    7.251894    0.053574    0.193905
   9 C     4.0000*   0    12.011    9.185195    1.404308    1.382898
  10 O     6.0000*   0    15.999    8.733978    3.478880    2.465601
  11 C     4.0000*   0    12.011   11.825118    0.424977    1.288498
  12 H     1.0000    0     1.008   -9.747778   -2.177974    2.257516
  13 H     1.0000    0     1.008  -11.858997    0.042919    0.769916
  14 H     1.0000    0     1.008   -9.129333    1.187846    2.431082
  15 H     1.0000    0     1.008   -8.370034    1.344712   -2.213561
  16 H     1.0000    0     1.008   -9.288888   -1.904413   -2.506310
  17 H     1.0000    0     1.008   -5.576344   -3.139205    0.329234
  18 H     1.0000    0     1.008   -4.798291   -1.860836   -2.710704
  19 H     1.0000    0     1.008   -4.754780    1.100117    2.319202
  20 H     1.0000    0     1.008   -4.010250    2.426431   -0.710099
  21 H     1.0000    0     1.008   -0.335338    1.106775    2.207841
  22 H     1.0000    0     1.008   -1.167178   -2.127542    1.627340
  23 H     1.0000    0     1.008    0.332244    1.837917   -2.439126
  24 H     1.0000    0     1.008   -0.550101   -1.371047   -3.072413
  25 H     1.0000    0     1.008    3.934431   -1.299019   -3.172820
  26 H     1.0000    0     1.008    3.094047   -2.862791   -0.284632
  27 H     1.0000    0     1.008    4.015237    1.056812    2.154630
  28 H     1.0000    0     1.008    4.587480    2.774065   -0.752963
  29 H     1.0000    0     1.008   11.809320   -1.649459    0.975879
  30 H     1.0000    0     1.008   12.857806    1.350376   -0.284744
  31 H     1.0000    0     1.008   12.808791    0.829769    3.097386
* core charge reduced due to ECP

--------------------------------
INTERNAL COORDINATES (ANGSTROEM)
--------------------------------
 C      0   0   0     0.000000000000     0.00000000     0.00000000
 C      1   0   0     1.528636541525     0.00000000     0.00000000
 C      2   1   0     1.536819307785   112.84616707     0.00000000
 C      3   2   1     1.538736415286   112.49974181   287.87670147
 C      4   3   2     1.537843324840   112.58305889   180.77798825
 C      5   4   3     1.538786259833   112.57565971    76.81655650
 C      6   5   4     1.537136893795   112.54369978   181.11607969
 C      7   6   5     1.530168386873   112.87051643   287.63696208
 O      8   7   6     1.424019881162   109.32810185   186.48363706
 C      9   8   7     1.397653335455   122.62852997   179.99738032
 O     10   9   8     1.261140566430   120.73785156   358.69220921
 C     10   9   8     1.490852366227   119.54053293   180.90425440
 H      1   2   3     1.110733523645   110.52521720   306.29684367
 H      1   2   3     1.110397602658   109.35842762   186.92421486
 H      1   2   3     1.109375133258   110.84616497    67.92085304
 H      2   1   3     1.111730128345   109.61900257   236.80702042
 H      2   1   3     1.111711495786   108.12398840   119.85454411
 H      3   2   1     1.112107697287   109.73727473    50.69646731
 H      3   2   1     1.109748800094   107.44953707   167.41737210
 H      4   3   2     1.110453896935   108.94873348    61.60139253
 H      4   3   2     1.112127200484   110.13653437   303.77754803
 H      5   4   3     1.110356373962   107.49165114   196.82611557
 H      5   4   3     1.112114721480   109.87117858   313.66315769
 H      6   5   4     1.112086313142   109.99842275    58.38699366
 H      6   5   4     1.109749454968   109.36908092   300.43750549
 H      7   6   5     1.112025436045   108.19303460   167.81314274
 H      7   6   5     1.111942209887   110.06440869    50.56649535
 H      8   7   6     1.110558014795   110.12133309    66.72705304
 H      8   7   6     1.112084311108   109.78890690   306.38343567
 H     12  10   9     1.110170795372   109.97797826   335.96046490
 H     12  10   9     1.109746469335   109.46148202    95.88725960
 H     12  10   9     1.110458177737   110.07851815   216.06060184

---------------------------
INTERNAL COORDINATES (A.U.)
---------------------------
 C      0   0   0     0.000000000000     0.00000000     0.00000000
 C      1   0   0     2.888704421787     0.00000000     0.00000000
 C      2   1   0     2.904167609036   112.84616707     0.00000000
 C      3   2   1     2.907790417182   112.49974181   287.87670147
 C      4   3   2     2.906102720826   112.58305889   180.77798825
 C      5   4   3     2.907884609725   112.57565971    76.81655650
 C      6   5   4     2.904767759619   112.54369978   181.11607969
 C      7   6   5     2.891599189974   112.87051643   287.63696208
 O      8   7   6     2.691007584656   109.32810185   186.48363706
 C      9   8   7     2.641182034172   122.62852997   179.99738032
 O     10   9   8     2.383210286931   120.73785156   358.69220921
 C     10   9   8     2.817302678278   119.54053293   180.90425440
 H      1   2   3     2.098982167454   110.52521720   306.29684367
 H      1   2   3     2.098347368787   109.35842762   186.92421486
 H      1   2   3     2.096415181640   110.84616497    67.92085304
 H      2   1   3     2.100865477401   109.61900257   236.80702042
 H      2   1   3     2.100830266967   108.12398840   119.85454411
 H      3   2   1     2.101578979299   109.73727473    50.69646731
 H      3   2   1     2.097121309625   107.44953707   167.41737210
 H      4   3   2     2.098453749553   108.94873348    61.60139253
 H      4   3   2     2.101615834999   110.13653437   303.77754803
 H      5   4   3     2.098269457841   107.49165114   196.82611557
 H      5   4   3     2.101592253100   109.87117858   313.66315769
 H      6   5   4     2.101538569120   109.99842275    58.38699366
 H      6   5   4     2.097122547158   109.36908092   300.43750549
 H      7   6   5     2.101423528079   108.19303460   167.81314274
 H      7   6   5     2.101266253434   110.06440869    50.56649535
 H      8   7   6     2.098650503794   110.12133309    66.72705304
 H      8   7   6     2.101534785825   109.78890690   306.38343567
 H     12  10   9     2.097918765131   109.97797826   335.96046490
 H     12  10   9     2.097116905129   109.46148202    95.88725960
 H     12  10   9     2.098461839095   110.07851815   216.06060184

---------------------
BASIS SET INFORMATION
---------------------
There are 3 groups of distinct atoms

 Group   1 Type C   : 6s6p2d contracted to 2s2p1d pattern {42/42/2}
 Group   2 Type O   : 6s6p2d contracted to 2s2p1d pattern {42/42/2}
 Group   3 Type H   : 8s2p contracted to 2s1p pattern {53/2}

Atom   0C    basis set group =>   1
Atom   1C    basis set group =>   1
Atom   2C    basis set group =>   1
Atom   3C    basis set group =>   1
Atom   4C    basis set group =>   1
Atom   5C    basis set group =>   1
Atom   6C    basis set group =>   1
Atom   7C    basis set group =>   1
Atom   8O    basis set group =>   2
Atom   9C    basis set group =>   1
Atom  10O    basis set group =>   2
Atom  11C    basis set group =>   1
Atom  12H    basis set group =>   3
Atom  13H    basis set group =>   3
Atom  14H    basis set group =>   3
Atom  15H    basis set group =>   3
Atom  16H    basis set group =>   3
Atom  17H    basis set group =>   3
Atom  18H    basis set group =>   3
Atom  19H    basis set group =>   3
Atom  20H    basis set group =>   3
Atom  21H    basis set group =>   3
Atom  22H    basis set group =>   3
Atom  23H    basis set group =>   3
Atom  24H    basis set group =>   3
Atom  25H    basis set group =>   3
Atom  26H    basis set group =>   3
Atom  27H    basis set group =>   3
Atom  28H    basis set group =>   3
Atom  29H    basis set group =>   3
Atom  30H    basis set group =>   3
Atom  31H    basis set group =>   3
---------------------------------
AUXILIARY/J BASIS SET INFORMATION
---------------------------------
There are 3 groups of distinct atoms

 Group   1 Type C   : 12s5p4d2f1g contracted to 6s4p3d1f1g pattern {711111/2111/211/2/1}
 Group   2 Type O   : 12s5p4d2f1g contracted to 6s4p3d1f1g pattern {711111/2111/211/2/1}
 Group   3 Type H   : 5s2p1d contracted to 3s1p1d pattern {311/2/1}

Atom   0C    basis set group =>   1
Atom   1C    basis set group =>   1
Atom   2C    basis set group =>   1
Atom   3C    basis set group =>   1
Atom   4C    basis set group =>   1
Atom   5C    basis set group =>   1
Atom   6C    basis set group =>   1
Atom   7C    basis set group =>   1
Atom   8O    basis set group =>   2
Atom   9C    basis set group =>   1
Atom  10O    basis set group =>   2
Atom  11C    basis set group =>   1
Atom  12H    basis set group =>   3
Atom  13H    basis set group =>   3
Atom  14H    basis set group =>   3
Atom  15H    basis set group =>   3
Atom  16H    basis set group =>   3
Atom  17H    basis set group =>   3
Atom  18H    basis set group =>   3
Atom  19H    basis set group =>   3
Atom  20H    basis set group =>   3
Atom  21H    basis set group =>   3
Atom  22H    basis set group =>   3
Atom  23H    basis set group =>   3
Atom  24H    basis set group =>   3
Atom  25H    basis set group =>   3
Atom  26H    basis set group =>   3
Atom  27H    basis set group =>   3
Atom  28H    basis set group =>   3
Atom  29H    basis set group =>   3
Atom  30H    basis set group =>   3
Atom  31H    basis set group =>   3
-------------------------
ECP PARAMETER INFORMATION
-------------------------

 Group 1, Type C  ECP vDZP-ECP (replacing 2 core electrons, lmax=3)
 Group 2, Type O  ECP vDZP-ECP (replacing 2 core electrons, lmax=3)

Atom   0C    ECP group =>   1
Atom   1C    ECP group =>   1
Atom   2C    ECP group =>   1
Atom   3C    ECP group =>   1
Atom   4C    ECP group =>   1
Atom   5C    ECP group =>   1
Atom   6C    ECP group =>   1
Atom   7C    ECP group =>   1
Atom   8O    ECP group =>   2
Atom   9C    ECP group =>   1
Atom  10O    ECP group =>   2
Atom  11C    ECP group =>   1



           ************************************************************
           *        Program running with 40 parallel MPI-processes    *
           *              working on a common directory               *
           ************************************************************
------------------------------------------------------------------------------
                             ORCA STARTUP CALCULATIONS
                           -- RI-GTO INTEGRALS CHOSEN --
------------------------------------------------------------------------------
------------------------------------------------------------------------------
                   ___                                                        
                  /   \      - P O W E R E D   B Y -                         
                 /     \                                                     
                 |  |  |   _    _      __       _____    __    __             
                 |  |  |  | |  | |    /  \     |  _  \  |  |  /  |          
                  \  \/   | |  | |   /    \    | | | |  |  | /  /          
                 / \  \   | |__| |  /  /\  \   | |_| |  |  |/  /          
                |  |  |   |  __  | /  /__\  \  |    /   |      \           
                |  |  |   | |  | | |   __   |  |    \   |  |\   \          
                \     /   | |  | | |  |  |  |  | |\  \  |  | \   \       
                 \___/    |_|  |_| |__|  |__|  |_| \__\ |__|  \__/        
                                                                              
                      - O R C A' S   B I G   F R I E N D -                    
                                      &                                       
                       - I N T E G R A L  F E E D E R -                       
                                                                              
 v1 FN, 2020, v2 2021, v3 2022-2024                                           
------------------------------------------------------------------------------


----------------------
SHARK INTEGRAL PACKAGE
----------------------

Number of atoms                             ...     32
Number of basis functions                   ...    256
Number of shells                            ...    120
Maximum angular momentum                    ...      2
Integral batch strategy                     ... SHARK/LIBINT Hybrid
RI-J (if used) integral strategy            ... SPLIT-RIJ (Revised 2003 algorithm where possible)
Printlevel                                  ...      1
Contraction scheme used                     ... SEGMENTED contraction
Prescreening option                         ... SCHWARTZ
   Thresh                                   ... 2.500e-11
   Tcut                                     ... 2.500e-12
   Tpresel                                  ... 2.500e-12 
Coulomb Range Separation                    ... NOT USED
Exchange Range Separation                   ... Long Range
   Mu parameter                             ... 3.000e-01
   Scaling (regular/separated)              ... 1.670e-01 8.330e-01
Multipole approximations                    ... NOT USED
Finite Nucleus Model                        ... NOT USED
CABS basis                                  ... NOT available
Auxiliary Coulomb fitting basis             ... AVAILABLE
   # of basis functions in Aux-J            ...    808
   # of shells in Aux-J                     ...    280
   Maximum angular momentum in Aux-J        ...      4
Auxiliary J/K fitting basis                 ... NOT available
Auxiliary Correlation fitting basis         ... NOT available
Auxiliary 'external' fitting basis          ... NOT available

Checking pre-screening integrals            ... done (  0.0 sec) Dimension = 120
Check shell pair data                       ... done (  0.0 sec)
Shell pair information
Shell pair cut-off parameter TPreSel        ...   2.5e-12
Total number of shell pairs                 ...      7260
Shell pairs after pre-screening             ...      6682
Total number of primitive shell pairs       ...     68356
Primitive shell pairs kept                  ...     45986
          la=0 lb=0:   1975 shell pairs
          la=1 lb=0:   2603 shell pairs
          la=1 lb=1:    875 shell pairs
          la=2 lb=0:    705 shell pairs
          la=2 lb=1:    456 shell pairs
          la=2 lb=2:     68 shell pairs

Calculating one electron integrals          ... done (  0.0 sec)
Calculating ECP integrals                   ... done (  0.1 sec)
Calculating RI/J V-Matrix + Cholesky decomp.... done (  0.0 sec)
Calculating Nuclear repulsion               ... done (  0.0 sec) ENN=    384.394967307270 Eh

Diagonalization of the overlap matrix:
Smallest eigenvalue                        ... 1.722e-03
Time for diagonalization                   ...    0.010 sec
Threshold for overlap eigenvalues          ... 1.000e-07
Number of eigenvalues below threshold      ... 0
Time for construction of square roots      ...    0.005 sec
Total time needed                          ...    0.019 sec

-------------------
DFT GRID GENERATION
-------------------

General Integration Accuracy     IntAcc      ... 4.388
Radial Grid Type                 RadialGrid  ... OptM3 with GC (2021)
Angular Grid (max. ang.)         AngularGrid ... 4 (Lebedev-302)
Angular grid pruning method      GridPruning ... 4 (adaptive)
Weight generation scheme         WeightScheme... mBecke (2022)
Basis function cutoff            BFCut       ... 1.0000e-11
Integration weight cutoff        WCut        ... 1.0000e-14
Partially contracted basis set               ... off
Rotationally invariant grid construction     ... off
Angular grids for H and He will be reduced by one unit

Total number of grid points                  ...   136036
Total number of batches                      ...     2145
Average number of points per batch           ...       63
Average number of grid points per atom       ...     4251

--------------------
COSX GRID GENERATION
--------------------

GRIDX 1
-------
General Integration Accuracy     IntAcc      ... 3.816
Radial Grid Type                 RadialGrid  ... OptM3 with GC (2021)
Angular Grid (max. ang.)         AngularGrid ... 1 (Lebedev-50)
Angular grid pruning method      GridPruning ... 4 (adaptive)
Weight generation scheme         WeightScheme... mBecke (2022)
Basis function cutoff            BFCut       ... 1.0000e-11
Integration weight cutoff        WCut        ... 1.0000e-14
Partially contracted basis set               ... on
Rotationally invariant grid construction     ... off
Angular grids for H and He will be reduced by one unit

Total number of grid points                  ...    17449
Total number of batches                      ...      160
Average number of points per batch           ...      109
Average number of grid points per atom       ...      545
UseSFitting                                  ... on

GRIDX 2
-------
General Integration Accuracy     IntAcc      ... 4.020
Radial Grid Type                 RadialGrid  ... OptM3 with GC (2021)
Angular Grid (max. ang.)         AngularGrid ... 2 (Lebedev-110)
Angular grid pruning method      GridPruning ... 4 (adaptive)
Weight generation scheme         WeightScheme... mBecke (2022)
Basis function cutoff            BFCut       ... 1.0000e-11
Integration weight cutoff        WCut        ... 1.0000e-14
Partially contracted basis set               ... on
Rotationally invariant grid construction     ... off
Angular grids for H and He will be reduced by one unit

Total number of grid points                  ...    36408
Total number of batches                      ...      303
Average number of points per batch           ...      120
Average number of grid points per atom       ...     1138
UseSFitting                                  ... on

GRIDX 3
-------
General Integration Accuracy     IntAcc      ... 4.338
Radial Grid Type                 RadialGrid  ... OptM3 with GC (2021)
Angular Grid (max. ang.)         AngularGrid ... 3 (Lebedev-194)
Angular grid pruning method      GridPruning ... 4 (adaptive)
Weight generation scheme         WeightScheme... mBecke (2022)
Basis function cutoff            BFCut       ... 1.0000e-11
Integration weight cutoff        WCut        ... 1.0000e-14
Partially contracted basis set               ... on
Rotationally invariant grid construction     ... off
Angular grids for H and He will be reduced by one unit

Total number of grid points                  ...    79213
Total number of batches                      ...      635
Average number of points per batch           ...      124
Average number of grid points per atom       ...     2475
UseSFitting                                  ... on
Initializing property integral containers    ... done (  0.0 sec)

SHARK setup successfully completed in   4.1 seconds

Maximum memory used throughout the entire STARTUP-calculation: 40.9 MB


           ************************************************************
           *        Program running with 40 parallel MPI-processes    *
           *              working on a common directory               *
           ************************************************************
-------------------------------------------------------------------------------
                                 ORCA GUESS
                   Start orbitals & Density for SCF / CASSCF
-------------------------------------------------------------------------------

------------
SCF SETTINGS
------------
Hamiltonian:
 Density Functional     Method          .... DFT(GTOs)
 Exchange Functional    Exchange        .... WB97X-V
 Correlation Functional Correlation     .... WB97X-V
 Gradients option       PostSCFGGA      .... off
 Hybrid DFT is turned on
   Fraction HF Exchange ScalHFX         ....  0.167000
   Scaling of DF-GGA-X  ScalDFX         ....  0.000000
   Scaling of DF-GGA-C  ScalDFC         ....  1.000000
   Scaling of DF-LDA-C  ScalLDAC        ....  1.000000
   Perturbative correction              ....  0.000000
 Long-range corrected/Screened/Range-Separated Hybrid DFT is turned on
   Amount of maximum screened exact exchange              ....  0.833000
   Range separation parameter mu (erf(mu*r12)/r12)        ....  0.300000
   NL short-range parameter             ....  6.000000
   NL long-range parameter              ....  0.010000
 RI-approximation to the Coulomb term is turned on
   Number of AuxJ basis functions       .... 808
   RIJ-COSX (HFX calculated with COS-X)).... on


General Settings:
 Integral files         IntName         .... ./output/octyl_acetate/octyl_acetate
 Hartree-Fock type      HFTyp           .... RHF
 Total Charge           Charge          ....    0
 Multiplicity           Mult            ....    1
 Number of Electrons    NEL             ....   72
 Basis Dimension        Dim             ....  256
 Nuclear Repulsion      ENuc            ....    384.3949673073 Eh

Convergence Acceleration:
 AO-DIIS                CNVDIIS         .... on
   Start iteration      DIISMaxIt       ....    12
   Startup error        DIISStart       ....  0.200000
   # of expansion vecs  DIISMaxEq       ....     5
   Bias factor          DIISBfac        ....   1.050
   Max. coefficient     DIISMaxC        ....  10.000
 MO-DIIS                CNVKDIIS        .... off
 Trust-Rad. Augm. Hess. CNVTRAH         .... auto
   Auto Start mean grad. ratio tolernc. ....  1.125000
   Auto Start start iteration           ....    50
   Auto Start num. interpolation iter.  ....    10
   Max. Number of Micro iterations      ....    24
   Max. Number of Macro iterations      .... Maxiter - #DIIS iter
   Number of Davidson start vectors     ....     2
   Converg. threshold    (grad. norm)   ....   1.000e-05
   Grad. Scal. Fac. for Micro threshold ....   0.100
   Minimum threshold for Micro iter.    ....   1.000e-02
   NR start threshold (gradient norm)   ....   1.000e-04
   Initial trust radius                 ....   0.400
   Minimum AH scaling param. (alpha)    ....   1.000
   Maximum AH scaling param. (alpha)    .... 1000.000
   Quad. conv. algorithm                .... NR
   White noise on init. David. guess    .... on
   Maximum white noise                  ....   0.010
   Pseudo random numbers                .... off
   Inactive MOs                         .... canonical
   Orbital update algorithm             .... Taylor
   Preconditioner                       .... Diag
   Full preconditioner red. dimension   ....   250
 SOSCF                  CNVSOSCF        .... on
   Start iteration      SOSCFMaxIt      ....   150
   Startup grad/error   SOSCFStart      ....  0.003300
   Hessian update       SOSCFHessUp     .... L-BFGS
 Level Shifting         CNVShift        .... on
   Level shift para.    LevelShift      ....    0.2500
   Turn off err/grad.   ShiftErr        ....    0.0010
 Zerner damping         CNVZerner       .... off
 Static damping         CNVDamp         .... on
   Fraction old density DampFac         ....    0.7000
   Max. Damping (<1)    DampMax         ....    0.9800
   Min. Damping (>=0)   DampMin         ....    0.0000
   Turn off err/grad.   DampErr         ....    0.1000

SCF Procedure:
 Maximum # iterations   MaxIter         ....   125
 SCF integral mode      SCFMode         .... Direct
   Integral package                     .... SHARK and LIBINT hybrid scheme
 Reset frequency        DirectResetFreq ....    20
 Integral Threshold     Thresh          ....  2.500e-11 Eh
 Primitive CutOff       TCut            ....  2.500e-12 Eh

Convergence Tolerance:
 Convergence Check Mode ConvCheckMode   .... Total+1el-Energy
 Convergence forced     ConvForced      .... 0
 Energy Change          TolE            ....  1.000e-08 Eh
 1-El. energy change                    ....  1.000e-05 Eh
 Orbital Gradient       TolG            ....  1.000e-05
 Orbital Rotation angle TolX            ....  1.000e-05
 DIIS Error             TolErr          ....  5.000e-07

------------------------------
INITIAL GUESS: MODEL POTENTIAL
------------------------------
Loading Hartree-Fock densities                     ... done
Atomic calculation to generate a density for atom 0 (C  with ECP)
  Multiplicity assumed   :    1
  Atomic configuration   : 1s2 2s2 2p2 
  Number of open shells  : 1
  Command: /home/aspe232/Project/Software/ORCA/6_0_1/build/orca ./output/octyl_acetate/octyl_acetate_atom6.inp "" > ./output/octyl_acetate/octyl_acetate_atom6.out
Returned from the atomic calculation with res=0
Atomic calculation to generate a density for atom 8 (O  with ECP)
  Multiplicity assumed   :    3
  Atomic configuration   : 1s2 2s2 2p4 
  Number of open shells  : 1
  Command: /home/aspe232/Project/Software/ORCA/6_0_1/build/orca ./output/octyl_acetate/octyl_acetate_atom8.inp "" > ./output/octyl_acetate/octyl_acetate_atom8.out
Returned from the atomic calculation with res=0
Calculating cut-offs                               ... done
Initializing the effective Hamiltonian             ... done
Setting up the integral package (SHARK)            ... done
Starting the Coulomb interaction                   ... done (   0.1 sec)
Making the grid                                    ... done (   0.8 sec)
Mapping shells                                     ... done
Starting the XC term evaluation                    ... done (   0.0 sec)
  promolecular density results
     # of electrons  =     95.997643586
     EX              =    -48.820642564
     EC              =     -3.860260398
     EX+EC           =    -52.680902962
Transforming the Hamiltonian                       ... done (   0.0 sec)
Diagonalizing the Hamiltonian                      ... done (   0.0 sec)
Back transforming the eigenvectors                 ... done (   0.0 sec)
Now organizing SCF variables                       ... done
                      ------------------
                      INITIAL GUESS DONE (   2.1 sec)
                      ------------------
             **** ENERGY FILE WAS UPDATED (./output/octyl_acetate/octyl_acetate.en.tmp) ****
Finished Guess after   2.7 sec
Maximum memory used throughout the entire GUESS-calculation: 25.1 MB


           ************************************************************
           *        Program running with 40 parallel MPI-processes    *
           *              working on a common directory               *
           ************************************************************

-------------------------------------------------------------------------------------------
                                      ORCA LEAN-SCF
                              memory conserving SCF solver
-------------------------------------------------------------------------------------------

----------------------------------------D-I-I-S--------------------------------------------
Iteration    Energy (Eh)           Delta-E    RMSDP     MaxDP     DIISErr   Damp  Time(sec)
-------------------------------------------------------------------------------------------
               ***  Starting incremental Fock matrix formation  ***
    1    -100.6174740727065569     0.00e+00  3.13e-03  8.92e-02  2.04e-01  0.700   5.0
    2    -100.8365671989333237    -2.19e-01  2.24e-03  5.72e-02  1.10e-01  0.700   4.0
                               ***Turning on AO-DIIS***
    3    -100.9468072872063544    -1.10e-01  1.11e-03  2.42e-02  5.71e-02  0.700   3.8
    4    -101.0117227596875864    -6.49e-02  2.29e-03  4.54e-02  3.55e-02  0.000   4.0
    5    -101.1492274243472025    -1.38e-01  2.35e-04  1.06e-02  6.64e-03  0.000   3.9
    6    -101.1496133225455196    -3.86e-04  1.12e-04  7.26e-03  6.65e-03  0.000   3.8
                              *** Initializing SOSCF ***
---------------------------------------S-O-S-C-F--------------------------------------
Iteration    Energy (Eh)           Delta-E    RMSDP     MaxDP     MaxGrad    Time(sec)
--------------------------------------------------------------------------------------
    7    -101.1497233385083518    -1.10e-04  5.59e-05  2.32e-03  1.60e-03     4.3
               *** Restarting incremental Fock matrix formation ***
    8    -101.1496941872036928     2.92e-05  2.94e-05  1.20e-03  2.73e-04     4.8
    9    -101.1496980628498363    -3.88e-06  2.48e-05  1.06e-03  3.13e-04     4.7
   10    -101.1496992168638371    -1.15e-06  8.65e-06  3.19e-04  1.19e-04     4.5
   11    -101.1496995073296148    -2.90e-07  3.02e-06  8.38e-05  2.60e-05     4.1
   12    -101.1496995287392906    -2.14e-08  1.30e-06  6.48e-05  1.68e-05     4.3
   13    -101.1496995415340621    -1.28e-08  3.70e-07  1.49e-05  2.88e-06     4.1
   14    -101.1496995457909520    -4.26e-09  1.68e-07  3.91e-06  1.20e-06     3.7
                 **** Energy Check signals convergence ****

               *****************************************************
               *                     SUCCESS                       *
               *           SCF CONVERGED AFTER  14 CYCLES          *
               *****************************************************

Recomputing exchange energy using gridx3       ... done (    4.707 sec)
Old exchange energy                            :    -13.973142725 Eh
New exchange energy                            :    -13.973130560 Eh
Exchange energy change after final integration :      0.000012165 Eh
Total energy after final integration           :   -101.149687381 Eh
             **** ENERGY FILE WAS UPDATED (./output/octyl_acetate/octyl_acetate.en.tmp) ****

----------------
TOTAL SCF ENERGY
----------------

Total Energy       :       -101.14968738066318 Eh           -2752.42292 eV

Components:
Nuclear Repulsion  :        384.39496730727001 Eh           10459.91883 eV
Electronic Energy  :       -485.54466685306096 Eh          -13212.34209 eV
One Electron Energy:       -915.96596199205544 Eh          -24924.70097 eV
Two Electron Energy:        430.42129513899448 Eh           11712.35889 eV

Virial components:
Potential Energy   :       -180.21254143771199 Eh           -4903.83256 eV
Kinetic Energy     :         79.06285405704881 Eh            2151.40963 eV
Virial Ratio       :          2.27935790564400

DFT components:
N(Alpha)           :       36.000150127637 electrons
N(Beta)            :       36.000150127637 electrons
N(Total)           :       72.000300255273 electrons
E(X)               :      -15.189948280303 Eh       
E(C)               :       -2.704376196624 Eh       
E(XC)              :      -17.894324476928 Eh       

---------------
SCF CONVERGENCE
---------------

  Last Energy change         ...    4.2569e-09  Tolerance :   1.0000e-08
  Last MAX-Density change    ...    3.9080e-06  Tolerance :   1.0000e-07
  Last RMS-Density change    ...    1.6767e-07  Tolerance :   5.0000e-09
  Last DIIS Error            ...    1.6026e-03  Tolerance :   5.0000e-07
  Last Orbital Gradient      ...    1.2023e-06  Tolerance :   1.0000e-05
  Last Orbital Rotation      ...    2.3743e-06  Tolerance :   1.0000e-05


----------------
ORBITAL ENERGIES
----------------

  NO   OCC          E(Eh)            E(eV) 
   0   2.0000      -1.210550       -32.9407 
   1   2.0000      -1.118715       -30.4418 
   2   2.0000      -0.957964       -26.0675 
   3   2.0000      -0.933068       -25.3901 
   4   2.0000      -0.903744       -24.5921 
   5   2.0000      -0.879648       -23.9364 
   6   2.0000      -0.831976       -22.6392 
   7   2.0000      -0.792878       -21.5753 
   8   2.0000      -0.739977       -20.1358 
   9   2.0000      -0.706158       -19.2155 
  10   2.0000      -0.689013       -18.7490 
  11   2.0000      -0.687329       -18.7032 
  12   2.0000      -0.614399       -16.7186 
  13   2.0000      -0.610659       -16.6169 
  14   2.0000      -0.589675       -16.0459 
  15   2.0000      -0.579176       -15.7602 
  16   2.0000      -0.571070       -15.5396 
  17   2.0000      -0.564332       -15.3562 
  18   2.0000      -0.559938       -15.2367 
  19   2.0000      -0.531291       -14.4572 
  20   2.0000      -0.525282       -14.2936 
  21   2.0000      -0.521033       -14.1780 
  22   2.0000      -0.510874       -13.9016 
  23   2.0000      -0.498495       -13.5647 
  24   2.0000      -0.488138       -13.2829 
  25   2.0000      -0.471456       -12.8290 
  26   2.0000      -0.467374       -12.7179 
  27   2.0000      -0.453268       -12.3340 
  28   2.0000      -0.448001       -12.1907 
  29   2.0000      -0.438771       -11.9396 
  30   2.0000      -0.437573       -11.9070 
  31   2.0000      -0.432880       -11.7793 
  32   2.0000      -0.412976       -11.2376 
  33   2.0000      -0.409010       -11.1297 
  34   2.0000      -0.400271       -10.8919 
  35   2.0000      -0.381074       -10.3696 
  36   0.0000       0.071585         1.9479 
  37   0.0000       0.086101         2.3429 
  38   0.0000       0.090465         2.4617 
  39   0.0000       0.091574         2.4919 
  40   0.0000       0.094568         2.5733 
  41   0.0000       0.100503         2.7348 
  42   0.0000       0.118667         3.2291 
  43   0.0000       0.119095         3.2407 
  44   0.0000       0.125210         3.4071 
  45   0.0000       0.140771         3.8306 
  46   0.0000       0.144141         3.9223 
*Only the first 10 virtual orbitals were printed.

                    ********************************
                    * MULLIKEN POPULATION ANALYSIS *
                    ********************************

-----------------------
MULLIKEN ATOMIC CHARGES
-----------------------
   0 C :   -0.093455
   1 C :   -0.081672
   2 C :   -0.070831
   3 C :   -0.067881
   4 C :   -0.072255
   5 C :   -0.072748
   6 C :   -0.053061
   7 C :    0.101449
   8 O :   -0.307371
   9 C :    0.270033
  10 O :   -0.363258
  11 C :   -0.086713
  12 H :    0.034885
  13 H :    0.039481
  14 H :    0.032196
  15 H :    0.035569
  16 H :    0.037152
  17 H :    0.032393
  18 H :    0.034931
  19 H :    0.039107
  20 H :    0.034301
  21 H :    0.038870
  22 H :    0.035397
  23 H :    0.035791
  24 H :    0.043190
  25 H :    0.048801
  26 H :    0.045299
  27 H :    0.058920
  28 H :    0.054010
  29 H :    0.061513
  30 H :    0.077271
  31 H :    0.078686
Sum of atomic charges:   -0.0000000

--------------------------------
MULLIKEN REDUCED ORBITAL CHARGES
--------------------------------
  0 C s       :     0.973630  s :     0.973630
      pz      :     0.982248  p :     3.045498
      px      :     1.025191
      py      :     1.038059
      dz2     :     0.012675  d :     0.074328
      dxz     :     0.012699
      dyz     :     0.024549
      dx2y2   :     0.018635
      dxy     :     0.005770

  1 C s       :     1.014375  s :     1.014375
      pz      :     0.977877  p :     2.966420
      px      :     0.941692
      py      :     1.046851
      dz2     :     0.014253  d :     0.100877
      dxz     :     0.023868
      dyz     :     0.024826
      dx2y2   :     0.021819
      dxy     :     0.016111

  2 C s       :     1.013126  s :     1.013126
      pz      :     1.035404  p :     2.958378
      px      :     0.937160
      py      :     0.985813
      dz2     :     0.016393  d :     0.099327
      dxz     :     0.019701
      dyz     :     0.020554
      dx2y2   :     0.024054
      dxy     :     0.018624

  3 C s       :     1.011562  s :     1.011562
      pz      :     1.037906  p :     2.957422
      px      :     0.932177
      py      :     0.987340
      dz2     :     0.016673  d :     0.098896
      dxz     :     0.019601
      dyz     :     0.019686
      dx2y2   :     0.024475
      dxy     :     0.018461

  4 C s       :     1.010945  s :     1.010945
      pz      :     0.973578  p :     2.962135
      px      :     0.942703
      py      :     1.045854
      dz2     :     0.014792  d :     0.099174
      dxz     :     0.024268
      dyz     :     0.022556
      dx2y2   :     0.022500
      dxy     :     0.015059

  5 C s       :     1.012987  s :     1.012987
      pz      :     0.985408  p :     2.960754
      px      :     0.927862
      py      :     1.047484
      dz2     :     0.015467  d :     0.099007
      dxz     :     0.023787
      dyz     :     0.022284
      dx2y2   :     0.023135
      dxy     :     0.014334

  6 C s       :     1.008892  s :     1.008892
      pz      :     1.032520  p :     2.948948
      px      :     0.931023
      py      :     0.985406
      dz2     :     0.017572  d :     0.095221
      dxz     :     0.021152
      dyz     :     0.016667
      dx2y2   :     0.021464
      dxy     :     0.018365

  7 C s       :     1.039684  s :     1.039684
      pz      :     1.046358  p :     2.720867
      px      :     0.680929
      py      :     0.993580
      dz2     :     0.025150  d :     0.138001
      dxz     :     0.030618
      dyz     :     0.017322
      dx2y2   :     0.036972
      dxy     :     0.027939

  8 O s       :     1.699225  s :     1.699225
      pz      :     1.699305  p :     4.571558
      px      :     1.204887
      py      :     1.667365
      dz2     :     0.005143  d :     0.036588
      dxz     :     0.007914
      dyz     :     0.004428
      dx2y2   :     0.006498
      dxy     :     0.012605

  9 C s       :     1.150516  s :     1.150516
      pz      :     0.715519  p :     2.333848
      px      :     0.846785
      py      :     0.771544
      dz2     :     0.038618  d :     0.245603
      dxz     :     0.040418
      dyz     :     0.035104
      dx2y2   :     0.054652
      dxy     :     0.076810

 10 O s       :     1.795542  s :     1.795542
      pz      :     1.422722  p :     4.534148
      px      :     1.799584
      py      :     1.311843
      dz2     :     0.006439  d :     0.033568
      dxz     :     0.002159
      dyz     :     0.010227
      dx2y2   :     0.008992
      dxy     :     0.005751

 11 C s       :     0.962094  s :     0.962094
      pz      :     1.080905  p :     3.061424
      px      :     0.924252
      py      :     1.056267
      dz2     :     0.012788  d :     0.063195
      dxz     :     0.014162
      dyz     :     0.007544
      dx2y2   :     0.019122
      dxy     :     0.009579

 12 H s       :     0.922039  s :     0.922039
      pz      :     0.013636  p :     0.043076
      px      :     0.009751
      py      :     0.019689

 13 H s       :     0.917053  s :     0.917053
      pz      :     0.010841  p :     0.043466
      px      :     0.022154
      py      :     0.010471

 14 H s       :     0.923737  s :     0.923737
      pz      :     0.014769  p :     0.044067
      px      :     0.012083
      py      :     0.017215

 15 H s       :     0.922491  s :     0.922491
      pz      :     0.012219  p :     0.041939
      px      :     0.009502
      py      :     0.020219

 16 H s       :     0.920840  s :     0.920840
      pz      :     0.014236  p :     0.042008
      px      :     0.012811
      py      :     0.014960

 17 H s       :     0.926091  s :     0.926091
      pz      :     0.013581  p :     0.041515
      px      :     0.009110
      py      :     0.018825

 18 H s       :     0.922354  s :     0.922354
      pz      :     0.020167  p :     0.042716
      px      :     0.012546
      py      :     0.010003

 19 H s       :     0.918288  s :     0.918288
      pz      :     0.020267  p :     0.042605
      px      :     0.012462
      py      :     0.009876

 20 H s       :     0.923973  s :     0.923973
      pz      :     0.013571  p :     0.041726
      px      :     0.009144
      py      :     0.019011

 21 H s       :     0.918550  s :     0.918550
      pz      :     0.015269  p :     0.042580
      px      :     0.012702
      py      :     0.014609

 22 H s       :     0.923048  s :     0.923048
      pz      :     0.011326  p :     0.041554
      px      :     0.009023
      py      :     0.021205

 23 H s       :     0.922481  s :     0.922481
      pz      :     0.011259  p :     0.041728
      px      :     0.009179
      py      :     0.021290

 24 H s       :     0.913908  s :     0.913908
      pz      :     0.015623  p :     0.042903
      px      :     0.012916
      py      :     0.014364

 25 H s       :     0.909368  s :     0.909368
      pz      :     0.020292  p :     0.041831
      px      :     0.012178
      py      :     0.009361

 26 H s       :     0.912939  s :     0.912939
      pz      :     0.012422  p :     0.041762
      px      :     0.009281
      py      :     0.020060

 27 H s       :     0.901060  s :     0.901060
      pz      :     0.022833  p :     0.040021
      px      :     0.007931
      py      :     0.009256

 28 H s       :     0.906616  s :     0.906616
      pz      :     0.012231  p :     0.039374
      px      :     0.005464
      py      :     0.021679

 29 H s       :     0.894265  s :     0.894265
      pz      :     0.010283  p :     0.044222
      px      :     0.009666
      py      :     0.024273

 30 H s       :     0.876986  s :     0.876986
      pz      :     0.018430  p :     0.045743
      px      :     0.014046
      py      :     0.013267

 31 H s       :     0.877256  s :     0.877256
      pz      :     0.021068  p :     0.044058
      px      :     0.012567
      py      :     0.010422



                     *******************************
                     * LOEWDIN POPULATION ANALYSIS *
                     *******************************

----------------------
LOEWDIN ATOMIC CHARGES
----------------------
   0 C :   -0.125240
   1 C :   -0.098704
   2 C :   -0.089895
   3 C :   -0.086013
   4 C :   -0.087365
   5 C :   -0.084605
   6 C :   -0.082201
   7 C :   -0.029310
   8 O :   -0.053207
   9 C :    0.022707
  10 O :   -0.203063
  11 C :   -0.093318
  12 H :    0.045141
  13 H :    0.047372
  14 H :    0.041801
  15 H :    0.046198
  16 H :    0.046912
  17 H :    0.045161
  18 H :    0.042471
  19 H :    0.045078
  20 H :    0.046265
  21 H :    0.044579
  22 H :    0.046729
  23 H :    0.046759
  24 H :    0.047788
  25 H :    0.052088
  26 H :    0.050171
  27 H :    0.050679
  28 H :    0.053197
  29 H :    0.062985
  30 H :    0.072715
  31 H :    0.076128

-------------------------------
LOEWDIN REDUCED ORBITAL CHARGES
-------------------------------
  0 C s       :     0.781545  s :     0.781545
      pz      :     0.999000  p :     3.099757
      px      :     1.037683
      py      :     1.063074
      dz2     :     0.041337  d :     0.243938
      dxz     :     0.039469
      dyz     :     0.082903
      dx2y2   :     0.061560
      dxy     :     0.018669

  1 C s       :     0.768583  s :     0.768583
      pz      :     0.993194  p :     3.007969
      px      :     0.963490
      py      :     1.051285
      dz2     :     0.044525  d :     0.322152
      dxz     :     0.075317
      dyz     :     0.082350
      dx2y2   :     0.068752
      dxy     :     0.051207

  2 C s       :     0.767900  s :     0.767900
      pz      :     1.041136  p :     3.003912
      px      :     0.958496
      py      :     1.004280
      dz2     :     0.052196  d :     0.318082
      dxz     :     0.063271
      dyz     :     0.066517
      dx2y2   :     0.077452
      dxy     :     0.058646

  3 C s       :     0.766699  s :     0.766699
      pz      :     1.042523  p :     3.002542
      px      :     0.954179
      py      :     1.005839
      dz2     :     0.053221  d :     0.316772
      dxz     :     0.063131
      dyz     :     0.063662
      dx2y2   :     0.078536
      dxy     :     0.058223

  4 C s       :     0.766865  s :     0.766865
      pz      :     0.992460  p :     3.003154
      px      :     0.960469
      py      :     1.050225
      dz2     :     0.046519  d :     0.317346
      dxz     :     0.077127
      dyz     :     0.074817
      dx2y2   :     0.071158
      dxy     :     0.047725

  5 C s       :     0.766421  s :     0.766421
      pz      :     0.998739  p :     3.002110
      px      :     0.952335
      py      :     1.051037
      dz2     :     0.048157  d :     0.316073
      dxz     :     0.076097
      dyz     :     0.073393
      dx2y2   :     0.072343
      dxy     :     0.046084

  6 C s       :     0.769776  s :     0.769776
      pz      :     1.035127  p :     3.002841
      px      :     0.960412
      py      :     1.007302
      dz2     :     0.057657  d :     0.309584
      dxz     :     0.067313
      dyz     :     0.053704
      dx2y2   :     0.073646
      dxy     :     0.057263

  7 C s       :     0.768824  s :     0.768824
      pz      :     1.069616  p :     2.845403
      px      :     0.754199
      py      :     1.021588
      dz2     :     0.080209  d :     0.415083
      dxz     :     0.087191
      dyz     :     0.052461
      dx2y2   :     0.109187
      dxy     :     0.086036

  8 O s       :     1.398472  s :     1.398472
      pz      :     1.634038  p :     4.555247
      px      :     1.288346
      py      :     1.632863
      dz2     :     0.010778  d :     0.099488
      dxz     :     0.025601
      dyz     :     0.008602
      dx2y2   :     0.023189
      dxy     :     0.031318

  9 C s       :     0.786950  s :     0.786950
      pz      :     0.742235  p :     2.521069
      px      :     0.907971
      py      :     0.870863
      dz2     :     0.095032  d :     0.669274
      dxz     :     0.110866
      dyz     :     0.114110
      dx2y2   :     0.149282
      dxy     :     0.199984

 10 O s       :     1.563012  s :     1.563012
      pz      :     1.420871  p :     4.572588
      px      :     1.716964
      py      :     1.434753
      dz2     :     0.009531  d :     0.067464
      dxz     :     0.004402
      dyz     :     0.021236
      dx2y2   :     0.018155
      dxy     :     0.014140

 11 C s       :     0.783912  s :     0.783912
      pz      :     1.073820  p :     3.097673
      px      :     0.964857
      py      :     1.058995
      dz2     :     0.041096  d :     0.211733
      dxz     :     0.052030
      dyz     :     0.021799
      dx2y2   :     0.063132
      dxy     :     0.033676

 12 H s       :     0.809757  s :     0.809757
      pz      :     0.046484  p :     0.145102
      px      :     0.039244
      py      :     0.059374

 13 H s       :     0.806480  s :     0.806480
      pz      :     0.040758  p :     0.146148
      px      :     0.064205
      py      :     0.041185

 14 H s       :     0.809813  s :     0.809813
      pz      :     0.049305  p :     0.148386
      px      :     0.045074
      py      :     0.054007

 15 H s       :     0.808451  s :     0.808451
      pz      :     0.045772  p :     0.145351
      px      :     0.037536
      py      :     0.062043

 16 H s       :     0.806685  s :     0.806685
      pz      :     0.050395  p :     0.146403
      px      :     0.044828
      py      :     0.051181

 17 H s       :     0.809905  s :     0.809905
      pz      :     0.047917  p :     0.144934
      px      :     0.036790
      py      :     0.060228

 18 H s       :     0.807747  s :     0.807747
      pz      :     0.062176  p :     0.149781
      px      :     0.045874
      py      :     0.041732

 19 H s       :     0.805842  s :     0.805842
      pz      :     0.062461  p :     0.149080
      px      :     0.045184
      py      :     0.041435

 20 H s       :     0.808625  s :     0.808625
      pz      :     0.047639  p :     0.145110
      px      :     0.036771
      py      :     0.060699

 21 H s       :     0.806060  s :     0.806060
      pz      :     0.053030  p :     0.149361
      px      :     0.046284
      py      :     0.050047

 22 H s       :     0.808173  s :     0.808173
      pz      :     0.043762  p :     0.145098
      px      :     0.036984
      py      :     0.064351

 23 H s       :     0.807665  s :     0.807665
      pz      :     0.043860  p :     0.145576
      px      :     0.036992
      py      :     0.064724

 24 H s       :     0.803333  s :     0.803333
      pz      :     0.053567  p :     0.148879
      px      :     0.045770
      py      :     0.049542

 25 H s       :     0.802256  s :     0.802256
      pz      :     0.062768  p :     0.145656
      px      :     0.043216
      py      :     0.039672

 26 H s       :     0.805260  s :     0.805260
      pz      :     0.045118  p :     0.144570
      px      :     0.036752
      py      :     0.062699

 27 H s       :     0.809624  s :     0.809624
      pz      :     0.069715  p :     0.139697
      px      :     0.031729
      py      :     0.038252

 28 H s       :     0.809767  s :     0.809767
      pz      :     0.044225  p :     0.137037
      px      :     0.025072
      py      :     0.067739

 29 H s       :     0.792425  s :     0.792425
      pz      :     0.041376  p :     0.144590
      px      :     0.035928
      py      :     0.067287

 30 H s       :     0.781458  s :     0.781458
      pz      :     0.055757  p :     0.145827
      px      :     0.044769
      py      :     0.045301

 31 H s       :     0.783019  s :     0.783019
      pz      :     0.060170  p :     0.140853
      px      :     0.040772
      py      :     0.039911



                      *****************************
                      * MAYER POPULATION ANALYSIS *
                      *****************************

  NA   - Mulliken gross atomic population
  ZA   - Total nuclear charge
  QA   - Mulliken gross atomic charge
  VA   - Mayer's total valence
  BVA  - Mayer's bonded valence
  FA   - Mayer's free valence

  ATOM       NA         ZA         QA         VA         BVA        FA
  0 C      4.0935     4.0000    -0.0935     3.9720     3.9720    -0.0000
  1 C      4.0817     4.0000    -0.0817     4.0033     4.0033     0.0000
  2 C      4.0708     4.0000    -0.0708     3.9588     3.9588    -0.0000
  3 C      4.0679     4.0000    -0.0679     3.9690     3.9690    -0.0000
  4 C      4.0723     4.0000    -0.0723     3.9641     3.9641    -0.0000
  5 C      4.0727     4.0000    -0.0727     3.9599     3.9599    -0.0000
  6 C      4.0531     4.0000    -0.0531     3.9613     3.9613     0.0000
  7 C      3.8986     4.0000     0.1014     3.9103     3.9103    -0.0000
[...]
 48:   1276.49   0.000661    3.34  0.000162  ( 0.008942  0.000500  0.009028)
 49:   1288.88   0.001231    6.22  0.000298  ( 0.014336  0.008732  0.004043)
 50:   1321.48   0.000178    0.90  0.000042  (-0.005257 -0.003786  0.000240)
 51:   1334.30   0.092222  466.05  0.021569  (-0.130091 -0.041636 -0.053959)
 52:   1338.82   0.000040    0.20  0.000009  ( 0.001668 -0.001701 -0.001880)
 53:   1348.34   0.000317    1.60  0.000073  ( 0.008491  0.000882  0.000752)
 54:   1363.69   0.001196    6.05  0.000274  ( 0.014126  0.001791  0.008426)
 55:   1373.95   0.000526    2.66  0.000120  ( 0.010049  0.000783  0.004233)
 56:   1386.91   0.000021    0.10  0.000005  (-0.000729 -0.001543 -0.001317)
 57:   1394.67   0.000259    1.31  0.000058  (-0.007519  0.000625 -0.000996)
 58:   1415.43   0.000093    0.47  0.000021  ( 0.004172  0.000888  0.001518)
 59:   1440.96   0.028845  145.77  0.006247  ( 0.075926  0.005600  0.021228)
 60:   1450.54   0.001673    8.45  0.000360  (-0.011449 -0.001125  0.015084)
 61:   1455.93   0.000189    0.96  0.000041  (-0.005751  0.002711  0.000321)
 62:   1459.51   0.000771    3.89  0.000165  (-0.010946 -0.000974  0.006633)
 63:   1482.24   0.004848   24.50  0.001021  ( 0.029851  0.006187  0.009554)
 64:   1503.06   0.003759   18.99  0.000780  (-0.013520  0.021579  0.011483)
 65:   1509.34   0.002482   12.54  0.000513  (-0.005264 -0.012502  0.018144)
 66:   1512.54   0.000118    0.59  0.000024  (-0.001637 -0.004640 -0.000232)
 67:   1515.87   0.000130    0.66  0.000027  ( 0.002309 -0.004124  0.002087)
 68:   1519.36   0.000478    2.41  0.000098  ( 0.003379 -0.006494  0.006674)
 69:   1525.50   0.001690    8.54  0.000346  (-0.014958  0.007961 -0.007660)
 70:   1527.41   0.000354    1.79  0.000072  (-0.005637  0.001479  0.006198)
 71:   1531.05   0.003062   15.48  0.000624  ( 0.003964  0.018963  0.015775)
 72:   1533.35   0.000597    3.02  0.000121  ( 0.002473 -0.008934  0.005962)
 73:   1537.19   0.002548   12.88  0.000517  (-0.015096  0.015819 -0.006263)
 74:   1548.86   0.001514    7.65  0.000305  ( 0.002934 -0.014923 -0.008582)
 75:   1874.48   0.062202  314.34  0.010355  (-0.000286  0.084943  0.056036)
 76:   3079.30   0.000353    1.79  0.000036  (-0.001582  0.005348  0.002172)
 77:   3083.01   0.002188   11.06  0.000222  ( 0.007574 -0.002874  0.012485)
 78:   3085.89   0.009125   46.12  0.000923  ( 0.012893 -0.026961 -0.005448)
 79:   3090.26   0.013291   67.17  0.001342  ( 0.016656 -0.016492  0.028156)
 80:   3090.78   0.002133   10.78  0.000215  (-0.005168 -0.000352 -0.013730)
 81:   3100.90   0.004998   25.26  0.000503  ( 0.017465 -0.000770 -0.014049)
 82:   3106.13   0.003204   16.19  0.000322  (-0.009400  0.013697  0.006778)
 83:   3127.38   0.002796   14.13  0.000279  (-0.014205  0.008750  0.000826)
 84:   3133.26   0.000285    1.44  0.000028  (-0.000336  0.003781  0.003739)
 85:   3136.95   0.000458    2.32  0.000046  ( 0.006060 -0.002895 -0.000689)
 86:   3139.10   0.004805   24.28  0.000478  ( 0.004599  0.019904  0.007766)
 87:   3139.77   0.000233    1.18  0.000023  (-0.003347 -0.002318 -0.002565)
 88:   3153.32   0.011202   56.61  0.001109  ( 0.014288  0.022243 -0.020241)
 89:   3158.82   0.006115   30.90  0.000604  (-0.003939 -0.001806  0.024193)
 90:   3162.90   0.007108   35.92  0.000701  (-0.006475 -0.023192 -0.011023)
 91:   3185.70   0.005026   25.40  0.000492  (-0.012458  0.017443 -0.005733)
 92:   3196.57   0.005066   25.60  0.000495  ( 0.013505  0.014884  0.009520)
 93:   3198.42   0.003883   19.62  0.000379  (-0.005497 -0.007633  0.017039)
 94:   3231.13   0.000077    0.39  0.000007  ( 0.000796  0.001360 -0.002226)
 95:   3265.48   0.000248    1.25  0.000024  (-0.004657 -0.000494 -0.001313)

* The epsilon (eps) is given for a Dirac delta lineshape.
** The dipole moment derivative (T) already includes vibrational overlap.

The first frequency considered to be a vibration is 6
The total number of vibrations considered is 90


--------------------------
THERMOCHEMISTRY AT 298.15K
--------------------------

Temperature         ...   298.15 K
Pressure            ...     1.00 atm
Total Mass          ...   172.27 AMU
Quasi RRHO          ...     True
Cut-Off Frequency   ...     1.00 cm^-1

Throughout the following assumptions are being made:
  (1) The electronic state is orbitally nondegenerate
  (2) There are no thermally accessible electronically excited states
  (3) Hindered rotations indicated by low frequency modes are not
      treated as such but are treated as vibrations and this may
      cause some error
  (4) All equations used are the standard statistical mechanics
      equations for an ideal gas
  (5) All vibrations are strictly harmonic

freq.      16.11  E(vib)   ...       0.57 
freq.      25.92  E(vib)   ...       0.56 
freq.      39.07  E(vib)   ...       0.54 
freq.      44.19  E(vib)   ...       0.53 
freq.      57.94  E(vib)   ...       0.51 
freq.      77.61  E(vib)   ...       0.49 
freq.     109.30  E(vib)   ...       0.45 
freq.     126.85  E(vib)   ...       0.43 
freq.     161.87  E(vib)   ...       0.39 
freq.     184.74  E(vib)   ...       0.37 
freq.     218.49  E(vib)   ...       0.33 
freq.     236.69  E(vib)   ...       0.32 
freq.     266.64  E(vib)   ...       0.29 
freq.     289.59  E(vib)   ...       0.27 
freq.     346.61  E(vib)   ...       0.23 
freq.     356.17  E(vib)   ...       0.22 
freq.     426.30  E(vib)   ...       0.18 
freq.     496.46  E(vib)   ...       0.14 
freq.     571.77  E(vib)   ...       0.11 
freq.     625.71  E(vib)   ...       0.09 
freq.     665.15  E(vib)   ...       0.08 
freq.     744.26  E(vib)   ...       0.06 
freq.     757.75  E(vib)   ...       0.06 
freq.     796.69  E(vib)   ...       0.05 
freq.     819.55  E(vib)   ...       0.05 
freq.     895.68  E(vib)   ...       0.03 
freq.     916.27  E(vib)   ...       0.03 
freq.     945.56  E(vib)   ...       0.03 
freq.     954.59  E(vib)   ...       0.03 
freq.     992.79  E(vib)   ...       0.02 
freq.    1001.71  E(vib)   ...       0.02 
freq.    1028.59  E(vib)   ...       0.02 
freq.    1075.35  E(vib)   ...       0.02 
freq.    1080.57  E(vib)   ...       0.02 
freq.    1096.88  E(vib)   ...       0.02 
freq.    1113.50  E(vib)   ...       0.01 
freq.    1115.99  E(vib)   ...       0.01 
freq.    1133.86  E(vib)   ...       0.01 
freq.    1144.29  E(vib)   ...       0.01 
freq.    1170.37  E(vib)   ...       0.01 
freq.    1206.42  E(vib)   ...       0.01 
freq.    1240.96  E(vib)   ...       0.01 
freq.    1276.49  E(vib)   ...       0.01 
freq.    1288.88  E(vib)   ...       0.01 
freq.    1321.48  E(vib)   ...       0.01 
freq.    1334.30  E(vib)   ...       0.01 
freq.    1338.82  E(vib)   ...       0.01 
freq.    1348.34  E(vib)   ...       0.01 
freq.    1363.69  E(vib)   ...       0.01 
freq.    1373.95  E(vib)   ...       0.01 
freq.    1386.91  E(vib)   ...       0.00 
freq.    1394.67  E(vib)   ...       0.00 
freq.    1415.43  E(vib)   ...       0.00 
freq.    1440.96  E(vib)   ...       0.00 
freq.    1450.54  E(vib)   ...       0.00 
freq.    1455.93  E(vib)   ...       0.00 
freq.    1459.51  E(vib)   ...       0.00 
freq.    1482.24  E(vib)   ...       0.00 
freq.    1503.06  E(vib)   ...       0.00 
freq.    1509.34  E(vib)   ...       0.00 
freq.    1512.54  E(vib)   ...       0.00 
freq.    1515.87  E(vib)   ...       0.00 
freq.    1519.36  E(vib)   ...       0.00 
freq.    1525.50  E(vib)   ...       0.00 
freq.    1527.41  E(vib)   ...       0.00 
freq.    1531.05  E(vib)   ...       0.00 
freq.    1533.35  E(vib)   ...       0.00 
freq.    1537.19  E(vib)   ...       0.00 
freq.    1548.86  E(vib)   ...       0.00 
freq.    1874.48  E(vib)   ...       0.00 
freq.    3079.30  E(vib)   ...       0.00 
freq.    3083.01  E(vib)   ...       0.00 
freq.    3085.89  E(vib)   ...       0.00 
freq.    3090.26  E(vib)   ...       0.00 
freq.    3090.78  E(vib)   ...       0.00 
freq.    3100.90  E(vib)   ...       0.00 
freq.    3106.13  E(vib)   ...       0.00 
freq.    3127.38  E(vib)   ...       0.00 
freq.    3133.26  E(vib)   ...       0.00 
freq.    3136.95  E(vib)   ...       0.00 
freq.    3139.10  E(vib)   ...       0.00 
freq.    3139.77  E(vib)   ...       0.00 
freq.    3153.32  E(vib)   ...       0.00 
freq.    3158.82  E(vib)   ...       0.00 
freq.    3162.90  E(vib)   ...       0.00 
freq.    3185.70  E(vib)   ...       0.00 
freq.    3196.57  E(vib)   ...       0.00 
freq.    3198.42  E(vib)   ...       0.00 
freq.    3231.13  E(vib)   ...       0.00 
freq.    3265.48  E(vib)   ...       0.00 

------------
INNER ENERGY
------------

The inner energy is: U= E(el) + E(ZPE) + E(vib) + E(rot) + E(trans)
    E(el)   - is the total energy from the electronic structure calculation
              = E(kin-el) + E(nuc-el) + E(el-el) + E(nuc-nuc)
    E(ZPE)  - the the zero temperature vibrational energy from the frequency calculation
    E(vib)  - the the finite temperature correction to E(ZPE) due to population
              of excited vibrational states
    E(rot)  - is the rotational thermal energy
    E(trans)- is the translational thermal energy

Summary of contributions to the inner energy U:
Electronic energy                ...   -101.20257343 Eh
Zero point energy                ...      0.29664028 Eh     186.14 kcal/mol
Thermal vibrational correction   ...      0.01236431 Eh       7.76 kcal/mol
Thermal rotational correction    ...      0.00141627 Eh       0.89 kcal/mol
Thermal translational correction ...      0.00141627 Eh       0.89 kcal/mol
-----------------------------------------------------------------------
Total thermal energy                   -100.89073630 Eh


Summary of corrections to the electronic energy:
(perhaps to be used in another calculation)
Total thermal correction                  0.01519685 Eh       9.54 kcal/mol
Non-thermal (ZPE) correction              0.29664028 Eh     186.14 kcal/mol
-----------------------------------------------------------------------
Total correction                          0.31183713 Eh     195.68 kcal/mol


--------
ENTHALPY
--------

The enthalpy is H = U + kB*T
                kB is Boltzmann's constant
Total thermal energy              ...   -100.89073630 Eh 
Thermal Enthalpy correction       ...      0.00094421 Eh       0.59 kcal/mol
-----------------------------------------------------------------------
Total Enthalpy                    ...   -100.88979209 Eh


Note: Only C1 symmetry has been detected, increase convergence thresholds 
      if your molecule has a higher symmetry. Symmetry factor of 1.0 is   
      used for the rotational entropy correction. 
 

Note: Rotational entropy computed according to Herzberg 
Infrared and Raman Spectra, Chapter V,1, Van Nostrand Reinhold, 1945 
Point Group:  C1, Symmetry Number:   1  
Rotational constants in cm-1:     0.117844     0.007217     0.006978 

Vibrational entropy computed according to the QRRHO of S. Grimme
Chem.Eur.J. 2012 18 9955 using a reference frequency of 100.0 cm-1


-------
ENTROPY
-------

The entropy contributions are T*S = T*(S(el)+S(vib)+S(rot)+S(trans))
     S(el)   - electronic entropy
     S(vib)  - vibrational entropy
     S(rot)  - rotational entropy
     S(trans)- translational entropy
The entropies will be listed as multiplied by the temperature to get
units of energy

Electronic entropy                ...      0.00000000 Eh      0.00 kcal/mol
Vibrational entropy               ...      0.02314213 Eh     14.52 kcal/mol
Rotational entropy                ...      0.01519229 Eh      9.53 kcal/mol
Translational entropy             ...      0.01964153 Eh     12.33 kcal/mol
-----------------------------------------------------------------------
Final entropy term                ...      0.05797595 Eh     36.38 kcal/mol

In case the symmetry of your molecule has not been determined correctly
or in case you have a reason to use a different symmetry number we print 
out the resulting rotational entropy values for sn=1,12:

 non-linear molecules -----------------------------------
|  sn= 1 | S(rot)=       0.01519229 Eh      9.53 kcal/mol|
|  sn= 2 | S(rot)=       0.01453783 Eh      9.12 kcal/mol|
|  sn= 3 | S(rot)=       0.01415500 Eh      8.88 kcal/mol|
|  sn= 4 | S(rot)=       0.01388338 Eh      8.71 kcal/mol|
|  sn= 5 | S(rot)=       0.01367269 Eh      8.58 kcal/mol|
|  sn= 6 | S(rot)=       0.01350054 Eh      8.47 kcal/mol|
|  sn= 7 | S(rot)=       0.01335500 Eh      8.38 kcal/mol|
|  sn= 8 | S(rot)=       0.01322892 Eh      8.30 kcal/mol|
|  sn= 9 | S(rot)=       0.01311771 Eh      8.23 kcal/mol|
|  sn=10 | S(rot)=       0.01301823 Eh      8.17 kcal/mol|
|  sn=11 | S(rot)=       0.01292824 Eh      8.11 kcal/mol|
|  sn=12 | S(rot)=       0.01284609 Eh      8.06 kcal/mol|
 linear molecules ---------------------------------------
|  Dinfh | S(rot)=       0.01001363 Eh      6.28 kcal/mol|
|  Cinfv | S(rot)=       0.01066808 Eh      6.69 kcal/mol|
 --------------------------------------------------------


-------------------
GIBBS FREE ENERGY
-------------------

The Gibbs free energy is G = H - T*S

Total enthalpy                    ...   -100.88979209 Eh 
Total entropy correction          ...     -0.05797595 Eh    -36.38 kcal/mol
-----------------------------------------------------------------------
Final Gibbs free energy         ...   -100.94776804 Eh

For completeness - the Gibbs free energy minus the electronic energy
G-E(el)                           ...      0.25480539 Eh    159.89 kcal/mol


Maximum memory used throughout the entire PROP-calculation: 161.7 MB

--------------------------------
SUGGESTED CITATIONS FOR THIS RUN
--------------------------------

Below you find a list of papers that are relevant to this ORCA run
We neither can nor want to force you to cite these papers, but we appreciate if you do
You receive ORCA, which is the product of decades of hard work by many enthusiastic individuals, for free
The only thing we kindly ask in return is that you cite our papers,
We deeply appreciate it, if you show your appreciation for ORCA by not just citing the generic ORCA reference.

Please note that relegating all ORCA citations to the supporting information does *not* help us.
SI sections are not indexed - citations you put there will not count into any citation statistics
But we need these citations in order to attract the funding resources that allow us to do what we are doing

Therefore, if you are a happy ORCA user, please consider citing a few of the papers listed below in the main body of your paper

In addition to the list printed below, the program has created the file ./output/octyl_acetate/octyl_acetate.bibtex that contains the list in bibtex format
You can import this file easily into all common literature databanks and citation aid programs


List of essential papers. We consider these as the minimum necessary citations

  1. Neese,F.
     Software update: the ORCA program system, version 5.0
     WIRES Comput. Molec. Sci., 2022 12(1)e1606
     doi.org/10.1002/wcms.1606
  2. Mueller,M.; Hansen,A.; Grimme,S.
     wB97X-3c: A composite range-separated hybrid DFT method with a molecule-optimized polarized valence double-zeta basis set
     J. Chem. Phys., 2023 158 014103
     doi.org/10.1063/5.0133026

List of papers to cite with high priority. The work reported in these papers was absolutely
necessary for this run to complete.
Our perspective: the developers of density functionals and basis sets usually get cited in chemistry papers
Good! But without the algorithms to do something with them, the functionals or basis sets would not do anything.
Hence, in our opinion, the algorithm design and method developments papers are equally worthy of getting cited

  1. Neese,F.
     An improvement of the resolution of the identity approximation for the formation of the Coulomb matrix
     J. Comp. Chem., 2003 24(14)1740-1747
     doi.org/10.1002/jcc.10318
  2. Neese,F.; Wennmohs,F.; Hansen,A.; Becker,U.
     Efficient, approximate and parallel Hartree-Fock and hybrid DFT calculations. A 'chain-of-spheres' algorithm for the Hartree-Fock exchange
     Chem. Phys., 2009 356(1-3)98-109
     doi.org/10.1016/j.chemphys.2008.10.036
  3. Bykov,D.; Petrenko,T.; Izsak,R.; Kossmann,S.; Becker,U.; Valeev,E.; Neese,F.
     Efficient implementation of the analytic second derivatives of Hartree-Fock and hybrid DFT energies: a detailed analysis of different approximations
     Molec. Phys., 2015 113 1961-1977
     doi.org/10.1080/00268976.2015.1025114
  4. Helmich-Paris,B.; de Souza,B.; Neese,F.; Izsák,R.
     An improved chain of spheres for exchange algorithm
     J. Chem. Phys., 2021 155 104109
     doi.org/doi: 10.1063/5.0058766.
  5. Neese,F.
     The SHARK Integral Generation and Digestion System
     J. Comp. Chem., 2022  1-16
     doi.org/10.1002/jcc.26942
  6. Caldeweyher,E.; Bannwarth,C.; Grimme,S.
     Extension of the D3 dispersion coefficient model
     J. Chem. Phys., 2017 147 034112
     doi.org/10.1063/1.4993215
  7. Caldeweyher,E.; Ehlert,S.; Hansen,A.; Neugebauer,H.; Spicher,S.; Bannwarth,C.; Grimme,S.
     A generally applicable atomic-charge dependent London dispersion correction
     J. Chem. Phys., 2019 150 154122
     doi.org/10.1063/1.5090222
  8. Caldeweyher,E.; Mewes,J.; Ehlert,S.; Grimme,S.
     Extension and evaluation of the D4 London-dispersion model for periodic systems
     Phys. Chem. Chem. Phys., 2020 22(16)8499-8512
     doi.org/10.1039/D0CP00502A
  9. Wittmann,L.; Gordiy,I.; Friede,M.; Helmich-Paris,B.; Grimme,S.; Hansen,A.; Bursch,M.
     Extension of the D3 and D4 London Dispersion Corrections to the full Actinides Series
     Phys. Chem. Chem. Phys., 2024 26(32)21379-21394
     doi.org/https://doi.org/10.1039/D4CP01514B 

List of suggested additional citations. These are papers that are important in the 'surrounding' of 
of this run, or papers that preceded the highly important papers. If you like your results we are grateful for a citation.

  1. Izsak,R.; Neese,F.
     An overlap fitted chain of spheres exchange method
     J. Chem. Phys., 2011 135 144105
     doi.org/10.1063/1.3646921
  2. Izsak,R.; Hansen,A.; Neese,F.
     The resolution of identity and chain of spheres approximations for the LPNO-CCSD singles Fock term
     Molec. Phys., 2012 110 2413-2417
     doi.org/10.1080/00268976.2012.687466
  3. Neese,F.
     The ORCA program system
     WIRES Comput. Molec. Sci., 2012 2(1)73-78
     doi.org/10.1002/wcms.81
  4. Izsak,R.; Neese,F.; Klopper,W.
     Robust fitting techniques in the chain of spheres approximation to the Fock exchange: The role of the complementary space
     J. Chem. Phys., 2013 139 
     doi.org/10.1063/1.4819264
  5. Neese,F.
     Software update: the ORCA program system, version 4.0
     WIRES Comput. Molec. Sci., 2018 8(1)1-6
     doi.org/10.1002/wcms.1327
  6. Neese,F.; Wennmohs,F.; Becker,U.; Riplinger,C.
     The ORCA quantum chemistry program package
     J. Chem. Phys., 2020 152 Art. No. L224108
     doi.org/10.1063/5.0004608

List of optional additional citations

  1. Neese,F.
     Approximate second-order SCF convergence for spin unrestricted wavefunctions
     Chem. Phys. Lett., 2000 325(1-3)93-98
     doi.org/10.1016/s0009-2614(00)00662-x

Timings for individual modules:

Sum of individual times          ...     1363.641 sec (=  22.727 min)
Startup calculation              ...       80.997 sec (=   1.350 min)   5.9 %
SCF iterations                   ...      893.860 sec (=  14.898 min)  65.5 %
Property integrals               ...       74.400 sec (=   1.240 min)   5.5 %
SCF Response                     ...       44.182 sec (=   0.736 min)   3.2 %
Property calculations            ...       94.684 sec (=   1.578 min)   6.9 %
SCF Gradient evaluation          ...      175.198 sec (=   2.920 min)  12.8 %
Geometry relaxation              ...        0.319 sec (=   0.005 min)   0.0 %
                             ****ORCA TERMINATED NORMALLY****
TOTAL RUN TIME: 0 days 0 hours 22 minutes 53 seconds 16 msec
