
                                 *****************
                                 * O   R   C   A *
                                 *****************

                                            #,                                       
                                            ###                                      
                                            ####                                     
                                            #####                                    
                                            ######                                   
                                           ########,                                 
                                     ,,################,,,,,                         
                               ,,#################################,,                 
                          ,,##########################################,,             
                       ,#########################################, ''#####,          
                    ,#############################################,,   '####,        
                  ,##################################################,,,,####,       
                ,###########''''           ''''###############################       
              ,#####''   ,,,,##########,,,,          '''####'''          '####       
            ,##' ,,,,###########################,,,                        '##       
           ' ,,###''''                  '''############,,,                           
         ,,##''                                '''############,,,,        ,,,,,,###''
      ,#''                                            '''#######################'''  
     '                                                          ''''####''''         
             ,#######,   #######,   ,#######,      ##                                
            ,#'     '#,  ##    ##  ,#'     '#,    #''#        ,####,   ,####,        
            ##       ##  ##   ,#'  ##            #'  '#       #'       #'  '#        
            ##       ##  #######   ##           ,######,      #####,   #    #        
            '#,     ,#'  ##    ##  '#,     ,#' ,#      #,     #,   #   #,  ,#        
             '#######'   ##     ##  '#######'  #'      '#     '####' # '####'        



                #########################################################
                #                        -***-                          #
                #          Department of theory and spectroscopy        #
                #                                                       #
                #                      Frank Neese                      #
                #                                                       #
                #     Directorship, Architecture, Infrastructure        #
                #                    SHARK, DRIVERS                     #
                #        Core code/Algorithms in most modules           #
                #                                                       #
                #        Max Planck Institute fuer Kohlenforschung      #
                #                Kaiser Wilhelm Platz 1                 #
                #                 D-45470 Muelheim/Ruhr                 #
                #                      Germany                          #
                #                                                       #
                #                  All rights reserved                  #
                #                        -***-                          #
                #########################################################


                         Program Version 6.0.1  -  RELEASE   -


 With contributions from (in alphabetic order):
[Max-Planck-Institut fuer Kohlenforschung]                               
  Daniel Aravena         : Magnetic Suceptibility                        
  Michael Atanasov       : Ab Initio Ligand Field Theory (pilot matlab implementation)
  Alexander A. Auer      : GIAO ZORA, VPT2 properties, NMR spectrum      
  Ute Becker             : All parallelization in ORCA, NUMFREQ, NUMCALC 
  Giovanni Bistoni       : ED, misc. LED, open-shell LED, HFLD           
  Martin Brehm           : Molecular dynamics                            
  Dmytro Bykov           : pre 5.0 version of the SCF Hessian            
  Marcos Casanova-Páez   : Triplet and SCS-CIS(D). UHF-(DLPNO)-IP/EA/STEOM-CCSD. UHF-CVS-IP/STEOM-CCSD   
  Vijay G. Chilkuri      : MRCI spin determinant printing, contributions to CSF-ICE 
  Pauline Colinet        : FMM embedding                                 
  Dipayan Datta          : RHF DLPNO-CCSD density                        
  Achintya Kumar Dutta   : EOM-CC, STEOM-CC                              
  Nicolas Foglia         : Exact transition moments, OPA infrastructure, MCD improvements    
  Dmitry Ganyushin       : Spin-Orbit,Spin-Spin,Magnetic field MRCI      
  Miquel Garcia-Rates    : C-PCM and meta-GGA Hessian, CCSD/C-PCM, Gaussian charge scheme 
  Tiago L. C. Gouveia    : GS-ROHF, GS-ROCIS                             
  Yang Guo               : DLPNO-NEVPT2, F12-NEVPT2, CIM, IAO-localization        
  Andreas Hansen         : Spin unrestricted coupled pair/coupled cluster methods 
  Ingolf Harden          : AUTO-CI MPn and infrastructure                
  Benjamin Helmich-Paris : MC-RPA, TRAH-(SCF,CASSCF), AVAS, COSX integrals, SCF dyn. polar. 
  Lee Huntington         : MR-EOM, pCC                                   
  Robert Izsak           : Overlap fitted RIJCOSX, COSX-SCS-MP3, EOM     
  Riya Kayal             : Wick's Theorem for AUTO-CI, AUTO-CI UHF-CCSDT 
  Emily Kempfer          : AUTO-CI, RHF CISDT and CCSDT                  
  Christian Kollmar      : KDIIS, OOCD, Brueckner-CCSD(T), CCSD density, CASPT2, CASPT2-K, improved NEVPT2 
  Axel Koslowski         : Symmetry handling                             
  Simone Kossmann        : meta-GGA functionals, TD-DFT gradient, OOMP2, (MP2 Hessian; deprecated post 5.0) 
  Lucas Lang             : DCDCAS                                        
  Marvin Lechner         : AUTO-CI (C++ implementation), FIC-MRCC        
  Spencer Leger          : CASSCF response                               
  Dagmar Lenk            : GEPOL surface, SMD, ORCA-2-JSON               
  Dimitrios Liakos       : Extrapolation schemes; Compound Job, initial MDCI parallelization 
  Dimitrios Manganas     : Further ROCIS development; embedding schemes. LFT, Crystal Embedding 
  Dimitrios Pantazis     : SARC Basis sets                               
  Anastasios Papadopoulos: AUTO-CI, single reference methods and gradients 
  Taras Petrenko         : pre 6.0 DFT Hessian and TD-DFT gradient, (ASA, deprecated), ECA, 1-Electron XAS/XES, NRVS 
  Peter Pinski           : DLPNO-MP2, DLPNO-MP2 Gradient                 
  Christoph Reimann      : Effective Core Potentials                     
  Marius Retegan         : Local ZFS, SOC                                
  Christoph Riplinger    : Optimizer, TS searches, QM/MM, DLPNO-CCSD(T), (RO)-DLPNO pert. Triples 
  Michael Roemelt        : Original ROCIS implementation                 
  Masaaki Saitow         : Open-shell DLPNO-CCSD energy and density      
  Barbara Sandhoefer     : DKH picture change effects                    
  Kantharuban Sivalingam : CASSCF convergence/infrastructure, NEVPT2 and variants, FIC-MRCI 
  Bernardo de Souza      : ESD, SOC TD-DFT                               
  Georgi L. Stoychev     : AutoAux, RI-MP2 NMR, DLPNO-MP2 response, X2C  
  Van Anh Tran           : RI-MP2 g-tensors                              
  Willem Van den Heuvel  : Paramagnetic NMR                              
  Zikuan Wang            : NOTCH, Electric field optimization            
  Frank Wennmohs         : Technical directorship and infrastructure     
  Hang Xu                : AUTO-CI-Response properties                   
                                                                         
[FACCTs GmbH]                                                            
  Markus Bursch, Miquel Garcia-Rates, Christoph Riplinger, Bernardo de Souza, Georgi L. Stoychev 
                                                                 
  APM, Basis sets (HGBS, AHGBS, def-TZVP (Ac-Lr), def2-XVPD (La-Lu)), CI-OPT, improved COSX, DLPNO-Multilevel,           
  DOCKER, DRACO, updates on ESD, GOAT, IRC, LR-CPCM, MBIS, meta-GGA TD-DFT gradient, ML-optimized integration grids, 
  MM, NACMEs, nearIR, NEB, NEB-TS, NL-DFT gradient (VV10), 2- and 3-layer-ONIOM, interface openCOSMO-RS, QMMM,   
  Crystal-QMMM, SF, symmetry and pop. for TD-DFT, r2SCAN hybrids, SOLVATOR                                   
                                                                         
[Other institutions]                                                     
  V. Asgeirsson          : NEB                                           
  Christoph Bannwarth    : sTDA-DFT, sTD-DFT, PBEh-3c, B97-3c, D3        
  Sebastian Ehlert       : rSCAN, r2SCAN, r2SCAN-3c, D4, dhf basis sets  
  Marvin Friede          : D4 for Fr, Ra, Ac-Lr                          
  Lars Goerigk           : TD-DFT with DH, B97 family of functionals     
  Stefan Grimme          : VdW corrections, initial TS optimization, DFT functionals, gCP, sTDA/sTD-DF 
  Waldemar Hujo          : DFT-NL                                        
  H. Jonsson             : NEB                                           
  Holger Kruse           : gCP                                           
  Marcel Mueller         : wB97X-3c, vDZP basis set                      
  Hagen Neugebauer       : wr2SCAN                                       
  Tobias Risthaus        : range-separated hybrid DFT                    
  Lukas Wittmann         : regularized MP2, r2SCAN double-hybrids, wr2SCAN        
                                                                         
We gratefully acknowledge several colleagues who have allowed us to      
interface, adapt or use parts of their codes:                            
  Ed Valeev, F. Pavosevic, A. Kumar             : LibInt (2-el integral package), F12 methods 
  Garnet Chan, S. Sharma, J. Yang, R. Olivares  : DMRG                   
  Ulf Ekstrom                                   : XCFun DFT Library      
  Mihaly Kallay                                 : mrcc  (arbitrary order and MRCC methods)
  Frank Weinhold                                : gennbo (NPA and NBO analysis)           
  Simon Mueller                                 : openCOSMO-RS                            
  Christopher J. Cramer and Donald G. Truhlar   : smd solvation model                     
  S Lehtola, MJT Oliveira, MAL Marques          : LibXC Library                           
  Liviu Ungur et al                             : ANISO software                          


 Your calculation uses the libint2 library for the computation of 2-el integrals
 For citations please refer to: http://libint.valeyev.net

 Your ORCA version has been built with support for libXC version: 6.2.2
 For citations please refer to: https://libxc.gitlab.io

 This ORCA versions uses:
   CBLAS   interface :  Fast vector & matrix operations
   LAPACKE interface :  Fast linear algebra routines
   SCALAPACK package :  Parallel linear algebra routines
   Shared memory     :  Shared parallel matrices
   BLAS/LAPACK       :  OpenBLAS 0.3.27  USE64BITINT DYNAMIC_ARCH NO_AFFINITY SkylakeX SINGLE_THREADED
        Core in use  :  SkylakeX
   Copyright (c) 2011-2014, The OpenBLAS Project


Your calculation utilizes the atom-pairwise dispersion correction
based on EEQ partial charges (D4)


================================================================================

cite the ECPs for F  [vDZP-ECP], O  [vDZP-ECP], N  [vDZP-ECP], C  [vDZP-ECP] as follows:
   B-Ne (ecp-2-mwb), Al-Ar (ecp-10-mwb), Ga-Kr (ecp-28-mwb), Y-Cd (ecp-28-mwb), In-Xe (ecp-46-mwb):
     A. Bergner, M. Dolg, W. Küchle, H. Stoll, and H. Preuß, Mol. Phys. 80, 1431 (1993)., T. Leininger, A. Berning, A. Nicklass, H. Stoll, H.-J. Werner, and H.-J.Flad, Chem. Phys. 217, 19 (1997).
   Na-Mg, K-Ca, Rb-Sr, Cs-Ba (CRENBL):
     L. Fernandez Pacios and P. A. Christiansen, J. Chem. Phys. 82, 2664 (1985)., M. M. Hurley, L. F. Pacios, P. A. Christiansen, R. B. Ross, and W. C. Ermler, J. Chem. Phys. 84, 6840 (1986)., L. A. LaJohn, P. A. Christiansen, R. B. Ross, T. Atashroo, and W. C. Ermler, J. Chem. Phys. 87, 2812 (1987)., R. B. Ross, J. M. Powers, T. Atashroo, W. C. Ermler, L. A. LaJohn, and P. A. Christiansen, J. Chem. Phys. 93, 6654 (1990). 
   Sc-Zn (ecp-10-mdf):
     M. Dolg, U. Wedig, H. Stoll, and H. Preuss, J. Chem. Phys. 86, 866 (1986). 
   Y-Cd (ecp-28-mwb), Hf-Hg (ecp-60-mwb):
     D. Andrae, U. Häußermann, M. Dolg, H. Stoll, and H. Preuß, Theor. Chim. Acta 77, 123 (1990). 
   La (ecp-46-mwb):
     M. Dolg, H. Stoll, and H. Preuss, J. Chem. Phys. 90, 1730 (1989)., M. Dolg, H. Stoll, and H. Preuss, Theor. Chim. Acta 85, 441 (1993).
   Ce-Lu (SBKJC-ecp):
     T. R. Cundari and W. J. Stevens, J. Chem. Phys. 98, 5555 (1993).
   Tl-Rn (ecp-78-mwb):
     W. Küchle, M. Dolg, H. Stoll, and H. Preuss, Mol. Phys. 74, 1245 (1991).

ECP parameters for F  [vDZP-ECP], O  [vDZP-ECP], N  [vDZP-ECP], C  [vDZP-ECP] have been obtained from:
MM, AH, SG, J. Chem. Phys. 158, 014103 (2023), 10.1063/5.0133026

----- Orbital basis set information -----
Your calculation utilizes the basis: vDZP
   Marcel Mueller, Andreas Hansen, Stefan Grimme 
   J. Chem. Phys. 158, 014103 (2023). DOI: 10.1063/5.0133026

----- AuxJ basis set information -----
Your calculation utilizes the auxiliary basis: def2/J
   F. Weigend, Phys. Chem. Chem. Phys. 8, 1057 (2006).

================================================================================
                                        WARNINGS
                       Please study these warnings very carefully!
================================================================================

WARNING: Frozen-Core approximation turned on, but there are no core electrons.
  ===> : Turning off frozen-core approximation


WARNING: Geometry Optimization
  ===> : Switching off AutoStart
         For restart on a previous wavefunction, please use MOREAD

================================================================================
                                       INPUT FILE
================================================================================
NAME = ./output/ciprofloxacin/ciprofloxacin.inp
|  1> ! wB97X-3c OPT FREQ TightSCF
|  2> %pal
|  3>   nprocs 40
|  4> end
|  5> * xyz 0 1
|  6> F     -1.848000     2.529390    -1.445991
|  7> O      3.130093     2.834683    -1.495377
|  8> O      5.700279     2.600057    -1.100138
|  9> O      6.267147     0.703010     0.041533
| 10> N      2.311318    -0.571048     0.551608
| 11> N     -2.496795     0.254483     0.076443
| 12> N     -5.065997     0.040626    -0.735344
| 13> C      2.075233    -1.827001     1.289940
| 14> C      1.448796    -2.935207     0.448423
| 15> C      2.911808    -3.020681     0.830375
| 16> C      1.269045     0.204275     0.088838
| 17> C      3.603719    -0.143224     0.416949
| 18> C      1.542652     1.390043    -0.640087
| 19> C     -0.080599    -0.142291     0.332362
| 20> C     -1.132290     0.637452    -0.167956
| 21> C     -3.401633     1.154733     0.800814
| 22> C     -2.951938    -1.094598    -0.282506
| 23> C      3.924905     1.026198    -0.288767
| 24> C      2.877239     1.787877    -0.836671
| 25> C     -4.791216     1.204020     0.129114
| 26> C     -4.477115    -1.189204    -0.197985
| 27> C      0.477836     2.160137    -1.146423
| 28> C     -0.844588     1.783344    -0.918634
| 29> C      5.351468     1.426440    -0.436679
| 30> H      6.670698     2.873023    -1.200678
| 31> H     -6.103368    -0.089897    -0.788529
| 32> H      1.791953    -1.775440     2.362664
| 33> H      1.275561    -2.687900    -0.621070
| 34> H      0.788913    -3.623078     1.017827
| 35> H      3.590506    -2.862603    -0.034690
| 36> H      3.120303    -3.772766     1.620032
| 37> H      4.404714    -0.726437     0.857069
| 38> H     -0.332414    -1.002895     0.934177
| 39> H     -3.512335     0.776607     1.840355
| 40> H     -2.981071     2.181466     0.870993
| 41> H     -2.494283    -1.847791     0.393314
| 42> H     -2.638847    -1.316611    -1.326251
| 43> H     -5.572794     1.288520     0.917590
| 44> H     -4.853150     2.119570    -0.497162
| 45> H     -4.797365    -1.345287     0.857376
| 46> H     -4.823194    -2.061693    -0.793829
| 47> H      0.664807     3.059702    -1.720268
| 48> *
| 49> 
| 50>                          ****END OF INPUT****
================================================================================

                       *****************************
                       * Geometry Optimization Run *
                       *****************************

Geometry optimization settings:
Update method            Update   .... BFGS
Choice of coordinates    CoordSys .... (2022) Redundant Internals
Initial Hessian          InHess   .... Almloef's Model
Max. no of cycles        MaxIter  .... 126

Convergence Tolerances:
Energy Change            TolE     ....  5.0000e-06 Eh
Max. Gradient            TolMAXG  ....  3.0000e-04 Eh/bohr
RMS Gradient             TolRMSG  ....  1.0000e-04 Eh/bohr
Max. Displacement        TolMAXD  ....  4.0000e-03 bohr
RMS Displacement         TolRMSD  ....  2.0000e-03 bohr
Strict Convergence                .... False

------------------------------------------------------------------------------
                        ORCA OPTIMIZATION COORDINATE SETUP
------------------------------------------------------------------------------

The optimization will be done in redundant internal coordinates (2022)
Making redundant internal coordinates   ...  (2022 redundants) done
Evaluating the initial hessian          ...  (Almloef) done
Evaluating the coordinates              ...  done
Calculating the B-matrix                .... done
Calculating the G-matrix                .... done
Diagonalizing the G-matrix              .... done
Small eigenvalue found = 3.987e-03
Small eigenvalue found = 1.107e-02
Small eigenvalue found = 1.341e-02
Small eigenvalue found = 1.996e-02
Small eigenvalue found = 2.409e-02
The first mode is                       ....  116
The number of degrees of freedom        ....  120

    -----------------------------------------------------------------
                    Redundant Internal Coordinates


    -----------------------------------------------------------------
         Definition                    Initial Value    Approx d2E/dq
    -----------------------------------------------------------------
      1. B(C   7,N   4)                  1.4759         0.408153   
      2. B(C   8,C   7)                  1.5260         0.379096   
      3. B(C   9,C   7)                  1.5284         0.375812   
      4. B(C   9,C   8)                  1.5145         0.395518   
      5. B(C  10,N   4)                  1.3790         0.582694   
      6. B(C  11,N   4)                  1.3680         0.606667   
      7. B(C  12,C  10)                  1.4185         0.562619   
      8. B(C  13,C  10)                  1.4145         0.570914   
      9. B(C  14,C  13)                  1.4016         0.598818   
     10. B(C  14,N   5)                  1.4381         0.468876   
     11. B(C  15,N   5)                  1.4676         0.420770   
     12. B(C  16,N   5)                  1.4683         0.419653   
     13. B(C  17,C  11)                  1.4031         0.595399   
     14. B(C  18,C  12)                  1.4064         0.588205   
     15. B(C  18,O   1)                  1.2624         0.894267   
     16. B(C  18,C  17)                  1.4064         0.588268   
     17. B(C  19,C  15)                  1.5442         0.354588   
     18. B(C  19,N   6)                  1.4752         0.409176   
     19. B(C  20,C  16)                  1.5304         0.372966   
     20. B(C  20,N   6)                  1.4656         0.423878   
     21. B(C  21,C  12)                  1.4083         0.584216   
     22. B(C  22,C  21)                  1.3938         0.616145   
     23. B(C  22,C  14)                  1.3998         0.602767   
     24. B(C  22,F   0)                  1.3570         0.586909   
     25. B(C  23,C  17)                  1.4890         0.434283   
     26. B(C  23,O   3)                  1.2612         0.898345   
     27. B(C  23,O   2)                  1.3926         0.554359   
     28. B(H  24,O   2)                  1.0131         0.427839   
     29. B(H  25,N   6)                  1.0469         0.377851   
     30. B(H  26,C   7)                  1.1107         0.333738   
     31. B(H  27,C   8)                  1.1113         0.332998   
     32. B(H  28,C   8)                  1.1103         0.334186   
     33. B(H  29,C   9)                  1.1108         0.333565   
     34. B(H  30,C   9)                  1.1103         0.334281   
     35. B(H  31,C  11)                  1.0842         0.367888   
     36. B(H  32,C  13)                  1.0799         0.373682   
     37. B(H  33,C  15)                  1.1117         0.332507   
     38. B(H  34,C  15)                  1.1117         0.332452   
     39. B(H  35,C  16)                  1.1106         0.333828   
     40. B(H  36,C  16)                  1.1121         0.332046   
     41. B(H  37,C  19)                  1.1134         0.330417   
     42. B(H  38,C  19)                  1.1110         0.333382   
     43. B(H  39,C  20)                  1.1139         0.329867   
     44. B(H  40,C  20)                  1.1118         0.332420   
     45. B(H  41,C  21)                  1.0833         0.369114   
     46. A(C  23,O   2,H  24)          120.9503         0.351251   
     47. A(C   7,N   4,C  11)          117.8066         0.396251   
     48. A(C  10,N   4,C  11)          120.3435         0.422034   
     49. A(C   7,N   4,C  10)          121.6971         0.393460   
     50. A(C  14,N   5,C  16)          119.8163         0.380675   
     51. A(C  14,N   5,C  15)          120.3643         0.380850   
     52. A(C  15,N   5,C  16)          119.5471         0.373615   
     53. A(C  20,N   6,H  25)          108.1888         0.328952   
     54. A(C  19,N   6,C  20)          111.8429         0.372463   
     55. A(C  19,N   6,H  25)          108.2196         0.327043   
     56. A(C   9,C   7,H  26)          117.7924         0.320617   
     57. A(C   8,C   7,H  26)          117.4912         0.321074   
     58. A(C   8,C   7,C   9)           59.4493         0.364636   
     59. A(N   4,C   7,C   9)          115.2547         0.366976   
     60. A(N   4,C   7,H  26)          118.9764         0.323044   
     61. A(N   4,C   7,C   8)          114.0658         0.367524   
     62. A(H  27,C   8,H  28)          122.5989         0.283972   
     63. A(C   7,C   8,H  27)          115.6636         0.320957   
     64. A(C   9,C   8,H  27)          113.9453         0.323194   
     65. A(C   9,C   8,H  28)          114.1936         0.323383   
     66. A(C   7,C   8,H  28)          114.2724         0.321144   
     67. A(C   7,C   8,C   9)           60.3532         0.367843   
     68. A(C   7,C   9,H  30)          114.7075         0.320702   
     69. A(C   7,C   9,H  29)          117.2225         0.320590   
     70. A(C   7,C   9,C   8)           60.1975         0.367295   
     71. A(H  29,C   9,H  30)          122.3806         0.284060   
     72. A(C   8,C   9,H  30)          113.5169         0.323398   
     73. A(C   8,C   9,H  29)          112.6927         0.323284   
     74. A(N   4,C  10,C  12)          119.7781         0.419117   
     75. A(C  12,C  10,C  13)          118.5087         0.420321   
     76. A(N   4,C  10,C  13)          121.7100         0.420212   
     77. A(C  17,C  11,H  31)          118.9074         0.351771   
     78. A(N   4,C  11,C  17)          121.7632         0.426440   
     79. A(N   4,C  11,H  31)          119.3262         0.350717   
     80. A(C  18,C  12,C  21)          120.8339         0.425422   
     81. A(C  10,C  12,C  21)          119.7369         0.422052   
     82. A(C  10,C  12,C  18)          119.4264         0.422566   
     83. A(C  10,C  13,H  32)          120.9081         0.350208   
     84. A(C  10,C  13,C  14)          121.2104         0.425030   
     85. A(C  14,C  13,H  32)          117.8602         0.353044   
     86. A(N   5,C  14,C  22)          120.2744         0.408213   
     87. A(N   5,C  14,C  13)          120.2076         0.407738   
     88. A(C  13,C  14,C  22)          119.5147         0.429184   
     89. A(N   5,C  15,H  34)          111.3726         0.324456   
     90. A(C  19,C  15,H  33)          109.1472         0.317398   
     91. A(N   5,C  15,H  33)          108.3177         0.324465   
     92. A(N   5,C  15,C  19)          111.0811         0.365239   
     93. A(H  33,C  15,H  34)          107.0236         0.283678   
     94. A(C  19,C  15,H  34)          109.7791         0.317390   
     95. A(N   5,C  16,C  20)          110.6219         0.368249   
     96. A(H  35,C  16,H  36)          108.6456         0.283799   
     97. A(C  20,C  16,H  36)          108.6665         0.319953   
     98. A(N   5,C  16,H  36)          109.0015         0.324249   
     99. A(C  20,C  16,H  35)          109.5802         0.320233   
    100. A(N   5,C  16,H  35)          110.2799         0.324535   
    101. A(C  11,C  17,C  18)          118.4767         0.426877   
    102. A(C  11,C  17,C  23)          119.5576         0.404447   
    103. A(C  18,C  17,C  23)          121.9657         0.403588   
    104. A(C  12,C  18,C  17)          119.9489         0.425948   
    105. A(O   1,C  18,C  17)          120.2096         0.456413   
    106. A(O   1,C  18,C  12)          119.8388         0.456404   
    107. A(N   6,C  19,C  15)          113.4118         0.363498   
    108. A(H  37,C  19,H  38)          107.3089         0.283523   
    109. A(C  15,C  19,H  38)          108.7641         0.317534   
    110. A(N   6,C  19,H  38)          108.0101         0.323120   
    111. A(C  15,C  19,H  37)          109.0300         0.317073   
    112. A(N   6,C  19,H  37)          110.1251         0.322647   
    113. A(N   6,C  20,C  16)          109.1654         0.368883   
    114. A(H  39,C  20,H  40)          107.9582         0.283323   
    115. A(N   6,C  20,H  40)          109.6910         0.324843   
    116. A(C  16,C  20,H  39)          110.3350         0.319609   
    117. A(N   6,C  20,H  39)          110.4535         0.324432   
    118. A(C  16,C  20,H  40)          109.2159         0.320012   
    119. A(C  22,C  21,H  41)          118.3481         0.354016   
    120. A(C  12,C  21,H  41)          120.9344         0.350843   
    121. A(C  12,C  21,C  22)          120.7174         0.428974   
    122. A(C  14,C  22,C  21)          120.2624         0.431388   
    123. A(F   0,C  22,C  21)          119.3027         0.424643   
    124. A(F   0,C  22,C  14)          120.4299         0.422979   
    125. A(O   3,C  23,C  17)          120.2490         0.432376   
    126. A(O   2,C  23,C  17)          120.9199         0.396835   
    127. A(O   2,C  23,O   3)          118.8311         0.448896   
    128. D(C   8,C   7,N   4,C  11)   -117.2996         0.014213   
    129. D(C   9,C   7,N   4,C  10)    133.3001         0.014213   
    130. D(C   8,C   7,N   4,C  10)     67.1814         0.014213   
    131. D(H  26,C   7,N   4,C  10)    -78.4288         0.014213   
    132. D(C   9,C   7,N   4,C  11)    -51.1809         0.014213   
    133. D(C   9,C   8,C   7,H  26)   -107.6504         0.011457   
    134. D(C   9,C   8,C   7,N   4)    106.1991         0.011457   
    135. D(H  27,C   8,C   7,C   9)   -104.1603         0.011457   
    136. D(H  27,C   8,C   7,H  26)    148.1894         0.011457   
    137. D(H  28,C   8,C   7,N   4)   -148.6939         0.011457   
    138. D(H  27,C   8,C   7,N   4)      2.0388         0.011457   
    139. D(C   8,C   9,C   7,H  26)    107.1469         0.011270   
    140. D(H  29,C   9,C   7,N   4)     -2.3411         0.011270   
    141. D(H  29,C   9,C   7,C   8)    101.8483         0.011270   
    142. D(H  29,C   9,C   8,H  28)    145.3783         0.012422   
    143. D(H  29,C   9,C   8,C   7)   -109.3839         0.012422   
    144. D(H  29,C   9,C   8,H  27)     -2.3766         0.012422   
    145. D(H  30,C   9,C   8,C   7)    106.0263         0.012422   
    146. D(C   7,C   9,C   8,H  27)    107.0073         0.012422   
    147. D(C   8,C   9,C   7,N   4)   -104.1894         0.011270   
    148. D(C   7,C   9,C   8,H  28)   -105.2378         0.012422   
    149. D(H  30,C   9,C   7,N   4)    151.7681         0.011270   
    150. D(H  29,C   9,C   7,H  26)   -151.0048         0.011270   
    151. D(C  13,C  10,N   4,C  11)   -173.4645         0.027249   
    152. D(C  13,C  10,N   4,C   7)      1.9425         0.027249   
    153. D(C  12,C  10,N   4,C  11)      5.8822         0.027249   
    154. D(C  12,C  10,N   4,C   7)   -178.7107         0.027249   
    155. D(H  31,C  11,N   4,C  10)    175.0927         0.029704   
    156. D(H  31,C  11,N   4,C   7)     -0.4897         0.029704   
    157. D(C  17,C  11,N   4,C  10)     -5.5650         0.029704   
    158. D(C  17,C  11,N   4,C   7)    178.8527         0.029704   
    159. D(C  21,C  12,C  10,C  13)     -2.5118         0.021691   
    160. D(C  21,C  12,C  10,N   4)    178.1206         0.021691   
    161. D(C  18,C  12,C  10,C  13)    176.8910         0.021691   
    162. D(C  18,C  12,C  10,N   4)     -2.4765         0.021691   
    163. D(H  32,C  13,C  10,N   4)      3.1325         0.022362   
    164. D(C  14,C  13,C  10,C  12)      2.0636         0.022362   
    165. D(C  14,C  13,C  10,N   4)   -178.5816         0.022362   
    166. D(H  32,C  13,C  10,C  12)   -176.2222         0.022362   
    167. D(C  22,C  14,C  13,C  10)     -0.2326         0.024715   
    168. D(N   5,C  14,C  13,C  10)    179.1052         0.024715   
    169. D(C  22,C  14,N   5,C  16)    125.4024         0.017328   
    170. D(C  22,C  14,N   5,C  15)    -60.6193         0.017328   
    171. D(C  13,C  14,N   5,C  16)    -53.9304         0.017328   
    172. D(C  13,C  14,N   5,C  15)    120.0480         0.017328   
    173. D(C  22,C  14,C  13,H  32)    178.1039         0.024715   
    174. D(N   5,C  14,C  13,H  32)     -2.5583         0.024715   
    175. D(H  34,C  15,N   5,C  14)     14.3740         0.015096   
    176. D(H  33,C  15,N   5,C  16)     70.9345         0.015096   
    177. D(H  33,C  15,N   5,C  14)   -103.0599         0.015096   
    178. D(C  19,C  15,N   5,C  16)    -48.9270         0.015096   
    179. D(C  19,C  15,N   5,C  14)    137.0785         0.015096   
    180. D(H  36,C  16,N   5,C  14)    -49.2632         0.015017   
    181. D(H  35,C  16,N   5,C  15)   -104.0995         0.015017   
    182. D(H  35,C  16,N   5,C  14)     69.9282         0.015017   
    183. D(C  20,C  16,N   5,C  15)     17.2853         0.015017   
    184. D(C  20,C  16,N   5,C  14)   -168.6869         0.015017   
    185. D(C  23,C  17,C  11,H  31)      1.0137         0.024418   
    186. D(C  23,C  17,C  11,N   4)   -178.3314         0.024418   
    187. D(C  18,C  17,C  11,H  31)   -178.9422         0.024418   
    188. D(C  18,C  17,C  11,N   4)      1.7127         0.024418   
    189. D(O   1,C  18,C  12,C  21)     -1.2979         0.023803   
    190. D(O   1,C  18,C  12,C  10)    179.3059         0.023803   
    191. D(C  12,C  18,C  17,C  23)   -178.2599         0.023808   
    192. D(C  12,C  18,C  17,C  11)      1.6949         0.023808   
    193. D(O   1,C  18,C  17,C  23)      1.1379         0.023808   
    194. D(O   1,C  18,C  17,C  11)   -178.9073         0.023808   
    195. D(C  17,C  18,C  12,C  21)    178.1021         0.023803   
    196. D(C  17,C  18,C  12,C  10)     -1.2940         0.023803   
    197. D(H  37,C  19,C  15,H  34)    -92.6040         0.010110   
    198. D(H  37,C  19,C  15,N   5)    143.7760         0.010110   
    199. D(N   6,C  19,C  15,H  34)    144.3060         0.010110   
    200. D(N   6,C  19,C  15,H  33)    -98.6807         0.010110   
    201. D(N   6,C  19,C  15,N   5)     20.6860         0.010110   
    202. D(H  38,C  19,N   6,C  20)    155.8640         0.014284   
    203. D(H  37,C  19,N   6,H  25)     31.8344         0.014284   
    204. D(H  37,C  19,N   6,C  20)    -87.2426         0.014284   
    205. D(H  37,C  19,C  15,H  33)     24.4093         0.010110   
    206. D(C  15,C  19,N   6,H  25)    154.3198         0.014284   
    207. D(C  15,C  19,N   6,C  20)     35.2428         0.014284   
    208. D(H  39,C  20,C  16,H  35)     40.7219         0.011109   
    209. D(H  39,C  20,C  16,N   5)    -81.0754         0.011109   
    210. D(N   6,C  20,C  16,H  36)    -79.1438         0.011109   
    211. D(N   6,C  20,C  16,H  35)    162.2791         0.011109   
    212. D(N   6,C  20,C  16,N   5)     40.4818         0.011109   
    213. D(H  40,C  20,N   6,C  19)    172.0640         0.015319   
    214. D(H  39,C  20,N   6,H  25)    -65.9114         0.015319   
    215. D(H  39,C  20,N   6,C  19)     53.1838         0.015319   
    216. D(C  16,C  20,N   6,H  25)    172.6033         0.015319   
    217. D(H  39,C  20,C  16,H  36)    159.2991         0.011109   
    218. D(C  16,C  20,N   6,C  19)    -68.3015         0.015319   
    219. D(H  41,C  21,C  12,C  18)      1.6696         0.023465   
    220. D(H  41,C  21,C  12,C  10)   -178.9362         0.023465   
    221. D(C  22,C  21,C  12,C  18)   -178.2199         0.023465   
    222. D(C  22,C  21,C  12,C  10)      1.1744         0.023465   
    223. D(C  14,C  22,C  21,C  12)      0.6984         0.026250   
    224. D(F   0,C  22,C  21,H  41)      1.6206         0.026250   
    225. D(F   0,C  22,C  21,C  12)   -178.4872         0.026250   
    226. D(C  21,C  22,C  14,C  13)     -1.1708         0.025060   
    227. D(C  21,C  22,C  14,N   5)    179.4919         0.025060   
    228. D(F   0,C  22,C  14,C  13)    178.0056         0.025060   
    229. D(C  14,C  22,C  21,H  41)   -179.1938         0.026250   
    230. D(F   0,C  22,C  14,N   5)     -1.3318         0.025060   
    231. D(O   3,C  23,C  17,C  18)   -178.3701         0.012878   
    232. D(O   3,C  23,C  17,C  11)      1.6756         0.012878   
    233. D(O   2,C  23,C  17,C  18)      1.6980         0.012878   
    234. D(O   2,C  23,C  17,C  11)   -178.2563         0.012878   
    235. D(C  17,C  23,O   2,H  24)    179.9723         0.022243   
    236. D(O   3,C  23,O   2,H  24)      0.0395         0.022243   
    -----------------------------------------------------------------

Number of atoms                         .... 42
Number of degrees of freedom            .... 236


         *************************************************************
         *                GEOMETRY OPTIMIZATION CYCLE   1            *
         *************************************************************
---------------------------------
CARTESIAN COORDINATES (ANGSTROEM)
---------------------------------
  F     -1.848000    2.529390   -1.445991
  O      3.130093    2.834683   -1.495377
  O      5.700279    2.600057   -1.100138
  O      6.267147    0.703010    0.041533
  N      2.311318   -0.571048    0.551608
  N     -2.496795    0.254483    0.076443
  N     -5.065997    0.040626   -0.735344
  C      2.075233   -1.827001    1.289940
  C      1.448796   -2.935207    0.448423
  C      2.911808   -3.020681    0.830375
  C      1.269045    0.204275    0.088838
  C      3.603719   -0.143224    0.416949
  C      1.542652    1.390043   -0.640087
  C     -0.080599   -0.142291    0.332362
  C     -1.132290    0.637452   -0.167956
  C     -3.401633    1.154733    0.800814
  C     -2.951938   -1.094598   -0.282506
  C      3.924905    1.026198   -0.288767
  C      2.877239    1.787877   -0.836671
  C     -4.791216    1.204020    0.129114
  C     -4.477115   -1.189204   -0.197985
  C      0.477836    2.160137   -1.146423
  C     -0.844588    1.783344   -0.918634
  C      5.351468    1.426440   -0.436679
  H      6.670698    2.873023   -1.200678
  H     -6.103368   -0.089897   -0.788529
  H      1.791953   -1.775440    2.362664
  H      1.275561   -2.687900   -0.621070
  H      0.788913   -3.623078    1.017827
  H      3.590506   -2.862603   -0.034690
  H      3.120303   -3.772766    1.620032
  H      4.404714   -0.726437    0.857069
  H     -0.332414   -1.002895    0.934177
  H     -3.512335    0.776607    1.840355
  H     -2.981071    2.181466    0.870993
  H     -2.494283   -1.847791    0.393314
  H     -2.638847   -1.316611   -1.326251
  H     -5.572794    1.288520    0.917590
  H     -4.853150    2.119570   -0.497162
  H     -4.797365   -1.345287    0.857376
  H     -4.823194   -2.061693   -0.793829
  H      0.664807    3.059702   -1.720268

----------------------------
CARTESIAN COORDINATES (A.U.)
----------------------------
  NO LB      ZA    FRAG     MASS         X           Y           Z
   0 F     7.0000*   0    18.998   -3.492214    4.779854   -2.732527
   1 O     6.0000*   0    15.999    5.915019    5.356775   -2.825853
   2 O     6.0000*   0    15.999   10.771966    4.913396   -2.078960
   3 O     6.0000*   0    15.999   11.843191    1.328496    0.078486
   4 N     5.0000*   0    14.007    4.367758   -1.079124    1.042388
   5 N     5.0000*   0    14.007   -4.718259    0.480903    0.144456
   6 N     5.0000*   0    14.007   -9.573347    0.076772   -1.389599
   7 C     4.0000*   0    12.011    3.921622   -3.452532    2.437633
   8 C     4.0000*   0    12.011    2.737828   -5.546737    0.847397
   9 C     4.0000*   0    12.011    5.502520   -5.708260    1.569181
  10 C     4.0000*   0    12.011    2.398148    0.386024    0.167879
  11 C     4.0000*   0    12.011    6.810042   -0.270654    0.787919
  12 C     4.0000*   0    12.011    2.915190    2.626801   -1.209589
  13 C     4.0000*   0    12.011   -0.152310   -0.268891    0.628073
  14 C     4.0000*   0    12.011   -2.139718    1.204610   -0.317391
  15 C     4.0000*   0    12.011   -6.428155    2.182129    1.513319
  16 C     4.0000*   0    12.011   -5.578354   -2.068490   -0.533859
  17 C     4.0000*   0    12.011    7.416996    1.939233   -0.545691
  18 C     4.0000*   0    12.011    5.437194    3.378598   -1.581079
  19 C     4.0000*   0    12.011   -9.054086    2.275268    0.243990
  20 C     4.0000*   0    12.011   -8.460521   -2.247270   -0.374137
  21 C     4.0000*   0    12.011    0.902979    4.082067   -2.166426
  22 C     4.0000*   0    12.011   -1.596040    3.370032   -1.735967
  23 C     4.0000*   0    12.011   10.112809    2.695581   -0.825204
  24 H     1.0000    0     1.008   12.605792    5.429227   -2.268953
  25 H     1.0000    0     1.008  -11.533694   -0.169881   -1.490104
  26 H     1.0000    0     1.008    3.386300   -3.355095    4.464788
  27 H     1.0000    0     1.008    2.410461   -5.079395   -1.173652
  28 H     1.0000    0     1.008    1.490830   -6.846625    1.923414
  29 H     1.0000    0     1.008    6.785073   -5.409536   -0.065555
  30 H     1.0000    0     1.008    5.896518   -7.129495    3.061417
  31 H     1.0000    0     1.008    8.323703   -1.372767    1.619626
  32 H     1.0000    0     1.008   -0.628171   -1.895197    1.765339
  33 H     1.0000    0     1.008   -6.637351    1.467575    3.477767
  34 H     1.0000    0     1.008   -5.633408    4.122373    1.645938
  35 H     1.0000    0     1.008   -4.713512   -3.491819    0.743256
  36 H     1.0000    0     1.008   -4.986698   -2.488034   -2.506251
  37 H     1.0000    0     1.008  -10.531054    2.434950    1.733994
  38 H     1.0000    0     1.008   -9.171124    4.005407   -0.939500
  39 H     1.0000    0     1.008   -9.065706   -2.542224    1.620206
  40 H     1.0000    0     1.008   -9.114516   -3.896035   -1.500119
  41 H     1.0000    0     1.008    1.256303    5.781999   -3.250835
* core charge reduced due to ECP

--------------------------------
INTERNAL COORDINATES (ANGSTROEM)
--------------------------------
 F      0   0   0     0.000000000000     0.00000000     0.00000000
 O      1   0   0     4.987690117629     0.00000000     0.00000000
 O      2   1   0     2.610961374971   167.28830208     0.00000000
 O      3   2   1     2.285506360060   113.22600303    17.46056433
 N      2   1   3     4.057036324118    75.06005286    15.73841375
 N      1   2   3     2.813172958606   106.56123423   347.12944349
 N      6   1   2     2.702874741201    96.93050701   195.66052653
 C      5   2   1     1.475902506149   177.50045251   165.90382576
 C      8   5   2     1.526006131932   114.06576578   260.10387662
 C      9   8   5     1.514462692549    60.35316248   106.19908385
 C      5   2   1     1.378990512570    60.74072412   358.50137337
 C      5   2   1     1.368015630780    59.81100613   183.72660694
 C     11   5   2     1.418533819089   119.77811888     0.64871802
 C     11   5   2     1.414549701378   121.71000215   181.30198681
 C     14  11   5     1.401560275783   121.21041799   181.41838346
 C      6   1   2     1.467615485877    85.02385543   129.50173076
 C      6   1   2     1.468338884458   133.01379915   256.06799904
 C     12   5   2     1.403119144384   121.76323879   359.71737856
 C      2   1  15     1.262391199822    75.17692675     1.11245862
 C      7   6   1     1.475221282032    65.45259604   290.31089057
 C      7   6   1     1.465611999714    64.80794993   158.48509108
 C     13  11   5     1.408280521625   119.73692468   178.12060613
 C      1   2  19     1.357028253689    45.53308216     1.17077732
 C      4   3   2     1.261152533552    32.26086471   357.92094459
 H      3   2  19     1.013080334582   154.64804663   178.45237505
 H      7   6   1     1.046901852799   165.24264550   222.92141506
 H      8   5  12     1.110694771437   118.97638764    97.09017890
 H      9   8   5     1.111299417134   115.66362093     2.03880551
 H      9   8   5     1.110330131783   114.27243299   211.30607594
 H     10   9   8     1.110836209129   112.69265369   250.61613257
 H     10   9   8     1.110252309117   113.51689096   106.02632855
 H     12   5   2     1.084175266179   119.32619931   180.37499575
 H     14  11   5     1.079921910726   120.90812263     3.13253379
 H     16   6   1     1.111701261743   108.31769639   208.47580131
 H     16   6   1     1.111745537960   111.37258711   325.90972355
 H     17   6   1     1.110621657755   110.27988811   142.79064811
 H     17   6   1     1.112078851285   109.00150375    23.59924366
 H     20   7   6     1.113417631736   110.12505611   226.16752595
 H     20   7   6     1.110985711444   108.01008891   109.27412359
 H     21   7   6     1.113871090257   110.45351769   100.09136953
 H     21   7   6     1.111772369551   109.69100756   218.97155534
 H     22  13  11     1.083269785460   120.93443494   181.06383486

---------------------------
INTERNAL COORDINATES (A.U.)
---------------------------
 F      0   0   0     0.000000000000     0.00000000     0.00000000
 O      1   0   0     9.425368363184     0.00000000     0.00000000
 O      2   1   0     4.934001944943   167.28830208     0.00000000
 O      3   2   1     4.318981097848   113.22600303    17.46056433
 N      2   1   3     7.666687567953    75.06005286    15.73841375
 N      1   2   3     5.316126459118   106.56123423   347.12944349
 N      6   1   2     5.107693035163    96.93050701   195.66052653
 C      5   2   1     2.789051536990   177.50045251   165.90382576
 C      8   5   2     2.883733668036   114.06576578   260.10387662
 C      9   8   5     2.861919728959    60.35316248   106.19908385
 C      5   2   1     2.605914410033    60.74072412   358.50137337
 C      5   2   1     2.585174889097    59.81100613   183.72660694
 C     11   5   2     2.680640429783   119.77811888     0.64871802
 C     11   5   2     2.673111538424   121.71000215   181.30198681
 C     14  11   5     2.648565081414   121.21041799   181.41838346
 C      6   1   2     2.773391338209    85.02385543   129.50173076
 C      6   1   2     2.774758363413   133.01379915   256.06799904
 C     12   5   2     2.651510916147   121.76323879   359.71737856
 C      2   1  15     2.385573641536    75.17692675     1.11245862
 C      7   6   1     2.787764209973    65.45259604   290.31089057
 C      7   6   1     2.769605298048    64.80794993   158.48509108
 C     13  11   5     2.661264505607   119.73692468   178.12060613
 C      1   2  19     2.564411755465    45.53308216     1.17077732
 C      4   3   2     2.383232901514    32.26086471   357.92094459
 H      3   2  19     1.914444384021   154.64804663   178.45237505
 H      7   6   1     1.978357790886   165.24264550   222.92141506
 H      8   5  12     2.098908936394   118.97638764    97.09017890
 H      9   8   5     2.100051551170   115.66362093     2.03880551
 H      9   8   5     2.098219867311   114.27243299   211.30607594
 H     10   9   8     2.099176214898   112.69265369   250.61613257
 H     10   9   8     2.098072803784   113.51689096   106.02632855
 H     12   5   2     2.048794334249   119.32619931   180.37499575
 H     14  11   5     2.040756657293   120.90812263     3.13253379
 H     16   6   1     2.100810927429   108.31769639   208.47580131
 H     16   6   1     2.100894597353   111.37258711   325.90972355
 H     17   6   1     2.098770771558   110.27988811   142.79064811
 H     17   6   1     2.101524468254   109.00150375    23.59924366
 H     20   7   6     2.104054396660   110.12505611   226.16752595
 H     20   7   6     2.099458733328   108.01008891   109.27412359
 H     21   7   6     2.104911309078   110.45351769   100.09136953
 H     21   7   6     2.100945301713   109.69100756   218.97155534
 H     22  13  11     2.047083223671   120.93443494   181.06383486

---------------------
BASIS SET INFORMATION
---------------------
There are 5 groups of distinct atoms

 Group   1 Type F   : 6s6p2d contracted to 2s2p1d pattern {42/42/2}
 Group   2 Type O   : 6s6p2d contracted to 2s2p1d pattern {42/42/2}
 Group   3 Type N   : 6s6p2d contracted to 2s2p1d pattern {42/42/2}
 Group   4 Type C   : 6s6p2d contracted to 2s2p1d pattern {42/42/2}
 Group   5 Type H   : 8s2p contracted to 2s1p pattern {53/2}

Atom   0F    basis set group =>   1
Atom   1O    basis set group =>   2
Atom   2O    basis set group =>   2
Atom   3O    basis set group =>   2
Atom   4N    basis set group =>   3
Atom   5N    basis set group =>   3
Atom   6N    basis set group =>   3
Atom   7C    basis set group =>   4
Atom   8C    basis set group =>   4
Atom   9C    basis set group =>   4
Atom  10C    basis set group =>   4
Atom  11C    basis set group =>   4
Atom  12C    basis set group =>   4
Atom  13C    basis set group =>   4
Atom  14C    basis set group =>   4
Atom  15C    basis set group =>   4
Atom  16C    basis set group =>   4
Atom  17C    basis set group =>   4
Atom  18C    basis set group =>   4
Atom  19C    basis set group =>   4
Atom  20C    basis set group =>   4
Atom  21C    basis set group =>   4
Atom  22C    basis set group =>   4
Atom  23C    basis set group =>   4
Atom  24H    basis set group =>   5
Atom  25H    basis set group =>   5
Atom  26H    basis set group =>   5
Atom  27H    basis set group =>   5
Atom  28H    basis set group =>   5
Atom  29H    basis set group =>   5
Atom  30H    basis set group =>   5
Atom  31H    basis set group =>   5
Atom  32H    basis set group =>   5
Atom  33H    basis set group =>   5
Atom  34H    basis set group =>   5
Atom  35H    basis set group =>   5
Atom  36H    basis set group =>   5
Atom  37H    basis set group =>   5
Atom  38H    basis set group =>   5
Atom  39H    basis set group =>   5
Atom  40H    basis set group =>   5
Atom  41H    basis set group =>   5
---------------------------------
AUXILIARY/J BASIS SET INFORMATION
---------------------------------
There are 5 groups of distinct atoms

 Group   1 Type F   : 12s5p4d2f1g contracted to 6s4p3d1f1g pattern {711111/2111/211/2/1}
 Group   2 Type O   : 12s5p4d2f1g contracted to 6s4p3d1f1g pattern {711111/2111/211/2/1}
 Group   3 Type N   : 12s5p4d2f1g contracted to 6s4p3d1f1g pattern {711111/2111/211/2/1}
 Group   4 Type C   : 12s5p4d2f1g contracted to 6s4p3d1f1g pattern {711111/2111/211/2/1}
 Group   5 Type H   : 5s2p1d contracted to 3s1p1d pattern {311/2/1}

Atom   0F    basis set group =>   1
Atom   1O    basis set group =>   2
Atom   2O    basis set group =>   2
Atom   3O    basis set group =>   2
Atom   4N    basis set group =>   3
Atom   5N    basis set group =>   3
Atom   6N    basis set group =>   3
Atom   7C    basis set group =>   4
Atom   8C    basis set group =>   4
Atom   9C    basis set group =>   4
Atom  10C    basis set group =>   4
Atom  11C    basis set group =>   4
Atom  12C    basis set group =>   4
Atom  13C    basis set group =>   4
Atom  14C    basis set group =>   4
Atom  15C    basis set group =>   4
Atom  16C    basis set group =>   4
Atom  17C    basis set group =>   4
Atom  18C    basis set group =>   4
Atom  19C    basis set group =>   4
Atom  20C    basis set group =>   4
Atom  21C    basis set group =>   4
Atom  22C    basis set group =>   4
Atom  23C    basis set group =>   4
Atom  24H    basis set group =>   5
Atom  25H    basis set group =>   5
Atom  26H    basis set group =>   5
Atom  27H    basis set group =>   5
Atom  28H    basis set group =>   5
Atom  29H    basis set group =>   5
Atom  30H    basis set group =>   5
Atom  31H    basis set group =>   5
Atom  32H    basis set group =>   5
Atom  33H    basis set group =>   5
Atom  34H    basis set group =>   5
Atom  35H    basis set group =>   5
Atom  36H    basis set group =>   5
Atom  37H    basis set group =>   5
Atom  38H    basis set group =>   5
Atom  39H    basis set group =>   5
Atom  40H    basis set group =>   5
Atom  41H    basis set group =>   5
-------------------------
ECP PARAMETER INFORMATION
-------------------------

 Group 1, Type F  ECP vDZP-ECP (replacing 2 core electrons, lmax=3)
 Group 2, Type O  ECP vDZP-ECP (replacing 2 core electrons, lmax=3)
 Group 3, Type N  ECP vDZP-ECP (replacing 2 core electrons, lmax=3)
 Group 4, Type C  ECP vDZP-ECP (replacing 2 core electrons, lmax=3)

Atom   0F    ECP group =>   1
Atom   1O    ECP group =>   2
Atom   2O    ECP group =>   2
Atom   3O    ECP group =>   2
Atom   4N    ECP group =>   3
Atom   5N    ECP group =>   3
Atom   6N    ECP group =>   3
Atom   7C    ECP group =>   4
Atom   8C    ECP group =>   4
Atom   9C    ECP group =>   4
Atom  10C    ECP group =>   4
Atom  11C    ECP group =>   4
Atom  12C    ECP group =>   4
Atom  13C    ECP group =>   4
Atom  14C    ECP group =>   4
Atom  15C    ECP group =>   4
Atom  16C    ECP group =>   4
Atom  17C    ECP group =>   4
Atom  18C    ECP group =>   4
Atom  19C    ECP group =>   4
Atom  20C    ECP group =>   4
Atom  21C    ECP group =>   4
Atom  22C    ECP group =>   4
Atom  23C    ECP group =>   4



           ************************************************************
           *        Program running with 40 parallel MPI-processes    *
           *              working on a common directory               *
           ************************************************************
------------------------------------------------------------------------------
                             ORCA STARTUP CALCULATIONS
                           -- RI-GTO INTEGRALS CHOSEN --
------------------------------------------------------------------------------
------------------------------------------------------------------------------
                   ___                                                        
                  /   \      - P O W E R E D   B Y -                         
                 /     \                                                     
                 |  |  |   _    _      __       _____    __    __             
                 |  |  |  | |  | |    /  \     |  _  \  |  |  /  |          
                  \  \/   | |  | |   /    \    | | | |  |  | /  /          
                 / \  \   | |__| |  /  /\  \   | |_| |  |  |/  /          
                |  |  |   |  __  | /  /__\  \  |    /   |      \           
                |  |  |   | |  | | |   __   |  |    \   |  |\   \          
                \     /   | |  | | |  |  |  |  | |\  \  |  | \   \       
                 \___/    |_|  |_| |__|  |__|  |_| \__\ |__|  \__/        
                                                                              
                      - O R C A' S   B I G   F R I E N D -                    
                                      &                                       
                       - I N T E G R A L  F E E D E R -                       
                                                                              
 v1 FN, 2020, v2 2021, v3 2022-2024                                           
------------------------------------------------------------------------------


----------------------
SHARK INTEGRAL PACKAGE
----------------------

Number of atoms                             ...     42
Number of basis functions                   ...    402
Number of shells                            ...    174
Maximum angular momentum                    ...      2
Integral batch strategy                     ... SHARK/LIBINT Hybrid
RI-J (if used) integral strategy            ... SPLIT-RIJ (Revised 2003 algorithm where possible)
Printlevel                                  ...      1
Contraction scheme used                     ... SEGMENTED contraction
Prescreening option                         ... SCHWARTZ
   Thresh                                   ... 2.500e-11
   Tcut                                     ... 2.500e-12
   Tpresel                                  ... 2.500e-12 
Coulomb Range Separation                    ... NOT USED
Exchange Range Separation                   ... Long Range
   Mu parameter                             ... 3.000e-01
   Scaling (regular/separated)              ... 1.670e-01 8.330e-01
Multipole approximations                    ... NOT USED
Finite Nucleus Model                        ... NOT USED
CABS basis                                  ... NOT available
Auxiliary Coulomb fitting basis             ... AVAILABLE
   # of basis functions in Aux-J            ...   1374
   # of shells in Aux-J                     ...    450
   Maximum angular momentum in Aux-J        ...      4
Auxiliary J/K fitting basis                 ... NOT available
Auxiliary Correlation fitting basis         ... NOT available
Auxiliary 'external' fitting basis          ... NOT available

Checking pre-screening integrals            ... done (  0.0 sec) Dimension = 174
Check shell pair data                       ... done (  0.0 sec)
Shell pair information
Shell pair cut-off parameter TPreSel        ...   2.5e-12
Total number of shell pairs                 ...     15225
Shell pairs after pre-screening             ...     14005
Total number of primitive shell pairs       ...    133998
Primitive shell pairs kept                  ...     86510
          la=0 lb=0:   3391 shell pairs
          la=1 lb=0:   5129 shell pairs
          la=1 lb=1:   1963 shell pairs
          la=2 lb=0:   1864 shell pairs
          la=2 lb=1:   1391 shell pairs
          la=2 lb=2:    267 shell pairs

Calculating one electron integrals          ... done (  0.0 sec)
Calculating ECP integrals                   ... done (  0.3 sec)
Calculating RI/J V-Matrix + Cholesky decomp.... done (  0.1 sec)
Calculating Nuclear repulsion               ... done (  0.0 sec) ENN=   1062.513183337180 Eh

Diagonalization of the overlap matrix:
Smallest eigenvalue                        ... 1.732e-04
Time for diagonalization                   ...    0.024 sec
Threshold for overlap eigenvalues          ... 1.000e-07
Number of eigenvalues below threshold      ... 0
Time for construction of square roots      ...    0.012 sec
Total time needed                          ...    0.040 sec

-------------------
DFT GRID GENERATION
-------------------

General Integration Accuracy     IntAcc      ... 4.388
Radial Grid Type                 RadialGrid  ... OptM3 with GC (2021)
Angular Grid (max. ang.)         AngularGrid ... 4 (Lebedev-302)
Angular grid pruning method      GridPruning ... 4 (adaptive)
Weight generation scheme         WeightScheme... mBecke (2022)
Basis function cutoff            BFCut       ... 1.0000e-11
Integration weight cutoff        WCut        ... 1.0000e-14
Partially contracted basis set               ... off
Rotationally invariant grid construction     ... off
Angular grids for H and He will be reduced by one unit

Total number of grid points                  ...   200655
Total number of batches                      ...     3155
Average number of points per batch           ...       63
Average number of grid points per atom       ...     4778

--------------------
COSX GRID GENERATION
--------------------

GRIDX 1
-------
General Integration Accuracy     IntAcc      ... 3.816
Radial Grid Type                 RadialGrid  ... OptM3 with GC (2021)
Angular Grid (max. ang.)         AngularGrid ... 1 (Lebedev-50)
Angular grid pruning method      GridPruning ... 4 (adaptive)
Weight generation scheme         WeightScheme... mBecke (2022)
Basis function cutoff            BFCut       ... 1.0000e-11
Integration weight cutoff        WCut        ... 1.0000e-14
Partially contracted basis set               ... on
Rotationally invariant grid construction     ... off
Angular grids for H and He will be reduced by one unit

Total number of grid points                  ...    25471
Total number of batches                      ...      226
Average number of points per batch           ...      112
Average number of grid points per atom       ...      606
UseSFitting                                  ... on

GRIDX 2
-------
General Integration Accuracy     IntAcc      ... 4.020
Radial Grid Type                 RadialGrid  ... OptM3 with GC (2021)
Angular Grid (max. ang.)         AngularGrid ... 2 (Lebedev-110)
Angular grid pruning method      GridPruning ... 4 (adaptive)
Weight generation scheme         WeightScheme... mBecke (2022)
Basis function cutoff            BFCut       ... 1.0000e-11
Integration weight cutoff        WCut        ... 1.0000e-14
Partially contracted basis set               ... on
Rotationally invariant grid construction     ... off
Angular grids for H and He will be reduced by one unit

Total number of grid points                  ...    55406
Total number of batches                      ...      457
Average number of points per batch           ...      121
Average number of grid points per atom       ...     1319
UseSFitting                                  ... on

GRIDX 3
-------
General Integration Accuracy     IntAcc      ... 4.338
Radial Grid Type                 RadialGrid  ... OptM3 with GC (2021)
Angular Grid (max. ang.)         AngularGrid ... 3 (Lebedev-194)
Angular grid pruning method      GridPruning ... 4 (adaptive)
Weight generation scheme         WeightScheme... mBecke (2022)
Basis function cutoff            BFCut       ... 1.0000e-11
Integration weight cutoff        WCut        ... 1.0000e-14
Partially contracted basis set               ... on
Rotationally invariant grid construction     ... off
Angular grids for H and He will be reduced by one unit

Total number of grid points                  ...   121115
Total number of batches                      ...      966
Average number of points per batch           ...      125
Average number of grid points per atom       ...     2884
UseSFitting                                  ... on
Initializing property integral containers    ... done (  0.0 sec)

SHARK setup successfully completed in   6.6 seconds

Maximum memory used throughout the entire STARTUP-calculation: 65.3 MB


           ************************************************************
           *        Program running with 40 parallel MPI-processes    *
           *              working on a common directory               *
           ************************************************************
-------------------------------------------------------------------------------
                                 ORCA GUESS
                   Start orbitals & Density for SCF / CASSCF
-------------------------------------------------------------------------------

------------
SCF SETTINGS
------------
Hamiltonian:
 Density Functional     Method          .... DFT(GTOs)
 Exchange Functional    Exchange        .... WB97X-V
 Correlation Functional Correlation     .... WB97X-V
 Gradients option       PostSCFGGA      .... off
 Hybrid DFT is turned on
   Fraction HF Exchange ScalHFX         ....  0.167000
   Scaling of DF-GGA-X  ScalDFX         ....  0.000000
   Scaling of DF-GGA-C  ScalDFC         ....  1.000000
   Scaling of DF-LDA-C  ScalLDAC        ....  1.000000
   Perturbative correction              ....  0.000000
 Long-range corrected/Screened/Range-Separated Hybrid DFT is turned on
   Amount of maximum screened exact exchange              ....  0.833000
   Range separation parameter mu (erf(mu*r12)/r12)        ....  0.300000
   NL short-range parameter             ....  6.000000
   NL long-range parameter              ....  0.010000
 RI-approximation to the Coulomb term is turned on
   Number of AuxJ basis functions       .... 1374
   RIJ-COSX (HFX calculated with COS-X)).... on


General Settings:
 Integral files         IntName         .... ./output/ciprofloxacin/ciprofloxacin
 Hartree-Fock type      HFTyp           .... RHF
 Total Charge           Charge          ....    0
 Multiplicity           Mult            ....    1
 Number of Electrons    NEL             ....  126
 Basis Dimension        Dim             ....  402
 Nuclear Repulsion      ENuc            ....   1062.5131833372 Eh

Convergence Acceleration:
 AO-DIIS                CNVDIIS         .... on
   Start iteration      DIISMaxIt       ....    12
   Startup error        DIISStart       ....  0.200000
   # of expansion vecs  DIISMaxEq       ....     5
   Bias factor          DIISBfac        ....   1.050
   Max. coefficient     DIISMaxC        ....  10.000
 MO-DIIS                CNVKDIIS        .... off
 Trust-Rad. Augm. Hess. CNVTRAH         .... auto
   Auto Start mean grad. ratio tolernc. ....  1.125000
   Auto Start start iteration           ....    50
   Auto Start num. interpolation iter.  ....    10
   Max. Number of Micro iterations      ....    24
   Max. Number of Macro iterations      .... Maxiter - #DIIS iter
   Number of Davidson start vectors     ....     2
   Converg. threshold    (grad. norm)   ....   1.000e-05
   Grad. Scal. Fac. for Micro threshold ....   0.100
   Minimum threshold for Micro iter.    ....   1.000e-02
   NR start threshold (gradient norm)   ....   1.000e-04
   Initial trust radius                 ....   0.400
   Minimum AH scaling param. (alpha)    ....   1.000
   Maximum AH scaling param. (alpha)    .... 1000.000
   Quad. conv. algorithm                .... NR
   White noise on init. David. guess    .... on
   Maximum white noise                  ....   0.010
   Pseudo random numbers                .... off
   Inactive MOs                         .... canonical
   Orbital update algorithm             .... Taylor
   Preconditioner                       .... Diag
   Full preconditioner red. dimension   ....   250
 SOSCF                  CNVSOSCF        .... on
   Start iteration      SOSCFMaxIt      ....   150
   Startup grad/error   SOSCFStart      ....  0.003300
   Hessian update       SOSCFHessUp     .... L-BFGS
 Level Shifting         CNVShift        .... on
   Level shift para.    LevelShift      ....    0.2500
   Turn off err/grad.   ShiftErr        ....    0.0010
 Zerner damping         CNVZerner       .... off
 Static damping         CNVDamp         .... on
   Fraction old density DampFac         ....    0.7000
   Max. Damping (<1)    DampMax         ....    0.9800
   Min. Damping (>=0)   DampMin         ....    0.0000
   Turn off err/grad.   DampErr         ....    0.1000

SCF Procedure:
 Maximum # iterations   MaxIter         ....   125
 SCF integral mode      SCFMode         .... Direct
   Integral package                     .... SHARK and LIBINT hybrid scheme
 Reset frequency        DirectResetFreq ....    20
 Integral Threshold     Thresh          ....  2.500e-11 Eh
 Primitive CutOff       TCut            ....  2.500e-12 Eh

Convergence Tolerance:
 Convergence Check Mode ConvCheckMode   .... Total+1el-Energy
 Convergence forced     ConvForced      .... 0
 Energy Change          TolE            ....  1.000e-08 Eh
 1-El. energy change                    ....  1.000e-05 Eh
 Orbital Gradient       TolG            ....  1.000e-05
 Orbital Rotation angle TolX            ....  1.000e-05
 DIIS Error             TolErr          ....  5.000e-07

------------------------------
INITIAL GUESS: MODEL POTENTIAL
------------------------------
Loading Hartree-Fock densities                     ... done
Atomic calculation to generate a density for atom 0 (F  with ECP)
  Multiplicity assumed   :    2
  Atomic configuration   : 1s2 2s2 2p5 
  Number of open shells  : 1
  Command: /home/aspe232/Project/Software/ORCA/6_0_1/build/orca ./output/ciprofloxacin/ciprofloxacin_atom9.inp "" > ./output/ciprofloxacin/ciprofloxacin_atom9.out
Returned from the atomic calculation with res=0
Atomic calculation to generate a density for atom 1 (O  with ECP)
  Multiplicity assumed   :    3
  Atomic configuration   : 1s2 2s2 2p4 
  Number of open shells  : 1
  Command: /home/aspe232/Project/Software/ORCA/6_0_1/build/orca ./output/ciprofloxacin/ciprofloxacin_atom8.inp "" > ./output/ciprofloxacin/ciprofloxacin_atom8.out
Returned from the atomic calculation with res=0
Atomic calculation to generate a density for atom 4 (N  with ECP)
  Multiplicity assumed   :    4
  Atomic configuration   : 1s2 2s2 2p3 
  Number of open shells  : 1
  Command: /home/aspe232/Project/Software/ORCA/6_0_1/build/orca ./output/ciprofloxacin/ciprofloxacin_atom7.inp "" > ./output/ciprofloxacin/ciprofloxacin_atom7.out
Returned from the atomic calculation with res=0
Atomic calculation to generate a density for atom 7 (C  with ECP)
  Multiplicity assumed   :    1
  Atomic configuration   : 1s2 2s2 2p2 
  Number of open shells  : 1
  Command: /home/aspe232/Project/Software/ORCA/6_0_1/build/orca ./output/ciprofloxacin/ciprofloxacin_atom6.inp "" > ./output/ciprofloxacin/ciprofloxacin_atom6.out
Returned from the atomic calculation with res=0
Calculating cut-offs                               ... done
Initializing the effective Hamiltonian             ... done
Setting up the integral package (SHARK)            ... done
Starting the Coulomb interaction                   ... done (   0.2 sec)
Making the grid                                    ... done (   1.3 sec)
Mapping shells                                     ... done
Starting the XC term evaluation                    ... done (   0.1 sec)
  promolecular density results
     # of electrons  =    173.994715488
     EX              =    -99.459237459
     EC              =     -7.326981876
     EX+EC           =   -106.786219336
Transforming the Hamiltonian                       ... done (   0.0 sec)
Diagonalizing the Hamiltonian                      ... done (   0.0 sec)
Back transforming the eigenvectors                 ... done (   0.0 sec)
Now organizing SCF variables                       ... done
                      ------------------
                      INITIAL GUESS DONE (   3.8 sec)
                      ------------------
             **** ENERGY FILE WAS UPDATED (./output/ciprofloxacin/ciprofloxacin.en.tmp) ****
Finished Guess after   5.0 sec
Maximum memory used throughout the entire GUESS-calculation: 43.1 MB


           ************************************************************
           *        Program running with 40 parallel MPI-processes    *
           *              working on a common directory               *
           ************************************************************

-------------------------------------------------------------------------------------------
                                      ORCA LEAN-SCF
                              memory conserving SCF solver
-------------------------------------------------------------------------------------------

----------------------------------------D-I-I-S--------------------------------------------
Iteration    Energy (Eh)           Delta-E    RMSDP     MaxDP     DIISErr   Damp  Time(sec)
-------------------------------------------------------------------------------------------
               ***  Starting incremental Fock matrix formation  ***
    1    -209.1540789324649268     0.00e+00  3.10e-03  1.01e-01  2.18e-01  0.700  10.9
    2    -209.4630404677586739    -3.09e-01  2.29e-03  6.72e-02  1.12e-01  0.700   7.4
                               ***Turning on AO-DIIS***
    3    -209.6123649318844855    -1.49e-01  1.39e-03  3.64e-02  5.99e-02  0.700   7.4
    4    -209.7025520496522404    -9.02e-02  3.07e-03  7.75e-02  3.91e-02  0.000   7.2
    5    -209.9011786583371304    -1.99e-01  3.05e-04  1.07e-02  4.74e-03  0.000   6.8
    6    -209.9026585825370148    -1.48e-03  1.77e-04  5.92e-03  5.04e-03  0.000   7.2
                              *** Initializing SOSCF ***
---------------------------------------S-O-S-C-F--------------------------------------
Iteration    Energy (Eh)           Delta-E    RMSDP     MaxDP     MaxGrad    Time(sec)
--------------------------------------------------------------------------------------
    7    -209.9032605546317427    -6.02e-04  1.24e-04  3.84e-03  2.08e-03     7.1
               *** Restarting incremental Fock matrix formation ***
    8    -209.9035054151943314    -2.45e-04  8.14e-05  2.65e-03  2.31e-03    10.6
    9    -209.9036180404500556    -1.13e-04  1.17e-04  3.89e-03  1.02e-03     9.6
   10    -209.9036517785250453    -3.37e-05  3.20e-05  2.11e-03  3.66e-04     9.7
   11    -209.9036669735685336    -1.52e-05  1.21e-05  6.88e-04  1.11e-04     9.0
   12    -209.9036674683818546    -4.95e-07  5.44e-06  2.76e-04  7.86e-05     8.8
   13    -209.9036681269267319    -6.59e-07  2.06e-06  7.93e-05  3.05e-05     7.9
   14    -209.9036681657912595    -3.89e-08  1.10e-06  3.69e-05  1.12e-05     7.5
   15    -209.9036681845191197    -1.87e-08  4.92e-07  2.20e-05  4.85e-06     7.1
   16    -209.9036681840816527     4.37e-10  1.82e-07  1.32e-05  3.24e-06     6.7
                 **** Energy Check signals convergence ****

               *****************************************************
               *                     SUCCESS                       *
               *           SCF CONVERGED AFTER  16 CYCLES          *
               *****************************************************

Recomputing exchange energy using gridx3       ... done (   13.645 sec)
Old exchange energy                            :    -25.009138249 Eh
New exchange energy                            :    -25.009182861 Eh
Exchange energy change after final integration :     -0.000044612 Eh
Total energy after final integration           :   -209.903712796 Eh
             **** ENERGY FILE WAS UPDATED (./output/ciprofloxacin/ciprofloxacin.en.tmp) ****

----------------
TOTAL SCF ENERGY
----------------

Total Energy       :       -209.90371279579068 Eh           -5711.77041 eV

Components:
Nuclear Repulsion  :       1062.51318333717973 Eh           28912.45360 eV
Electronic Energy  :      -1272.41685152126138 Eh          -34624.22279 eV
One Electron Energy:      -2441.24544203992582 Eh          -66429.66570 eV
Two Electron Energy:       1168.82859051866444 Eh           31805.44291 eV

Virial components:
Potential Energy   :       -372.75503248942596 Eh          -10143.18010 eV
Kinetic Energy     :        162.85131969363525 Eh            4431.40970 eV
Virial Ratio       :          2.28892853426471

DFT components:
N(Alpha)           :       63.000098691188 electrons
N(Beta)            :       63.000098691188 electrons
N(Total)           :      126.000197382376 electrons
E(X)               :      -29.149949044453 Eh       
E(C)               :       -4.962322382958 Eh       
E(XC)              :      -34.112271427411 Eh       

---------------
SCF CONVERGENCE
---------------

  Last Energy change         ...   -4.3747e-10  Tolerance :   1.0000e-08
  Last MAX-Density change    ...    1.3185e-05  Tolerance :   1.0000e-07
  Last RMS-Density change    ...    1.8209e-07  Tolerance :   5.0000e-09
  Last DIIS Error            ...    2.0771e-03  Tolerance :   5.0000e-07
  Last Orbital Gradient      ...    3.2378e-06  Tolerance :   1.0000e-05
  Last Orbital Rotation      ...    3.7173e-06  Tolerance :   1.0000e-05


----------------
ORBITAL ENERGIES
----------------

  NO   OCC          E(Eh)            E(eV) 
   0   2.0000      -1.353894       -36.8413 
   1   2.0000      -1.191858       -32.4321 
   2   2.0000      -1.164382       -31.6844 
   3   2.0000      -1.119678       -30.4680 
   4   2.0000      -1.100740       -29.9527 
   5   2.0000      -1.089589       -29.6492 
   6   2.0000      -1.041093       -28.3296 
   7   2.0000      -1.032434       -28.0939 
   8   2.0000      -1.001998       -27.2658 
   9   2.0000      -0.952635       -25.9225 
  10   2.0000      -0.919517       -25.0213 
  11   2.0000      -0.912063       -24.8185 
  12   2.0000      -0.906145       -24.6575 
  13   2.0000      -0.835365       -22.7314 
  14   2.0000      -0.818233       -22.2653 
  15   2.0000      -0.801143       -21.8002 
  16   2.0000      -0.785991       -21.3879 
  17   2.0000      -0.777850       -21.1664 
  18   2.0000      -0.759775       -20.6745 
  19   2.0000      -0.739844       -20.1322 
  20   2.0000      -0.728758       -19.8305 
  21   2.0000      -0.696624       -18.9561 
  22   2.0000      -0.690736       -18.7959 
  23   2.0000      -0.683332       -18.5944 
  24   2.0000      -0.667412       -18.1612 
  25   2.0000      -0.649400       -17.6711 
  26   2.0000      -0.634784       -17.2733 
  27   2.0000      -0.628440       -17.1007 
  28   2.0000      -0.620509       -16.8849 
  29   2.0000      -0.609780       -16.5930 
  30   2.0000      -0.602845       -16.4042 
  31   2.0000      -0.590324       -16.0635 
  32   2.0000      -0.586199       -15.9513 
  33   2.0000      -0.580229       -15.7888 
  34   2.0000      -0.576881       -15.6977 
  35   2.0000      -0.569718       -15.5028 
  36   2.0000      -0.564011       -15.3475 
  37   2.0000      -0.556204       -15.1351 
  38   2.0000      -0.548180       -14.9167 
  39   2.0000      -0.541142       -14.7252 
  40   2.0000      -0.538926       -14.6649 
  41   2.0000      -0.534029       -14.5317 
  42   2.0000      -0.514669       -14.0048 
  43   2.0000      -0.511850       -13.9281 
  44   2.0000      -0.504582       -13.7304 
  45   2.0000      -0.501359       -13.6427 
  46   2.0000      -0.499282       -13.5861 
  47   2.0000      -0.493662       -13.4332 
  48   2.0000      -0.484370       -13.1804 
  49   2.0000      -0.473515       -12.8850 
  50   2.0000      -0.468538       -12.7496 
  51   2.0000      -0.460303       -12.5255 
  52   2.0000      -0.452363       -12.3094 
  53   2.0000      -0.443258       -12.0617 
  54   2.0000      -0.434558       -11.8249 
  55   2.0000      -0.415675       -11.3111 
  56   2.0000      -0.379915       -10.3380 
  57   2.0000      -0.377989       -10.2856 
  58   2.0000      -0.367498       -10.0001 
  59   2.0000      -0.339869        -9.2483 
  60   2.0000      -0.338827        -9.2199 
  61   2.0000      -0.319548        -8.6953 
  62   2.0000      -0.305520        -8.3136 
  63   0.0000       0.001213         0.0330 
  64   0.0000       0.014126         0.3844 
  65   0.0000       0.058046         1.5795 
  66   0.0000       0.068363         1.8603 
  67   0.0000       0.075831         2.0635 
  68   0.0000       0.081731         2.2240 
  69   0.0000       0.084187         2.2909 
  70   0.0000       0.088911         2.4194 
  71   0.0000       0.098817         2.6890 
  72   0.0000       0.100050         2.7225 
  73   0.0000       0.108753         2.9593 
*Only the first 10 virtual orbitals were printed.

                    ********************************
                    * MULLIKEN POPULATION ANALYSIS *
                    ********************************

-----------------------
MULLIKEN ATOMIC CHARGES
-----------------------
   0 F :   -0.235079
   1 O :   -0.401684
   2 O :   -0.223432
   3 O :   -0.394157
   4 N :   -0.188710
   5 N :   -0.349343
   6 N :   -0.269737
   7 C :   -0.016124
   8 C :   -0.073053
   9 C :   -0.060091
  10 C :    0.135173
  11 C :    0.182981
  12 C :   -0.075552
  13 C :   -0.009995
  14 C :    0.013593
  15 C :    0.043937
  16 C :    0.078498
  17 C :   -0.089252
  18 C :    0.198122
  19 C :    0.030647
  20 C :   -0.002743
  21 C :    0.067720
  22 C :    0.204950
  23 C :    0.251007
  24 H :    0.205536
  25 H :    0.106081
  26 H :    0.073764
  27 H :    0.085431
  28 H :    0.061423
  29 H :    0.082722
  30 H :    0.066035
  31 H :    0.065519
  32 H :    0.023111
  33 H :    0.033028
  34 H :    0.076971
  35 H :    0.027204
  36 H :    0.057296
  37 H :    0.026867
  38 H :    0.060845
  39 H :    0.019191
  40 H :    0.057809
  41 H :    0.053490
Sum of atomic charges:    0.0000000

--------------------------------
MULLIKEN REDUCED ORBITAL CHARGES
--------------------------------
  0 F s       :     1.889822  s :     1.889822
      pz      :     1.846933  p :     5.322327
      px      :     1.683719
      py      :     1.791675
      dz2     :     0.003254  d :     0.022929
      dxz     :     0.005356
      dyz     :     0.002889
      dx2y2   :     0.004549
      dxy     :     0.006881

  1 O s       :     1.801518  s :     1.801518
      pz      :     1.393182  p :     4.566412
      px      :     1.835679
      py      :     1.337551
      dz2     :     0.007468  d :     0.033754
      dxz     :     0.002653
      dyz     :     0.009939
      dx2y2   :     0.008081
      dxy     :     0.005614

  2 O s       :     1.613633  s :     1.613633
      pz      :     1.689625  p :     4.582769
      px      :     1.421493
      py      :     1.471651
      dz2     :     0.005137  d :     0.027030
      dxz     :     0.001125
      dyz     :     0.006578
      dx2y2   :     0.011874
      dxy     :     0.002317

  3 O s       :     1.791332  s :     1.791332
      pz      :     1.479247  p :     4.569679
      px      :     1.526978
      py      :     1.563454
      dz2     :     0.005185  d :     0.033146
      dxz     :     0.007968
      dyz     :     0.004166
      dx2y2   :     0.006314
      dxy     :     0.009513

  4 N s       :     1.286008  s :     1.286008
      pz      :     1.477241  p :     3.825260
      px      :     1.116935
      py      :     1.231085
      dz2     :     0.008590  d :     0.077442
      dxz     :     0.016283
      dyz     :     0.009775
      dx2y2   :     0.019567
      dxy     :     0.023227

  5 N s       :     1.325420  s :     1.325420
      pz      :     1.647681  p :     3.960770
      px      :     1.125832
      py      :     1.187258
      dz2     :     0.007796  d :     0.063152
      dxz     :     0.010167
      dyz     :     0.009206
      dx2y2   :     0.019019
      dxy     :     0.016963

  6 N s       :     1.401331  s :     1.401331
      pz      :     1.566795  p :     3.812166
      px      :     1.184288
      py      :     1.061084
      dz2     :     0.008249  d :     0.056240
      dxz     :     0.004337
      dyz     :     0.017399
      dx2y2   :     0.018145
      dxy     :     0.008109

  7 C s       :     1.061625  s :     1.061625
      pz      :     0.959559  p :     2.812592
      px      :     1.115432
      py      :     0.737601
[...]
 95:   1515.85   0.001723    8.71  0.000355  ( 0.003402  0.017945 -0.004593)
 96:   1534.87   0.010530   53.22  0.002141  ( 0.045060  0.010513  0.000278)
 97:   1538.33   0.004419   22.33  0.000896  ( 0.025806 -0.004096 -0.014621)
 98:   1546.78   0.002646   13.37  0.000534  (-0.022080 -0.005386 -0.004150)
 99:   1556.58   0.006958   35.16  0.001395  ( 0.002932 -0.037174  0.002097)
100:   1560.40   0.012276   62.04  0.002455  (-0.046881  0.015486 -0.004170)
101:   1564.90   0.026593  134.39  0.005303  ( 0.070584 -0.010842  0.014260)
102:   1604.26   0.138969  702.29  0.027032  (-0.163908 -0.005545  0.011662)
103:   1654.37   0.005397   27.28  0.001018  ( 0.021677  0.022822 -0.005228)
104:   1709.70   0.008556   43.24  0.001562  (-0.031895 -0.023174  0.002714)
105:   1734.00   0.129768  655.79  0.023354  (-0.139384 -0.053430  0.032729)
106:   1800.67   0.075538  381.74  0.013091  ( 0.058313  0.089511 -0.040968)
107:   1834.62   0.111263  562.28  0.018926  ( 0.063723 -0.113490  0.044552)
108:   3023.50   0.004150   20.97  0.000428  ( 0.013757 -0.000757 -0.015443)
109:   3040.37   0.018160   91.77  0.001864  ( 0.002777  0.027974 -0.032767)
110:   3057.49   0.010804   54.60  0.001103  (-0.023347  0.023197 -0.004417)
111:   3077.19   0.023692  119.73  0.002403  ( 0.033759 -0.011338 -0.033682)
112:   3139.32   0.003075   15.54  0.000306  ( 0.005904 -0.002896 -0.016199)
113:   3148.03   0.004454   22.51  0.000442  (-0.007304 -0.007512  0.018214)
114:   3168.69   0.004102   20.73  0.000404  (-0.003642 -0.018547 -0.006838)
115:   3209.46   0.000705    3.56  0.000069  ( 0.006058 -0.000979  0.005558)
116:   3213.69   0.001617    8.17  0.000157  (-0.007548 -0.004996  0.008668)
117:   3221.81   0.000998    5.04  0.000097  ( 0.000290  0.007422 -0.006441)
118:   3258.15   0.000463    2.34  0.000044  ( 0.005046 -0.003236 -0.002894)
119:   3287.20   0.001758    8.88  0.000167  ( 0.009858  0.007531 -0.003604)
120:   3298.13   0.001026    5.18  0.000097  ( 0.009289 -0.003247  0.000501)
121:   3308.67   0.000256    1.30  0.000024  ( 0.004743  0.001289  0.000163)
122:   3319.98   0.000248    1.25  0.000023  ( 0.001279 -0.004546  0.001007)
123:   3330.94   0.000266    1.34  0.000025  ( 0.004648 -0.000012 -0.001813)
124:   3678.77   0.002461   12.44  0.000209  ( 0.013767  0.003293  0.002897)
125:   3880.60   0.030232  152.78  0.002431  (-0.046926 -0.014496  0.004355)

* The epsilon (eps) is given for a Dirac delta lineshape.
** The dipole moment derivative (T) already includes vibrational overlap.

The first frequency considered to be a vibration is 6
The total number of vibrations considered is 120


--------------------------
THERMOCHEMISTRY AT 298.15K
--------------------------

Temperature         ...   298.15 K
Pressure            ...     1.00 atm
Total Mass          ...   331.35 AMU
Quasi RRHO          ...     True
Cut-Off Frequency   ...     1.00 cm^-1

Throughout the following assumptions are being made:
  (1) The electronic state is orbitally nondegenerate
  (2) There are no thermally accessible electronically excited states
  (3) Hindered rotations indicated by low frequency modes are not
      treated as such but are treated as vibrations and this may
      cause some error
  (4) All equations used are the standard statistical mechanics
      equations for an ideal gas
  (5) All vibrations are strictly harmonic

freq.      24.08  E(vib)   ...       0.56 
freq.      32.50  E(vib)   ...       0.55 
freq.      42.44  E(vib)   ...       0.53 
freq.      46.69  E(vib)   ...       0.53 
freq.      65.69  E(vib)   ...       0.50 
freq.      83.85  E(vib)   ...       0.48 
freq.      91.01  E(vib)   ...       0.47 
freq.     114.52  E(vib)   ...       0.44 
freq.     150.34  E(vib)   ...       0.40 
freq.     154.29  E(vib)   ...       0.40 
freq.     175.01  E(vib)   ...       0.38 
freq.     197.94  E(vib)   ...       0.35 
freq.     211.06  E(vib)   ...       0.34 
freq.     242.65  E(vib)   ...       0.31 
freq.     280.78  E(vib)   ...       0.28 
freq.     288.24  E(vib)   ...       0.27 
freq.     300.07  E(vib)   ...       0.26 
freq.     320.82  E(vib)   ...       0.25 
freq.     343.54  E(vib)   ...       0.23 
freq.     365.07  E(vib)   ...       0.22 
freq.     387.74  E(vib)   ...       0.20 
freq.     393.93  E(vib)   ...       0.20 
freq.     410.21  E(vib)   ...       0.19 
freq.     411.64  E(vib)   ...       0.19 
freq.     473.44  E(vib)   ...       0.15 
freq.     477.52  E(vib)   ...       0.15 
freq.     507.38  E(vib)   ...       0.14 
freq.     526.70  E(vib)   ...       0.13 
freq.     543.34  E(vib)   ...       0.12 
freq.     559.89  E(vib)   ...       0.12 
freq.     572.23  E(vib)   ...       0.11 
freq.     617.40  E(vib)   ...       0.09 
freq.     638.78  E(vib)   ...       0.09 
freq.     655.58  E(vib)   ...       0.08 
freq.     690.23  E(vib)   ...       0.07 
freq.     705.35  E(vib)   ...       0.07 
freq.     736.92  E(vib)   ...       0.06 
freq.     740.08  E(vib)   ...       0.06 
freq.     756.81  E(vib)   ...       0.06 
freq.     778.61  E(vib)   ...       0.05 
freq.     794.00  E(vib)   ...       0.05 
freq.     805.65  E(vib)   ...       0.05 
freq.     818.42  E(vib)   ...       0.05 
freq.     842.72  E(vib)   ...       0.04 
freq.     861.46  E(vib)   ...       0.04 
freq.     869.07  E(vib)   ...       0.04 
freq.     871.45  E(vib)   ...       0.04 
freq.     895.97  E(vib)   ...       0.03 
freq.     929.90  E(vib)   ...       0.03 
freq.     951.74  E(vib)   ...       0.03 
freq.     963.24  E(vib)   ...       0.03 
freq.     978.75  E(vib)   ...       0.03 
freq.    1001.43  E(vib)   ...       0.02 
freq.    1020.09  E(vib)   ...       0.02 
freq.    1029.46  E(vib)   ...       0.02 
freq.    1039.05  E(vib)   ...       0.02 
freq.    1076.71  E(vib)   ...       0.02 
freq.    1092.34  E(vib)   ...       0.02 
freq.    1103.93  E(vib)   ...       0.02 
freq.    1114.43  E(vib)   ...       0.01 
freq.    1123.42  E(vib)   ...       0.01 
freq.    1148.65  E(vib)   ...       0.01 
freq.    1160.06  E(vib)   ...       0.01 
freq.    1169.89  E(vib)   ...       0.01 
freq.    1184.10  E(vib)   ...       0.01 
freq.    1215.46  E(vib)   ...       0.01 
freq.    1218.99  E(vib)   ...       0.01 
freq.    1223.66  E(vib)   ...       0.01 
freq.    1239.59  E(vib)   ...       0.01 
freq.    1244.26  E(vib)   ...       0.01 
freq.    1257.45  E(vib)   ...       0.01 
freq.    1275.12  E(vib)   ...       0.01 
freq.    1287.33  E(vib)   ...       0.01 
freq.    1299.11  E(vib)   ...       0.01 
freq.    1302.29  E(vib)   ...       0.01 
freq.    1319.62  E(vib)   ...       0.01 
freq.    1323.53  E(vib)   ...       0.01 
freq.    1357.10  E(vib)   ...       0.01 
freq.    1374.56  E(vib)   ...       0.01 
freq.    1395.37  E(vib)   ...       0.00 
freq.    1404.72  E(vib)   ...       0.00 
freq.    1410.63  E(vib)   ...       0.00 
freq.    1432.95  E(vib)   ...       0.00 
freq.    1449.15  E(vib)   ...       0.00 
freq.    1457.12  E(vib)   ...       0.00 
freq.    1464.98  E(vib)   ...       0.00 
freq.    1470.48  E(vib)   ...       0.00 
freq.    1487.26  E(vib)   ...       0.00 
freq.    1490.25  E(vib)   ...       0.00 
freq.    1515.85  E(vib)   ...       0.00 
freq.    1534.87  E(vib)   ...       0.00 
freq.    1538.33  E(vib)   ...       0.00 
freq.    1546.78  E(vib)   ...       0.00 
freq.    1556.58  E(vib)   ...       0.00 
freq.    1560.40  E(vib)   ...       0.00 
freq.    1564.90  E(vib)   ...       0.00 
freq.    1604.26  E(vib)   ...       0.00 
freq.    1654.37  E(vib)   ...       0.00 
freq.    1709.70  E(vib)   ...       0.00 
freq.    1734.00  E(vib)   ...       0.00 
freq.    1800.67  E(vib)   ...       0.00 
freq.    1834.62  E(vib)   ...       0.00 
freq.    3023.50  E(vib)   ...       0.00 
freq.    3040.37  E(vib)   ...       0.00 
freq.    3057.49  E(vib)   ...       0.00 
freq.    3077.19  E(vib)   ...       0.00 
freq.    3139.32  E(vib)   ...       0.00 
freq.    3148.03  E(vib)   ...       0.00 
freq.    3168.69  E(vib)   ...       0.00 
freq.    3209.46  E(vib)   ...       0.00 
freq.    3213.69  E(vib)   ...       0.00 
freq.    3221.81  E(vib)   ...       0.00 
freq.    3258.15  E(vib)   ...       0.00 
freq.    3287.20  E(vib)   ...       0.00 
freq.    3298.13  E(vib)   ...       0.00 
freq.    3308.67  E(vib)   ...       0.00 
freq.    3319.98  E(vib)   ...       0.00 
freq.    3330.94  E(vib)   ...       0.00 
freq.    3678.77  E(vib)   ...       0.00 
freq.    3880.60  E(vib)   ...       0.00 

------------
INNER ENERGY
------------

The inner energy is: U= E(el) + E(ZPE) + E(vib) + E(rot) + E(trans)
    E(el)   - is the total energy from the electronic structure calculation
              = E(kin-el) + E(nuc-el) + E(el-el) + E(nuc-nuc)
    E(ZPE)  - the the zero temperature vibrational energy from the frequency calculation
    E(vib)  - the the finite temperature correction to E(ZPE) due to population
              of excited vibrational states
    E(rot)  - is the rotational thermal energy
    E(trans)- is the translational thermal energy

Summary of contributions to the inner energy U:
Electronic energy                ...   -210.03174911 Eh
Zero point energy                ...      0.34668825 Eh     217.55 kcal/mol
Thermal vibrational correction   ...      0.01741663 Eh      10.93 kcal/mol
Thermal rotational correction    ...      0.00141627 Eh       0.89 kcal/mol
Thermal translational correction ...      0.00141627 Eh       0.89 kcal/mol
-----------------------------------------------------------------------
Total thermal energy                   -209.66481169 Eh


Summary of corrections to the electronic energy:
(perhaps to be used in another calculation)
Total thermal correction                  0.02024917 Eh      12.71 kcal/mol
Non-thermal (ZPE) correction              0.34668825 Eh     217.55 kcal/mol
-----------------------------------------------------------------------
Total correction                          0.36693742 Eh     230.26 kcal/mol


--------
ENTHALPY
--------

The enthalpy is H = U + kB*T
                kB is Boltzmann's constant
Total thermal energy              ...   -209.66481169 Eh 
Thermal Enthalpy correction       ...      0.00094421 Eh       0.59 kcal/mol
-----------------------------------------------------------------------
Total Enthalpy                    ...   -209.66386748 Eh


Note: Only C1 symmetry has been detected, increase convergence thresholds 
      if your molecule has a higher symmetry. Symmetry factor of 1.0 is   
      used for the rotational entropy correction. 
 

Note: Rotational entropy computed according to Herzberg 
Infrared and Raman Spectra, Chapter V,1, Van Nostrand Reinhold, 1945 
Point Group:  C1, Symmetry Number:   1  
Rotational constants in cm-1:     0.015797     0.004461     0.003550 

Vibrational entropy computed according to the QRRHO of S. Grimme
Chem.Eur.J. 2012 18 9955 using a reference frequency of 100.0 cm-1


-------
ENTROPY
-------

The entropy contributions are T*S = T*(S(el)+S(vib)+S(rot)+S(trans))
     S(el)   - electronic entropy
     S(vib)  - vibrational entropy
     S(rot)  - rotational entropy
     S(trans)- translational entropy
The entropies will be listed as multiplied by the temperature to get
units of energy

Electronic entropy                ...      0.00000000 Eh      0.00 kcal/mol
Vibrational entropy               ...      0.03067112 Eh     19.25 kcal/mol
Rotational entropy                ...      0.01668705 Eh     10.47 kcal/mol
Translational entropy             ...      0.02056793 Eh     12.91 kcal/mol
-----------------------------------------------------------------------
Final entropy term                ...      0.06792610 Eh     42.62 kcal/mol

In case the symmetry of your molecule has not been determined correctly
or in case you have a reason to use a different symmetry number we print 
out the resulting rotational entropy values for sn=1,12:

 non-linear molecules -----------------------------------
|  sn= 1 | S(rot)=       0.01668705 Eh     10.47 kcal/mol|
|  sn= 2 | S(rot)=       0.01603259 Eh     10.06 kcal/mol|
|  sn= 3 | S(rot)=       0.01564976 Eh      9.82 kcal/mol|
|  sn= 4 | S(rot)=       0.01537814 Eh      9.65 kcal/mol|
|  sn= 5 | S(rot)=       0.01516745 Eh      9.52 kcal/mol|
|  sn= 6 | S(rot)=       0.01499530 Eh      9.41 kcal/mol|
|  sn= 7 | S(rot)=       0.01484976 Eh      9.32 kcal/mol|
|  sn= 8 | S(rot)=       0.01472368 Eh      9.24 kcal/mol|
|  sn= 9 | S(rot)=       0.01461247 Eh      9.17 kcal/mol|
|  sn=10 | S(rot)=       0.01451299 Eh      9.11 kcal/mol|
|  sn=11 | S(rot)=       0.01442300 Eh      9.05 kcal/mol|
|  sn=12 | S(rot)=       0.01434085 Eh      9.00 kcal/mol|
 linear molecules ---------------------------------------
|  Dinfh | S(rot)=       0.01065165 Eh      6.68 kcal/mol|
|  Cinfv | S(rot)=       0.01130611 Eh      7.09 kcal/mol|
 --------------------------------------------------------


-------------------
GIBBS FREE ENERGY
-------------------

The Gibbs free energy is G = H - T*S

Total enthalpy                    ...   -209.66386748 Eh 
Total entropy correction          ...     -0.06792610 Eh    -42.62 kcal/mol
-----------------------------------------------------------------------
Final Gibbs free energy         ...   -209.73179358 Eh

For completeness - the Gibbs free energy minus the electronic energy
G-E(el)                           ...      0.29995553 Eh    188.22 kcal/mol


Maximum memory used throughout the entire PROP-calculation: 328.0 MB

--------------------------------
SUGGESTED CITATIONS FOR THIS RUN
--------------------------------

Below you find a list of papers that are relevant to this ORCA run
We neither can nor want to force you to cite these papers, but we appreciate if you do
You receive ORCA, which is the product of decades of hard work by many enthusiastic individuals, for free
The only thing we kindly ask in return is that you cite our papers,
We deeply appreciate it, if you show your appreciation for ORCA by not just citing the generic ORCA reference.

Please note that relegating all ORCA citations to the supporting information does *not* help us.
SI sections are not indexed - citations you put there will not count into any citation statistics
But we need these citations in order to attract the funding resources that allow us to do what we are doing

Therefore, if you are a happy ORCA user, please consider citing a few of the papers listed below in the main body of your paper

In addition to the list printed below, the program has created the file ./output/ciprofloxacin/ciprofloxacin.bibtex that contains the list in bibtex format
You can import this file easily into all common literature databanks and citation aid programs


List of essential papers. We consider these as the minimum necessary citations

  1. Neese,F.
     Software update: the ORCA program system, version 5.0
     WIRES Comput. Molec. Sci., 2022 12(1)e1606
     doi.org/10.1002/wcms.1606
  2. Mueller,M.; Hansen,A.; Grimme,S.
     wB97X-3c: A composite range-separated hybrid DFT method with a molecule-optimized polarized valence double-zeta basis set
     J. Chem. Phys., 2023 158 014103
     doi.org/10.1063/5.0133026

List of papers to cite with high priority. The work reported in these papers was absolutely
necessary for this run to complete.
Our perspective: the developers of density functionals and basis sets usually get cited in chemistry papers
Good! But without the algorithms to do something with them, the functionals or basis sets would not do anything.
Hence, in our opinion, the algorithm design and method developments papers are equally worthy of getting cited

  1. Neese,F.
     An improvement of the resolution of the identity approximation for the formation of the Coulomb matrix
     J. Comp. Chem., 2003 24(14)1740-1747
     doi.org/10.1002/jcc.10318
  2. Neese,F.; Wennmohs,F.; Hansen,A.; Becker,U.
     Efficient, approximate and parallel Hartree-Fock and hybrid DFT calculations. A 'chain-of-spheres' algorithm for the Hartree-Fock exchange
     Chem. Phys., 2009 356(1-3)98-109
     doi.org/10.1016/j.chemphys.2008.10.036
  3. Bykov,D.; Petrenko,T.; Izsak,R.; Kossmann,S.; Becker,U.; Valeev,E.; Neese,F.
     Efficient implementation of the analytic second derivatives of Hartree-Fock and hybrid DFT energies: a detailed analysis of different approximations
     Molec. Phys., 2015 113 1961-1977
     doi.org/10.1080/00268976.2015.1025114
  4. Helmich-Paris,B.; de Souza,B.; Neese,F.; Izsák,R.
     An improved chain of spheres for exchange algorithm
     J. Chem. Phys., 2021 155 104109
     doi.org/doi: 10.1063/5.0058766.
  5. Neese,F.
     The SHARK Integral Generation and Digestion System
     J. Comp. Chem., 2022  1-16
     doi.org/10.1002/jcc.26942
  6. Caldeweyher,E.; Bannwarth,C.; Grimme,S.
     Extension of the D3 dispersion coefficient model
     J. Chem. Phys., 2017 147 034112
     doi.org/10.1063/1.4993215
  7. Caldeweyher,E.; Ehlert,S.; Hansen,A.; Neugebauer,H.; Spicher,S.; Bannwarth,C.; Grimme,S.
     A generally applicable atomic-charge dependent London dispersion correction
     J. Chem. Phys., 2019 150 154122
     doi.org/10.1063/1.5090222
  8. Caldeweyher,E.; Mewes,J.; Ehlert,S.; Grimme,S.
     Extension and evaluation of the D4 London-dispersion model for periodic systems
     Phys. Chem. Chem. Phys., 2020 22(16)8499-8512
     doi.org/10.1039/D0CP00502A
  9. Wittmann,L.; Gordiy,I.; Friede,M.; Helmich-Paris,B.; Grimme,S.; Hansen,A.; Bursch,M.
     Extension of the D3 and D4 London Dispersion Corrections to the full Actinides Series
     Phys. Chem. Chem. Phys., 2024 26(32)21379-21394
     doi.org/https://doi.org/10.1039/D4CP01514B 

List of suggested additional citations. These are papers that are important in the 'surrounding' of 
of this run, or papers that preceded the highly important papers. If you like your results we are grateful for a citation.

  1. Izsak,R.; Neese,F.
     An overlap fitted chain of spheres exchange method
     J. Chem. Phys., 2011 135 144105
     doi.org/10.1063/1.3646921
  2. Izsak,R.; Hansen,A.; Neese,F.
     The resolution of identity and chain of spheres approximations for the LPNO-CCSD singles Fock term
     Molec. Phys., 2012 110 2413-2417
     doi.org/10.1080/00268976.2012.687466
  3. Neese,F.
     The ORCA program system
     WIRES Comput. Molec. Sci., 2012 2(1)73-78
     doi.org/10.1002/wcms.81
  4. Izsak,R.; Neese,F.; Klopper,W.
     Robust fitting techniques in the chain of spheres approximation to the Fock exchange: The role of the complementary space
     J. Chem. Phys., 2013 139 
     doi.org/10.1063/1.4819264
  5. Neese,F.
     Software update: the ORCA program system, version 4.0
     WIRES Comput. Molec. Sci., 2018 8(1)1-6
     doi.org/10.1002/wcms.1327
  6. Neese,F.; Wennmohs,F.; Becker,U.; Riplinger,C.
     The ORCA quantum chemistry program package
     J. Chem. Phys., 2020 152 Art. No. L224108
     doi.org/10.1063/5.0004608

List of optional additional citations

  1. Neese,F.
     Approximate second-order SCF convergence for spin unrestricted wavefunctions
     Chem. Phys. Lett., 2000 325(1-3)93-98
     doi.org/10.1016/s0009-2614(00)00662-x

Timings for individual modules:

Sum of individual times          ...     2634.465 sec (=  43.908 min)
Startup calculation              ...       98.389 sec (=   1.640 min)   3.7 %
SCF iterations                   ...     1465.307 sec (=  24.422 min)  55.6 %
Property integrals               ...      203.704 sec (=   3.395 min)   7.7 %
SCF Response                     ...      191.900 sec (=   3.198 min)   7.3 %
Property calculations            ...      380.914 sec (=   6.349 min)  14.5 %
SCF Gradient evaluation          ...      293.805 sec (=   4.897 min)  11.2 %
Geometry relaxation              ...        0.446 sec (=   0.007 min)   0.0 %
                             ****ORCA TERMINATED NORMALLY****
TOTAL RUN TIME: 0 days 0 hours 44 minutes 1 seconds 458 msec
