
                                 *****************
                                 * O   R   C   A *
                                 *****************

                                            #,                                       
                                            ###                                      
                                            ####                                     
                                            #####                                    
                                            ######                                   
                                           ########,                                 
                                     ,,################,,,,,                         
                               ,,#################################,,                 
                          ,,##########################################,,             
                       ,#########################################, ''#####,          
                    ,#############################################,,   '####,        
                  ,##################################################,,,,####,       
                ,###########''''           ''''###############################       
              ,#####''   ,,,,##########,,,,          '''####'''          '####       
            ,##' ,,,,###########################,,,                        '##       
           ' ,,###''''                  '''############,,,                           
         ,,##''                                '''############,,,,        ,,,,,,###''
      ,#''                                            '''#######################'''  
     '                                                          ''''####''''         
             ,#######,   #######,   ,#######,      ##                                
            ,#'     '#,  ##    ##  ,#'     '#,    #''#        ,####,   ,####,        
            ##       ##  ##   ,#'  ##            #'  '#       #'       #'  '#        
            ##       ##  #######   ##           ,######,      #####,   #    #        
            '#,     ,#'  ##    ##  '#,     ,#' ,#      #,     #,   #   #,  ,#        
             '#######'   ##     ##  '#######'  #'      '#     '####' # '####'        



                #########################################################
                #                        -***-                          #
                #          Department of theory and spectroscopy        #
                #                                                       #
                #                      Frank Neese                      #
                #                                                       #
                #     Directorship, Architecture, Infrastructure        #
                #                    SHARK, DRIVERS                     #
                #        Core code/Algorithms in most modules           #
                #                                                       #
                #        Max Planck Institute fuer Kohlenforschung      #
                #                Kaiser Wilhelm Platz 1                 #
                #                 D-45470 Muelheim/Ruhr                 #
                #                      Germany                          #
                #                                                       #
                #                  All rights reserved                  #
                #                        -***-                          #
                #########################################################


                         Program Version 6.0.1  -  RELEASE   -


 With contributions from (in alphabetic order):
[Max-Planck-Institut fuer Kohlenforschung]                               
  Daniel Aravena         : Magnetic Suceptibility                        
  Michael Atanasov       : Ab Initio Ligand Field Theory (pilot matlab implementation)
  Alexander A. Auer      : GIAO ZORA, VPT2 properties, NMR spectrum      
  Ute Becker             : All parallelization in ORCA, NUMFREQ, NUMCALC 
  Giovanni Bistoni       : ED, misc. LED, open-shell LED, HFLD           
  Martin Brehm           : Molecular dynamics                            
  Dmytro Bykov           : pre 5.0 version of the SCF Hessian            
  Marcos Casanova-Páez   : Triplet and SCS-CIS(D). UHF-(DLPNO)-IP/EA/STEOM-CCSD. UHF-CVS-IP/STEOM-CCSD   
  Vijay G. Chilkuri      : MRCI spin determinant printing, contributions to CSF-ICE 
  Pauline Colinet        : FMM embedding                                 
  Dipayan Datta          : RHF DLPNO-CCSD density                        
  Achintya Kumar Dutta   : EOM-CC, STEOM-CC                              
  Nicolas Foglia         : Exact transition moments, OPA infrastructure, MCD improvements    
  Dmitry Ganyushin       : Spin-Orbit,Spin-Spin,Magnetic field MRCI      
  Miquel Garcia-Rates    : C-PCM and meta-GGA Hessian, CCSD/C-PCM, Gaussian charge scheme 
  Tiago L. C. Gouveia    : GS-ROHF, GS-ROCIS                             
  Yang Guo               : DLPNO-NEVPT2, F12-NEVPT2, CIM, IAO-localization        
  Andreas Hansen         : Spin unrestricted coupled pair/coupled cluster methods 
  Ingolf Harden          : AUTO-CI MPn and infrastructure                
  Benjamin Helmich-Paris : MC-RPA, TRAH-(SCF,CASSCF), AVAS, COSX integrals, SCF dyn. polar. 
  Lee Huntington         : MR-EOM, pCC                                   
  Robert Izsak           : Overlap fitted RIJCOSX, COSX-SCS-MP3, EOM     
  Riya Kayal             : Wick's Theorem for AUTO-CI, AUTO-CI UHF-CCSDT 
  Emily Kempfer          : AUTO-CI, RHF CISDT and CCSDT                  
  Christian Kollmar      : KDIIS, OOCD, Brueckner-CCSD(T), CCSD density, CASPT2, CASPT2-K, improved NEVPT2 
  Axel Koslowski         : Symmetry handling                             
  Simone Kossmann        : meta-GGA functionals, TD-DFT gradient, OOMP2, (MP2 Hessian; deprecated post 5.0) 
  Lucas Lang             : DCDCAS                                        
  Marvin Lechner         : AUTO-CI (C++ implementation), FIC-MRCC        
  Spencer Leger          : CASSCF response                               
  Dagmar Lenk            : GEPOL surface, SMD, ORCA-2-JSON               
  Dimitrios Liakos       : Extrapolation schemes; Compound Job, initial MDCI parallelization 
  Dimitrios Manganas     : Further ROCIS development; embedding schemes. LFT, Crystal Embedding 
  Dimitrios Pantazis     : SARC Basis sets                               
  Anastasios Papadopoulos: AUTO-CI, single reference methods and gradients 
  Taras Petrenko         : pre 6.0 DFT Hessian and TD-DFT gradient, (ASA, deprecated), ECA, 1-Electron XAS/XES, NRVS 
  Peter Pinski           : DLPNO-MP2, DLPNO-MP2 Gradient                 
  Christoph Reimann      : Effective Core Potentials                     
  Marius Retegan         : Local ZFS, SOC                                
  Christoph Riplinger    : Optimizer, TS searches, QM/MM, DLPNO-CCSD(T), (RO)-DLPNO pert. Triples 
  Michael Roemelt        : Original ROCIS implementation                 
  Masaaki Saitow         : Open-shell DLPNO-CCSD energy and density      
  Barbara Sandhoefer     : DKH picture change effects                    
  Kantharuban Sivalingam : CASSCF convergence/infrastructure, NEVPT2 and variants, FIC-MRCI 
  Bernardo de Souza      : ESD, SOC TD-DFT                               
  Georgi L. Stoychev     : AutoAux, RI-MP2 NMR, DLPNO-MP2 response, X2C  
  Van Anh Tran           : RI-MP2 g-tensors                              
  Willem Van den Heuvel  : Paramagnetic NMR                              
  Zikuan Wang            : NOTCH, Electric field optimization            
  Frank Wennmohs         : Technical directorship and infrastructure     
  Hang Xu                : AUTO-CI-Response properties                   
                                                                         
[FACCTs GmbH]                                                            
  Markus Bursch, Miquel Garcia-Rates, Christoph Riplinger, Bernardo de Souza, Georgi L. Stoychev 
                                                                 
  APM, Basis sets (HGBS, AHGBS, def-TZVP (Ac-Lr), def2-XVPD (La-Lu)), CI-OPT, improved COSX, DLPNO-Multilevel,           
  DOCKER, DRACO, updates on ESD, GOAT, IRC, LR-CPCM, MBIS, meta-GGA TD-DFT gradient, ML-optimized integration grids, 
  MM, NACMEs, nearIR, NEB, NEB-TS, NL-DFT gradient (VV10), 2- and 3-layer-ONIOM, interface openCOSMO-RS, QMMM,   
  Crystal-QMMM, SF, symmetry and pop. for TD-DFT, r2SCAN hybrids, SOLVATOR                                   
                                                                         
[Other institutions]                                                     
  V. Asgeirsson          : NEB                                           
  Christoph Bannwarth    : sTDA-DFT, sTD-DFT, PBEh-3c, B97-3c, D3        
  Sebastian Ehlert       : rSCAN, r2SCAN, r2SCAN-3c, D4, dhf basis sets  
  Marvin Friede          : D4 for Fr, Ra, Ac-Lr                          
  Lars Goerigk           : TD-DFT with DH, B97 family of functionals     
  Stefan Grimme          : VdW corrections, initial TS optimization, DFT functionals, gCP, sTDA/sTD-DF 
  Waldemar Hujo          : DFT-NL                                        
  H. Jonsson             : NEB                                           
  Holger Kruse           : gCP                                           
  Marcel Mueller         : wB97X-3c, vDZP basis set                      
  Hagen Neugebauer       : wr2SCAN                                       
  Tobias Risthaus        : range-separated hybrid DFT                    
  Lukas Wittmann         : regularized MP2, r2SCAN double-hybrids, wr2SCAN        
                                                                         
We gratefully acknowledge several colleagues who have allowed us to      
interface, adapt or use parts of their codes:                            
  Ed Valeev, F. Pavosevic, A. Kumar             : LibInt (2-el integral package), F12 methods 
  Garnet Chan, S. Sharma, J. Yang, R. Olivares  : DMRG                   
  Ulf Ekstrom                                   : XCFun DFT Library      
  Mihaly Kallay                                 : mrcc  (arbitrary order and MRCC methods)
  Frank Weinhold                                : gennbo (NPA and NBO analysis)           
  Simon Mueller                                 : openCOSMO-RS                            
  Christopher J. Cramer and Donald G. Truhlar   : smd solvation model                     
  S Lehtola, MJT Oliveira, MAL Marques          : LibXC Library                           
  Liviu Ungur et al                             : ANISO software                          


 Your calculation uses the libint2 library for the computation of 2-el integrals
 For citations please refer to: http://libint.valeyev.net

 Your ORCA version has been built with support for libXC version: 6.2.2
 For citations please refer to: https://libxc.gitlab.io

 This ORCA versions uses:
   CBLAS   interface :  Fast vector & matrix operations
   LAPACKE interface :  Fast linear algebra routines
   SCALAPACK package :  Parallel linear algebra routines
   Shared memory     :  Shared parallel matrices
   BLAS/LAPACK       :  OpenBLAS 0.3.27  USE64BITINT DYNAMIC_ARCH NO_AFFINITY SkylakeX SINGLE_THREADED
        Core in use  :  SkylakeX
   Copyright (c) 2011-2014, The OpenBLAS Project


Your calculation utilizes the atom-pairwise dispersion correction
based on EEQ partial charges (D4)


================================================================================

cite the ECPs for C  [vDZP-ECP], O  [vDZP-ECP] as follows:
   B-Ne (ecp-2-mwb), Al-Ar (ecp-10-mwb), Ga-Kr (ecp-28-mwb), Y-Cd (ecp-28-mwb), In-Xe (ecp-46-mwb):
     A. Bergner, M. Dolg, W. Küchle, H. Stoll, and H. Preuß, Mol. Phys. 80, 1431 (1993)., T. Leininger, A. Berning, A. Nicklass, H. Stoll, H.-J. Werner, and H.-J.Flad, Chem. Phys. 217, 19 (1997).
   Na-Mg, K-Ca, Rb-Sr, Cs-Ba (CRENBL):
     L. Fernandez Pacios and P. A. Christiansen, J. Chem. Phys. 82, 2664 (1985)., M. M. Hurley, L. F. Pacios, P. A. Christiansen, R. B. Ross, and W. C. Ermler, J. Chem. Phys. 84, 6840 (1986)., L. A. LaJohn, P. A. Christiansen, R. B. Ross, T. Atashroo, and W. C. Ermler, J. Chem. Phys. 87, 2812 (1987)., R. B. Ross, J. M. Powers, T. Atashroo, W. C. Ermler, L. A. LaJohn, and P. A. Christiansen, J. Chem. Phys. 93, 6654 (1990). 
   Sc-Zn (ecp-10-mdf):
     M. Dolg, U. Wedig, H. Stoll, and H. Preuss, J. Chem. Phys. 86, 866 (1986). 
   Y-Cd (ecp-28-mwb), Hf-Hg (ecp-60-mwb):
     D. Andrae, U. Häußermann, M. Dolg, H. Stoll, and H. Preuß, Theor. Chim. Acta 77, 123 (1990). 
   La (ecp-46-mwb):
     M. Dolg, H. Stoll, and H. Preuss, J. Chem. Phys. 90, 1730 (1989)., M. Dolg, H. Stoll, and H. Preuss, Theor. Chim. Acta 85, 441 (1993).
   Ce-Lu (SBKJC-ecp):
     T. R. Cundari and W. J. Stevens, J. Chem. Phys. 98, 5555 (1993).
   Tl-Rn (ecp-78-mwb):
     W. Küchle, M. Dolg, H. Stoll, and H. Preuss, Mol. Phys. 74, 1245 (1991).

ECP parameters for C  [vDZP-ECP], O  [vDZP-ECP] have been obtained from:
MM, AH, SG, J. Chem. Phys. 158, 014103 (2023), 10.1063/5.0133026

----- Orbital basis set information -----
Your calculation utilizes the basis: vDZP
   Marcel Mueller, Andreas Hansen, Stefan Grimme 
   J. Chem. Phys. 158, 014103 (2023). DOI: 10.1063/5.0133026

----- AuxJ basis set information -----
Your calculation utilizes the auxiliary basis: def2/J
   F. Weigend, Phys. Chem. Chem. Phys. 8, 1057 (2006).

================================================================================
                                        WARNINGS
                       Please study these warnings very carefully!
================================================================================

WARNING: Frozen-Core approximation turned on, but there are no core electrons.
  ===> : Turning off frozen-core approximation


WARNING: Geometry Optimization
  ===> : Switching off AutoStart
         For restart on a previous wavefunction, please use MOREAD

================================================================================
                                       INPUT FILE
================================================================================
NAME = ./output/geranial/geranial.inp
|  1> ! wB97X-3c OPT FREQ TightSCF
|  2> %pal
|  3>   nprocs 40
|  4> end
|  5> * xyz 0 1
|  6> C     -3.692350    -1.166087     0.736672
|  7> C     -2.552602    -0.440616     0.069622
|  8> C     -1.322918    -0.518017     0.620987
|  9> C     -0.112810     0.168923     0.035464
| 10> C      1.139685    -0.094411     0.881300
| 11> C      2.358333     0.562185     0.267285
| 12> C      3.058305     0.038645    -0.763261
| 13> C      2.799100    -1.237477    -1.463671
| 14> O      1.866395    -2.018554    -1.143027
| 15> C      2.817003     1.883638     0.826127
| 16> C     -2.804609     0.351767    -1.191336
| 17> H     -4.646636    -1.024682     0.187938
| 18> H     -3.472279    -2.253982     0.776937
| 19> H     -3.826035    -0.784223     1.771017
| 20> H     -1.196012    -1.102923     1.529831
| 21> H      0.046123    -0.195107    -1.001105
| 22> H     -0.297167     1.264744    -0.000750
| 23> H      1.310266    -1.180252     1.032908
| 24> H      0.964321     0.317988     1.898922
| 25> H      3.910783     0.596570    -1.134193
| 26> H      3.444879    -1.511780    -2.287110
| 27> H      2.148766     2.244204     1.635946
| 28> H      3.843183     1.781553     1.238559
| 29> H      2.822761     2.650484     0.022436
| 30> H     -3.870697     0.304440    -1.495979
| 31> H     -2.542860     1.418187    -1.027897
| 32> H     -2.192928    -0.055216    -2.023621
| 33> *
| 34> 
| 35>                          ****END OF INPUT****
================================================================================

                       *****************************
                       * Geometry Optimization Run *
                       *****************************

Geometry optimization settings:
Update method            Update   .... BFGS
Choice of coordinates    CoordSys .... (2022) Redundant Internals
Initial Hessian          InHess   .... Almloef's Model
Max. no of cycles        MaxIter  .... 81

Convergence Tolerances:
Energy Change            TolE     ....  5.0000e-06 Eh
Max. Gradient            TolMAXG  ....  3.0000e-04 Eh/bohr
RMS Gradient             TolRMSG  ....  1.0000e-04 Eh/bohr
Max. Displacement        TolMAXD  ....  4.0000e-03 bohr
RMS Displacement         TolRMSD  ....  2.0000e-03 bohr
Strict Convergence                .... False

------------------------------------------------------------------------------
                        ORCA OPTIMIZATION COORDINATE SETUP
------------------------------------------------------------------------------

The optimization will be done in redundant internal coordinates (2022)
Making redundant internal coordinates   ...  (2022 redundants) done
Evaluating the initial hessian          ...  (Almloef) done
Evaluating the coordinates              ...  done
Calculating the B-matrix                .... done
Calculating the G-matrix                .... done
Diagonalizing the G-matrix              .... done
Small eigenvalue found = 6.233e-03
Small eigenvalue found = 1.023e-02
Small eigenvalue found = 2.034e-02
Small eigenvalue found = 2.717e-02
The first mode is                       ....   39
The number of degrees of freedom        ....   75

    -----------------------------------------------------------------
                    Redundant Internal Coordinates


    -----------------------------------------------------------------
         Definition                    Initial Value    Approx d2E/dq
    -----------------------------------------------------------------
      1. B(C   1,C   0)                  1.5067         0.406888   
      2. B(C   2,C   1)                  1.3499         0.724073   
      3. B(C   3,C   2)                  1.5097         0.402552   
      4. B(C   4,C   3)                  1.5341         0.367962   
      5. B(C   5,C   4)                  1.5143         0.395692   
      6. B(C   6,C   5)                  1.3513         0.720181   
      7. B(C   7,C   6)                  1.4786         0.451220   
      8. B(O   8,C   7)                  1.2581         0.908454   
      9. B(C   9,C   5)                  1.5063         0.407567   
     10. B(C  10,C   1)                  1.5104         0.401424   
     11. B(H  11,C   0)                  1.1098         0.334776   
     12. B(H  12,C   0)                  1.1107         0.333780   
     13. B(H  13,C   0)                  1.1107         0.333783   
     14. B(H  14,C   2)                  1.0882         0.362466   
     15. B(H  15,C   3)                  1.1101         0.334507   
     16. B(H  16,C   3)                  1.1118         0.332373   
     17. B(H  17,C   4)                  1.1096         0.335127   
     18. B(H  18,C   4)                  1.1119         0.332232   
     19. B(H  19,C   6)                  1.0842         0.367793   
     20. B(H  20,C   7)                  1.0818         0.371092   
     21. B(H  21,C   9)                  1.1101         0.334450   
     22. B(H  22,C   9)                  1.1107         0.333780   
     23. B(H  23,C   9)                  1.1109         0.333538   
     24. B(H  24,C  10)                  1.1098         0.334873   
     25. B(H  25,C  10)                  1.1102         0.334383   
     26. B(H  26,C  10)                  1.1102         0.334377   
     27. A(H  11,C   0,H  13)          108.2492         0.284154   
     28. A(C   1,C   0,H  12)          109.7417         0.324826   
     29. A(C   1,C   0,H  11)          111.7263         0.324985   
     30. A(H  12,C   0,H  13)          109.0782         0.284023   
     31. A(H  11,C   0,H  12)          108.2457         0.284154   
     32. A(C   1,C   0,H  13)          109.7427         0.324827   
     33. A(C   0,C   1,C  10)          119.7338         0.373296   
     34. A(C   2,C   1,C  10)          121.5384         0.412911   
     35. A(C   0,C   1,C   2)          118.7278         0.413903   
     36. A(C   1,C   2,C   3)          123.0725         0.413117   
     37. A(C   3,C   2,H  14)          118.3603         0.328687   
     38. A(C   1,C   2,H  14)          118.5672         0.362748   
     39. A(C   2,C   3,C   4)          111.2525         0.367075   
     40. A(H  15,C   3,H  16)          108.4540         0.283932   
     41. A(C   4,C   3,H  16)          108.8153         0.319299   
     42. A(C   2,C   3,H  16)          109.1597         0.324030   
     43. A(C   4,C   3,H  15)          109.9782         0.319633   
     44. A(C   2,C   3,H  15)          109.1301         0.324371   
     45. A(H  17,C   4,H  18)          105.1979         0.283995   
     46. A(C   5,C   4,H  18)          109.7054         0.323095   
     47. A(C   3,C   4,H  18)          108.1897         0.319277   
     48. A(C   5,C   4,H  17)          110.8546         0.323555   
     49. A(C   3,C   4,H  17)          111.6435         0.319730   
     50. A(C   3,C   4,C   5)          111.0406         0.365996   
     51. A(C   4,C   5,C   6)          123.9230         0.411464   
     52. A(C   6,C   5,C   9)          117.7161         0.413630   
     53. A(C   4,C   5,C   9)          118.3589         0.372479   
     54. A(C   7,C   6,H  19)          114.8273         0.335772   
     55. A(C   5,C   6,H  19)          117.9567         0.363319   
     56. A(C   5,C   6,C   7)          127.2159         0.421193   
     57. A(C   6,C   7,O   8)          123.0284         0.436240   
     58. A(O   8,C   7,H  20)          118.6279         0.376325   
     59. A(C   6,C   7,H  20)          118.3433         0.336272   
     60. A(H  21,C   9,H  23)          107.8593         0.284079   
     61. A(C   5,C   9,H  23)          109.8019         0.324877   
     62. A(H  21,C   9,H  22)          108.3687         0.284111   
     63. A(C   5,C   9,H  22)          109.7840         0.324916   
     64. A(H  22,C   9,H  23)          109.1062         0.283990   
     65. A(C   5,C   9,H  21)          111.8570         0.325023   
     66. A(H  25,C  10,H  26)          109.4273         0.284181   
     67. A(H  24,C  10,H  26)          107.9303         0.284246   
     68. A(C   1,C  10,H  26)          109.9756         0.324201   
     69. A(H  24,C  10,H  25)          107.9310         0.284247   
     70. A(C   1,C  10,H  25)          109.9800         0.324202   
     71. A(C   1,C  10,H  24)          111.5354         0.324280   
     72. D(C  10,C   1,C   0,H  12)    120.0809         0.012269   
     73. D(C   2,C   1,C   0,H  12)    -59.9083         0.012269   
     74. D(C   2,C   1,C   0,H  11)   -179.9801         0.012269   
     75. D(C  10,C   1,C   0,H  11)      0.0091         0.012269   
     76. D(C   2,C   1,C   0,H  13)     59.9431         0.012269   
     77. D(H  14,C   2,C   1,C   0)      0.0200         0.037144   
     78. D(C   3,C   2,C   1,C   0)    179.9896         0.037144   
     79. D(H  14,C   2,C   1,C  10)   -179.9690         0.037144   
     80. D(C   3,C   2,C   1,C  10)      0.0006         0.037144   
     81. D(H  16,C   3,C   2,C   1)     59.6489         0.012019   
     82. D(H  15,C   3,C   2,H  14)    121.2454         0.012019   
     83. D(H  15,C   3,C   2,C   1)    -58.7243         0.012019   
     84. D(C   4,C   3,C   2,H  14)     -0.2835         0.012019   
     85. D(C   4,C   3,C   2,C   1)    179.7468         0.012019   
     86. D(C   5,C   4,C   3,C   2)    178.2991         0.010831   
     87. D(H  17,C   4,C   3,H  16)    174.3369         0.010831   
     88. D(H  17,C   4,C   3,C   2)     54.0354         0.010831   
     89. D(H  17,C   4,C   3,H  15)    -66.9978         0.010831   
     90. D(C   5,C   4,C   3,H  16)    -61.3993         0.010831   
     91. D(C   5,C   4,C   3,H  15)     57.2660         0.010831   
     92. D(C   9,C   5,C   4,H  17)   -136.0388         0.011631   
     93. D(C   9,C   5,C   4,C   3)     99.2508         0.011631   
     94. D(C   6,C   5,C   4,H  18)    160.2300         0.011631   
     95. D(C   6,C   5,C   4,H  17)     44.4813         0.011631   
     96. D(C   6,C   5,C   4,C   3)    -80.2291         0.011631   
     97. D(H  19,C   6,C   5,C   9)     -0.0876         0.036710   
     98. D(H  19,C   6,C   5,C   4)    179.3954         0.036710   
     99. D(C   7,C   6,C   5,C   9)    179.7523         0.036710   
    100. D(C   7,C   6,C   5,C   4)     -0.7647         0.036710   
    101. D(O   8,C   7,C   6,H  19)    178.5836         0.013877   
    102. D(O   8,C   7,C   6,C   5)     -1.2605         0.013877   
    103. D(H  20,C   7,C   6,H  19)     -1.1794         0.013877   
    104. D(H  20,C   7,C   6,C   5)    178.9764         0.013877   
    105. D(H  23,C   9,C   5,C   4)   -121.7693         0.012308   
    106. D(H  22,C   9,C   5,C   6)    -62.2058         0.012308   
    107. D(H  22,C   9,C   5,C   4)    118.2817         0.012308   
    108. D(H  21,C   9,C   5,C   6)    177.4546         0.012308   
    109. D(H  21,C   9,C   5,C   4)     -2.0580         0.012308   
    110. D(H  26,C  10,C   1,C   0)   -119.5695         0.011955   
    111. D(H  25,C  10,C   1,C   2)    -60.1593         0.011955   
    112. D(H  25,C  10,C   1,C   0)    119.8518         0.011955   
    113. D(H  24,C  10,C   1,C   2)   -179.8719         0.011955   
    114. D(H  24,C  10,C   1,C   0)      0.1392         0.011955   
    -----------------------------------------------------------------

Number of atoms                         .... 27
Number of degrees of freedom            .... 114


         *************************************************************
         *                GEOMETRY OPTIMIZATION CYCLE   1            *
         *************************************************************
---------------------------------
CARTESIAN COORDINATES (ANGSTROEM)
---------------------------------
  C     -3.692350   -1.166087    0.736672
  C     -2.552602   -0.440616    0.069622
  C     -1.322918   -0.518017    0.620987
  C     -0.112810    0.168923    0.035464
  C      1.139685   -0.094411    0.881300
  C      2.358333    0.562185    0.267285
  C      3.058305    0.038645   -0.763261
  C      2.799100   -1.237477   -1.463671
  O      1.866395   -2.018554   -1.143027
  C      2.817003    1.883638    0.826127
  C     -2.804609    0.351767   -1.191336
  H     -4.646636   -1.024682    0.187938
  H     -3.472279   -2.253982    0.776937
  H     -3.826035   -0.784223    1.771017
  H     -1.196012   -1.102923    1.529831
  H      0.046123   -0.195107   -1.001105
  H     -0.297167    1.264744   -0.000750
  H      1.310266   -1.180252    1.032908
  H      0.964321    0.317988    1.898922
  H      3.910783    0.596570   -1.134193
  H      3.444879   -1.511780   -2.287110
  H      2.148766    2.244204    1.635946
  H      3.843183    1.781553    1.238559
  H      2.822761    2.650484    0.022436
  H     -3.870697    0.304440   -1.495979
  H     -2.542860    1.418187   -1.027897
  H     -2.192928   -0.055216   -2.023621

----------------------------
CARTESIAN COORDINATES (A.U.)
----------------------------
  NO LB      ZA    FRAG     MASS         X           Y           Z
   0 C     4.0000*   0    12.011   -6.977530   -2.203585    1.392108
   1 C     4.0000*   0    12.011   -4.823719   -0.832644    0.131567
   2 C     4.0000*   0    12.011   -2.499953   -0.978910    1.173495
   3 C     4.0000*   0    12.011   -0.213180    0.319218    0.067017
   4 C     4.0000*   0    12.011    2.153693   -0.178411    1.665416
   5 C     4.0000*   0    12.011    4.456604    1.062376    0.505095
   6 C     4.0000*   0    12.011    5.779359    0.073028   -1.442354
   7 C     4.0000*   0    12.011    5.289532   -2.338493   -2.765937
   8 O     6.0000*   0    15.999    3.526975   -3.814514   -2.160008
   9 C     4.0000*   0    12.011    5.323364    3.559560    1.561154
  10 C     4.0000*   0    12.011   -5.299943    0.664743   -2.251299
  11 H     1.0000    0     1.008   -8.780869   -1.936368    0.355151
  12 H     1.0000    0     1.008   -6.561656   -4.259409    1.468198
  13 H     1.0000    0     1.008   -7.230158   -1.481967    3.346737
  14 H     1.0000    0     1.008   -2.260135   -2.084222    2.890962
  15 H     1.0000    0     1.008    0.087160   -0.368699   -1.891814
  16 H     1.0000    0     1.008   -0.561564    2.390020   -0.001417
  17 H     1.0000    0     1.008    2.476044   -2.230353    1.951913
  18 H     1.0000    0     1.008    1.822303    0.600910    3.588443
  19 H     1.0000    0     1.008    7.390309    1.127354   -2.143314
  20 H     1.0000    0     1.008    6.509878   -2.856850   -4.322012
  21 H     1.0000    0     1.008    4.060579    4.240931    3.091490
  22 H     1.0000    0     1.008    7.262563    3.366647    2.340537
  23 H     1.0000    0     1.008    5.334245    5.008689    0.042398
  24 H     1.0000    0     1.008   -7.314557    0.575308   -2.826991
  25 H     1.0000    0     1.008   -4.805309    2.679985   -1.942444
  26 H     1.0000    0     1.008   -4.144033   -0.104343   -3.824089
* core charge reduced due to ECP

--------------------------------
INTERNAL COORDINATES (ANGSTROEM)
--------------------------------
 C      0   0   0     0.000000000000     0.00000000     0.00000000
 C      1   0   0     1.506747947682     0.00000000     0.00000000
 C      2   1   0     1.349858147318   118.72778497     0.00000000
 C      3   2   1     1.509663909217   123.07246929   179.98964234
 C      4   3   2     1.534120940303   111.25249752   179.74678073
 C      5   4   3     1.514343314888   111.04056006   178.29914060
 C      6   5   4     1.351325271909   123.92303706   279.77091054
 C      7   6   5     1.478596888611   127.21587279   359.23529235
 O      8   7   6     1.258106701234   123.02842110   358.73949272
 C      6   5   4     1.506293656985   118.35889161    99.25084593
 C      2   1   3     1.510428225538   119.73381321   179.98921486
 H      1   2   3     1.109849605387   111.72630471   180.01993284
 H      1   2   3     1.110661085251   109.74165375   300.09171562
 H      1   2   3     1.110658080935   109.74266336    59.94312184
 H      3   2   1     1.088217615189   118.56722004     0.00000000
 H      4   3   2     1.110068840726   109.13012231   301.27567699
 H      4   3   2     1.111810515010   109.15973578    59.64890082
 H      5   4   3     1.109564572481   111.64353197    54.03535541
 H      5   4   3     1.111926257708   108.18974808   298.74160088
 H      7   6   5     1.084246095097   117.95668988   179.39544894
 H      8   7   6     1.081815344396   118.34325973   178.97644619
 H     10   6   5     1.110115012639   111.85704541   357.94203336
 H     10   6   5     1.110660566622   109.78397338   118.28167392
 H     10   6   5     1.110857851285   109.80192622   238.23066578
 H     11   2   1     1.109770618696   111.53536872     0.13923262
 H     11   2   1     1.110169564581   109.98002592   119.85180169
 H     11   2   1     1.110174368861   109.97562171   240.43052304

---------------------------
INTERNAL COORDINATES (A.U.)
---------------------------
 C      0   0   0     0.000000000000     0.00000000     0.00000000
 C      1   0   0     2.847340973968     0.00000000     0.00000000
 C      2   1   0     2.550862218074   118.72778497     0.00000000
 C      3   2   1     2.852851342685   123.07246929   179.98964234
 C      4   3   2     2.899068433487   111.25249752   179.74678073
 C      5   4   3     2.861694137872   111.04056006   178.29914060
 C      6   5   4     2.553634681755   123.92303706   279.77091054
 C      7   6   5     2.794143181942   127.21587279   359.23529235
 O      8   7   6     2.377477112583   123.02842110   358.73949272
 C      6   5   4     2.846482488964   118.35889161    99.25084593
 C      2   1   3     2.854295691212   119.73381321   179.98921486
 H      1   2   3     2.097311804021   111.72630471   180.01993284
 H      1   2   3     2.098845278728   109.74165375   300.09171562
 H      1   2   3     2.098839601394   109.74266336    59.94312184
 H      3   2   1     2.056433266816   118.56722004     0.00000000
 H      4   3   2     2.097726098771   109.13012231   301.27567699
 H      4   3   2     2.101017386182   109.15973578    59.64890082
 H      5   4   3     2.096773169891   111.64353197    54.03535541
 H      5   4   3     2.101236108184   108.18974808   298.74160088
 H      7   6   5     2.048928181507   117.95668988   179.39544894
 H      8   7   6     2.044334728382   118.34325973   178.97644619
 H     10   6   5     2.097813351042   111.85704541   357.94203336
 H     10   6   5     2.098844298661   109.78397338   118.28167392
 H     10   6   5     2.099217112644   109.80192622   238.23066578
 H     11   2   1     2.097162540809   111.53536872     0.13923262
 H     11   2   1     2.097916439273   109.98002592   119.85180169
 H     11   2   1     2.097925518045   109.97562171   240.43052304

---------------------
BASIS SET INFORMATION
---------------------
There are 3 groups of distinct atoms

 Group   1 Type C   : 6s6p2d contracted to 2s2p1d pattern {42/42/2}
 Group   2 Type O   : 6s6p2d contracted to 2s2p1d pattern {42/42/2}
 Group   3 Type H   : 8s2p contracted to 2s1p pattern {53/2}

Atom   0C    basis set group =>   1
Atom   1C    basis set group =>   1
Atom   2C    basis set group =>   1
Atom   3C    basis set group =>   1
Atom   4C    basis set group =>   1
Atom   5C    basis set group =>   1
Atom   6C    basis set group =>   1
Atom   7C    basis set group =>   1
Atom   8O    basis set group =>   2
Atom   9C    basis set group =>   1
Atom  10C    basis set group =>   1
Atom  11H    basis set group =>   3
Atom  12H    basis set group =>   3
Atom  13H    basis set group =>   3
Atom  14H    basis set group =>   3
Atom  15H    basis set group =>   3
Atom  16H    basis set group =>   3
Atom  17H    basis set group =>   3
Atom  18H    basis set group =>   3
Atom  19H    basis set group =>   3
Atom  20H    basis set group =>   3
Atom  21H    basis set group =>   3
Atom  22H    basis set group =>   3
Atom  23H    basis set group =>   3
Atom  24H    basis set group =>   3
Atom  25H    basis set group =>   3
Atom  26H    basis set group =>   3
---------------------------------
AUXILIARY/J BASIS SET INFORMATION
---------------------------------
There are 3 groups of distinct atoms

 Group   1 Type C   : 12s5p4d2f1g contracted to 6s4p3d1f1g pattern {711111/2111/211/2/1}
 Group   2 Type O   : 12s5p4d2f1g contracted to 6s4p3d1f1g pattern {711111/2111/211/2/1}
 Group   3 Type H   : 5s2p1d contracted to 3s1p1d pattern {311/2/1}

Atom   0C    basis set group =>   1
Atom   1C    basis set group =>   1
Atom   2C    basis set group =>   1
Atom   3C    basis set group =>   1
Atom   4C    basis set group =>   1
Atom   5C    basis set group =>   1
Atom   6C    basis set group =>   1
Atom   7C    basis set group =>   1
Atom   8O    basis set group =>   2
Atom   9C    basis set group =>   1
Atom  10C    basis set group =>   1
Atom  11H    basis set group =>   3
Atom  12H    basis set group =>   3
Atom  13H    basis set group =>   3
Atom  14H    basis set group =>   3
Atom  15H    basis set group =>   3
Atom  16H    basis set group =>   3
Atom  17H    basis set group =>   3
Atom  18H    basis set group =>   3
Atom  19H    basis set group =>   3
Atom  20H    basis set group =>   3
Atom  21H    basis set group =>   3
Atom  22H    basis set group =>   3
Atom  23H    basis set group =>   3
Atom  24H    basis set group =>   3
Atom  25H    basis set group =>   3
Atom  26H    basis set group =>   3
-------------------------
ECP PARAMETER INFORMATION
-------------------------

 Group 1, Type C  ECP vDZP-ECP (replacing 2 core electrons, lmax=3)
 Group 2, Type O  ECP vDZP-ECP (replacing 2 core electrons, lmax=3)

Atom   0C    ECP group =>   1
Atom   1C    ECP group =>   1
Atom   2C    ECP group =>   1
Atom   3C    ECP group =>   1
Atom   4C    ECP group =>   1
Atom   5C    ECP group =>   1
Atom   6C    ECP group =>   1
Atom   7C    ECP group =>   1
Atom   8O    ECP group =>   2
Atom   9C    ECP group =>   1
Atom  10C    ECP group =>   1



           ************************************************************
           *        Program running with 40 parallel MPI-processes    *
           *              working on a common directory               *
           ************************************************************
------------------------------------------------------------------------------
                             ORCA STARTUP CALCULATIONS
                           -- RI-GTO INTEGRALS CHOSEN --
------------------------------------------------------------------------------
------------------------------------------------------------------------------
                   ___                                                        
                  /   \      - P O W E R E D   B Y -                         
                 /     \                                                     
                 |  |  |   _    _      __       _____    __    __             
                 |  |  |  | |  | |    /  \     |  _  \  |  |  /  |          
                  \  \/   | |  | |   /    \    | | | |  |  | /  /          
                 / \  \   | |__| |  /  /\  \   | |_| |  |  |/  /          
                |  |  |   |  __  | /  /__\  \  |    /   |      \           
                |  |  |   | |  | | |   __   |  |    \   |  |\   \          
                \     /   | |  | | |  |  |  |  | |\  \  |  | \   \       
                 \___/    |_|  |_| |__|  |__|  |_| \__\ |__|  \__/        
                                                                              
                      - O R C A' S   B I G   F R I E N D -                    
                                      &                                       
                       - I N T E G R A L  F E E D E R -                       
                                                                              
 v1 FN, 2020, v2 2021, v3 2022-2024                                           
------------------------------------------------------------------------------


----------------------
SHARK INTEGRAL PACKAGE
----------------------

Number of atoms                             ...     27
Number of basis functions                   ...    223
Number of shells                            ...    103
Maximum angular momentum                    ...      2
Integral batch strategy                     ... SHARK/LIBINT Hybrid
RI-J (if used) integral strategy            ... SPLIT-RIJ (Revised 2003 algorithm where possible)
Printlevel                                  ...      1
Contraction scheme used                     ... SEGMENTED contraction
Prescreening option                         ... SCHWARTZ
   Thresh                                   ... 2.500e-11
   Tcut                                     ... 2.500e-12
   Tpresel                                  ... 2.500e-12 
Coulomb Range Separation                    ... NOT USED
Exchange Range Separation                   ... Long Range
   Mu parameter                             ... 3.000e-01
   Scaling (regular/separated)              ... 1.670e-01 8.330e-01
Multipole approximations                    ... NOT USED
Finite Nucleus Model                        ... NOT USED
CABS basis                                  ... NOT available
Auxiliary Coulomb fitting basis             ... AVAILABLE
   # of basis functions in Aux-J            ...    715
   # of shells in Aux-J                     ...    245
   Maximum angular momentum in Aux-J        ...      4
Auxiliary J/K fitting basis                 ... NOT available
Auxiliary Correlation fitting basis         ... NOT available
Auxiliary 'external' fitting basis          ... NOT available

Checking pre-screening integrals            ... done (  0.0 sec) Dimension = 103
Check shell pair data                       ... done (  0.0 sec)
Shell pair information
Shell pair cut-off parameter TPreSel        ...   2.5e-12
Total number of shell pairs                 ...      5356
Shell pairs after pre-screening             ...      5279
Total number of primitive shell pairs       ...     49844
Primitive shell pairs kept                  ...     38007
          la=0 lb=0:   1474 shell pairs
          la=1 lb=0:   2022 shell pairs
          la=1 lb=1:    708 shell pairs
          la=2 lb=0:    594 shell pairs
          la=2 lb=1:    415 shell pairs
          la=2 lb=2:     66 shell pairs

Calculating one electron integrals          ... done (  0.0 sec)
Calculating ECP integrals                   ... done (  0.1 sec)
Calculating RI/J V-Matrix + Cholesky decomp.... done (  0.0 sec)
Calculating Nuclear repulsion               ... done (  0.0 sec) ENN=    317.329791386538 Eh

Diagonalization of the overlap matrix:
Smallest eigenvalue                        ... 8.968e-04
Time for diagonalization                   ...    0.007 sec
Threshold for overlap eigenvalues          ... 1.000e-07
Number of eigenvalues below threshold      ... 0
Time for construction of square roots      ...    0.004 sec
Total time needed                          ...    0.196 sec

-------------------
DFT GRID GENERATION
-------------------

General Integration Accuracy     IntAcc      ... 4.388
Radial Grid Type                 RadialGrid  ... OptM3 with GC (2021)
Angular Grid (max. ang.)         AngularGrid ... 4 (Lebedev-302)
Angular grid pruning method      GridPruning ... 4 (adaptive)
Weight generation scheme         WeightScheme... mBecke (2022)
Basis function cutoff            BFCut       ... 1.0000e-11
Integration weight cutoff        WCut        ... 1.0000e-14
Partially contracted basis set               ... off
Rotationally invariant grid construction     ... off
Angular grids for H and He will be reduced by one unit

Total number of grid points                  ...   117307
Total number of batches                      ...     1849
Average number of points per batch           ...       63
Average number of grid points per atom       ...     4345

--------------------
COSX GRID GENERATION
--------------------

GRIDX 1
-------
General Integration Accuracy     IntAcc      ... 3.816
Radial Grid Type                 RadialGrid  ... OptM3 with GC (2021)
Angular Grid (max. ang.)         AngularGrid ... 1 (Lebedev-50)
Angular grid pruning method      GridPruning ... 4 (adaptive)
Weight generation scheme         WeightScheme... mBecke (2022)
Basis function cutoff            BFCut       ... 1.0000e-11
Integration weight cutoff        WCut        ... 1.0000e-14
Partially contracted basis set               ... on
Rotationally invariant grid construction     ... off
Angular grids for H and He will be reduced by one unit

Total number of grid points                  ...    15008
Total number of batches                      ...      135
Average number of points per batch           ...      111
Average number of grid points per atom       ...      556
UseSFitting                                  ... on

GRIDX 2
-------
General Integration Accuracy     IntAcc      ... 4.020
Radial Grid Type                 RadialGrid  ... OptM3 with GC (2021)
Angular Grid (max. ang.)         AngularGrid ... 2 (Lebedev-110)
Angular grid pruning method      GridPruning ... 4 (adaptive)
Weight generation scheme         WeightScheme... mBecke (2022)
Basis function cutoff            BFCut       ... 1.0000e-11
Integration weight cutoff        WCut        ... 1.0000e-14
Partially contracted basis set               ... on
Rotationally invariant grid construction     ... off
Angular grids for H and He will be reduced by one unit

Total number of grid points                  ...    31623
Total number of batches                      ...      261
Average number of points per batch           ...      121
Average number of grid points per atom       ...     1171
UseSFitting                                  ... on

GRIDX 3
-------
General Integration Accuracy     IntAcc      ... 4.338
Radial Grid Type                 RadialGrid  ... OptM3 with GC (2021)
Angular Grid (max. ang.)         AngularGrid ... 3 (Lebedev-194)
Angular grid pruning method      GridPruning ... 4 (adaptive)
Weight generation scheme         WeightScheme... mBecke (2022)
Basis function cutoff            BFCut       ... 1.0000e-11
Integration weight cutoff        WCut        ... 1.0000e-14
Partially contracted basis set               ... on
Rotationally invariant grid construction     ... off
Angular grids for H and He will be reduced by one unit

Total number of grid points                  ...    68932
Total number of batches                      ...      554
Average number of points per batch           ...      124
Average number of grid points per atom       ...     2553
UseSFitting                                  ... on
Initializing property integral containers    ... done (  0.0 sec)

SHARK setup successfully completed in   3.9 seconds

Maximum memory used throughout the entire STARTUP-calculation: 34.9 MB


           ************************************************************
           *        Program running with 40 parallel MPI-processes    *
           *              working on a common directory               *
           ************************************************************
-------------------------------------------------------------------------------
                                 ORCA GUESS
                   Start orbitals & Density for SCF / CASSCF
-------------------------------------------------------------------------------

------------
SCF SETTINGS
------------
Hamiltonian:
 Density Functional     Method          .... DFT(GTOs)
 Exchange Functional    Exchange        .... WB97X-V
 Correlation Functional Correlation     .... WB97X-V
 Gradients option       PostSCFGGA      .... off
 Hybrid DFT is turned on
   Fraction HF Exchange ScalHFX         ....  0.167000
   Scaling of DF-GGA-X  ScalDFX         ....  0.000000
   Scaling of DF-GGA-C  ScalDFC         ....  1.000000
   Scaling of DF-LDA-C  ScalLDAC        ....  1.000000
   Perturbative correction              ....  0.000000
 Long-range corrected/Screened/Range-Separated Hybrid DFT is turned on
   Amount of maximum screened exact exchange              ....  0.833000
   Range separation parameter mu (erf(mu*r12)/r12)        ....  0.300000
   NL short-range parameter             ....  6.000000
   NL long-range parameter              ....  0.010000
 RI-approximation to the Coulomb term is turned on
   Number of AuxJ basis functions       .... 715
   RIJ-COSX (HFX calculated with COS-X)).... on


General Settings:
 Integral files         IntName         .... ./output/geranial/geranial
 Hartree-Fock type      HFTyp           .... RHF
 Total Charge           Charge          ....    0
 Multiplicity           Mult            ....    1
 Number of Electrons    NEL             ....   62
 Basis Dimension        Dim             ....  223
 Nuclear Repulsion      ENuc            ....    317.3297913865 Eh

Convergence Acceleration:
 AO-DIIS                CNVDIIS         .... on
   Start iteration      DIISMaxIt       ....    12
   Startup error        DIISStart       ....  0.200000
   # of expansion vecs  DIISMaxEq       ....     5
   Bias factor          DIISBfac        ....   1.050
   Max. coefficient     DIISMaxC        ....  10.000
 MO-DIIS                CNVKDIIS        .... off
 Trust-Rad. Augm. Hess. CNVTRAH         .... auto
   Auto Start mean grad. ratio tolernc. ....  1.125000
   Auto Start start iteration           ....    50
   Auto Start num. interpolation iter.  ....    10
   Max. Number of Micro iterations      ....    24
   Max. Number of Macro iterations      .... Maxiter - #DIIS iter
   Number of Davidson start vectors     ....     2
   Converg. threshold    (grad. norm)   ....   1.000e-05
   Grad. Scal. Fac. for Micro threshold ....   0.100
   Minimum threshold for Micro iter.    ....   1.000e-02
   NR start threshold (gradient norm)   ....   1.000e-04
   Initial trust radius                 ....   0.400
   Minimum AH scaling param. (alpha)    ....   1.000
   Maximum AH scaling param. (alpha)    .... 1000.000
   Quad. conv. algorithm                .... NR
   White noise on init. David. guess    .... on
   Maximum white noise                  ....   0.010
   Pseudo random numbers                .... off
   Inactive MOs                         .... canonical
   Orbital update algorithm             .... Taylor
   Preconditioner                       .... Diag
   Full preconditioner red. dimension   ....   250
 SOSCF                  CNVSOSCF        .... on
   Start iteration      SOSCFMaxIt      ....   150
   Startup grad/error   SOSCFStart      ....  0.003300
   Hessian update       SOSCFHessUp     .... L-BFGS
 Level Shifting         CNVShift        .... on
   Level shift para.    LevelShift      ....    0.2500
   Turn off err/grad.   ShiftErr        ....    0.0010
 Zerner damping         CNVZerner       .... off
 Static damping         CNVDamp         .... on
   Fraction old density DampFac         ....    0.7000
   Max. Damping (<1)    DampMax         ....    0.9800
   Min. Damping (>=0)   DampMin         ....    0.0000
   Turn off err/grad.   DampErr         ....    0.1000

SCF Procedure:
 Maximum # iterations   MaxIter         ....   125
 SCF integral mode      SCFMode         .... Direct
   Integral package                     .... SHARK and LIBINT hybrid scheme
 Reset frequency        DirectResetFreq ....    20
 Integral Threshold     Thresh          ....  2.500e-11 Eh
 Primitive CutOff       TCut            ....  2.500e-12 Eh

Convergence Tolerance:
 Convergence Check Mode ConvCheckMode   .... Total+1el-Energy
 Convergence forced     ConvForced      .... 0
 Energy Change          TolE            ....  1.000e-08 Eh
 1-El. energy change                    ....  1.000e-05 Eh
 Orbital Gradient       TolG            ....  1.000e-05
 Orbital Rotation angle TolX            ....  1.000e-05
 DIIS Error             TolErr          ....  5.000e-07

------------------------------
INITIAL GUESS: MODEL POTENTIAL
------------------------------
Loading Hartree-Fock densities                     ... done
Atomic calculation to generate a density for atom 0 (C  with ECP)
  Multiplicity assumed   :    1
  Atomic configuration   : 1s2 2s2 2p2 
  Number of open shells  : 1
  Command: /home/aspe232/Project/Software/ORCA/6_0_1/build/orca ./output/geranial/geranial_atom6.inp "" > ./output/geranial/geranial_atom6.out
Returned from the atomic calculation with res=0
Atomic calculation to generate a density for atom 8 (O  with ECP)
  Multiplicity assumed   :    3
  Atomic configuration   : 1s2 2s2 2p4 
  Number of open shells  : 1
  Command: /home/aspe232/Project/Software/ORCA/6_0_1/build/orca ./output/geranial/geranial_atom8.inp "" > ./output/geranial/geranial_atom8.out
Returned from the atomic calculation with res=0
Calculating cut-offs                               ... done
Initializing the effective Hamiltonian             ... done
Setting up the integral package (SHARK)            ... done
Starting the Coulomb interaction                   ... done (   0.0 sec)
Making the grid                                    ... done (   0.7 sec)
Mapping shells                                     ... done
Starting the XC term evaluation                    ... done (   0.1 sec)
  promolecular density results
     # of electrons  =     83.998520880
     EX              =    -42.564806935
     EC              =     -3.366153686
     EX+EC           =    -45.930960621
Transforming the Hamiltonian                       ... done (   0.0 sec)
Diagonalizing the Hamiltonian                      ... done (   0.0 sec)
Back transforming the eigenvectors                 ... done (   0.0 sec)
Now organizing SCF variables                       ... done
                      ------------------
                      INITIAL GUESS DONE (   2.2 sec)
                      ------------------
             **** ENERGY FILE WAS UPDATED (./output/geranial/geranial.en.tmp) ****
Finished Guess after   2.8 sec
Maximum memory used throughout the entire GUESS-calculation: 21.5 MB


           ************************************************************
           *        Program running with 40 parallel MPI-processes    *
           *              working on a common directory               *
           ************************************************************

-------------------------------------------------------------------------------------------
                                      ORCA LEAN-SCF
                              memory conserving SCF solver
-------------------------------------------------------------------------------------------

----------------------------------------D-I-I-S--------------------------------------------
Iteration    Energy (Eh)           Delta-E    RMSDP     MaxDP     DIISErr   Damp  Time(sec)
-------------------------------------------------------------------------------------------
               ***  Starting incremental Fock matrix formation  ***
    1    -82.1418639530252221     0.00e+00  3.91e-03  7.57e-02  1.81e-01  0.700   5.3
    2    -82.3241378855761923    -1.82e-01  2.86e-03  5.37e-02  1.12e-01  0.700   3.9
                               ***Turning on AO-DIIS***
    3    -82.4193933694524503    -9.53e-02  1.50e-03  2.90e-02  5.97e-02  0.700   3.7
    4    -82.4757557461496162    -5.64e-02  3.15e-03  5.90e-02  3.83e-02  0.000   3.4
    5    -82.5948154642586587    -1.19e-01  2.88e-04  9.42e-03  7.36e-03  0.000   3.8
    6    -82.5952003287178513    -3.85e-04  1.35e-04  7.36e-03  5.98e-03  0.000   3.2
                              *** Initializing SOSCF ***
---------------------------------------S-O-S-C-F--------------------------------------
Iteration    Energy (Eh)           Delta-E    RMSDP     MaxDP     MaxGrad    Time(sec)
--------------------------------------------------------------------------------------
    7    -82.5953260041712838    -1.26e-04  7.74e-05  1.64e-03  9.47e-04     3.4
               *** Restarting incremental Fock matrix formation ***
    8    -82.5953721367617391    -4.61e-05  4.24e-05  8.52e-04  7.47e-04     5.6
    9    -82.5953819187823228    -9.78e-06  3.88e-05  8.31e-04  3.66e-04     4.2
   10    -82.5953842922055514    -2.37e-06  1.00e-05  5.08e-04  1.61e-04     3.6
   11    -82.5953846629316217    -3.71e-07  5.74e-06  2.19e-04  9.82e-05     4.7
   12    -82.5953847989379710    -1.36e-07  1.81e-06  5.25e-05  1.23e-05     3.4
   13    -82.5953848224356761    -2.35e-08  6.64e-07  1.91e-05  8.98e-06     3.3
   14    -82.5953848195621276     2.87e-09  2.51e-07  8.44e-06  3.22e-06     2.9
                 **** Energy Check signals convergence ****

               *****************************************************
               *                     SUCCESS                       *
               *           SCF CONVERGED AFTER  14 CYCLES          *
               *****************************************************

Recomputing exchange energy using gridx3       ... done (    3.792 sec)
Old exchange energy                            :    -11.888110071 Eh
New exchange energy                            :    -11.888130034 Eh
Exchange energy change after final integration :     -0.000019964 Eh
Total energy after final integration           :    -82.595404783 Eh
             **** ENERGY FILE WAS UPDATED (./output/geranial/geranial.en.tmp) ****

----------------
TOTAL SCF ENERGY
----------------

Total Energy       :        -82.59540478319450 Eh           -2247.53523 eV

Components:
Nuclear Repulsion  :        317.32979138653843 Eh            8634.98262 eV
Electronic Energy  :       -399.92517620610056 Eh          -10882.51730 eV
One Electron Energy:       -753.44963889538087 Eh          -20502.40700 eV
Two Electron Energy:        353.52446268928031 Eh            9619.88970 eV

Virial components:
Potential Energy   :       -146.68276068998384 Eh           -3991.44084 eV
Kinetic Energy     :         64.08735590678934 Eh            1743.90561 eV
Virial Ratio       :          2.28879407824726

DFT components:
N(Alpha)           :       31.000053583244 electrons
N(Beta)            :       31.000053583244 electrons
N(Total)           :       62.000107166488 electrons
E(X)               :      -12.590289235004 Eh       
E(C)               :       -2.315836014225 Eh       
E(XC)              :      -14.906125249229 Eh       

---------------
SCF CONVERGENCE
---------------

  Last Energy change         ...   -2.8735e-09  Tolerance :   1.0000e-08
  Last MAX-Density change    ...    8.4421e-06  Tolerance :   1.0000e-07
  Last RMS-Density change    ...    2.5113e-07  Tolerance :   5.0000e-09
  Last DIIS Error            ...    9.4659e-04  Tolerance :   5.0000e-07
  Last Orbital Gradient      ...    3.2208e-06  Tolerance :   1.0000e-05
  Last Orbital Rotation      ...    9.0184e-06  Tolerance :   1.0000e-05


----------------
ORBITAL ENERGIES
----------------

  NO   OCC          E(Eh)            E(eV) 
   0   2.0000      -1.138866       -30.9901 
   1   2.0000      -0.976811       -26.5804 
   2   2.0000      -0.947358       -25.7789 
   3   2.0000      -0.892896       -24.2969 
   4   2.0000      -0.853445       -23.2234 
   5   2.0000      -0.821658       -22.3584 
   6   2.0000      -0.810318       -22.0499 
   7   2.0000      -0.749350       -20.3909 
   8   2.0000      -0.725584       -19.7442 
   9   2.0000      -0.647525       -17.6200 
  10   2.0000      -0.625920       -17.0321 
  11   2.0000      -0.608434       -16.5563 
  12   2.0000      -0.577442       -15.7130 
  13   2.0000      -0.564083       -15.3495 
  14   2.0000      -0.559266       -15.2184 
  15   2.0000      -0.546265       -14.8646 
  16   2.0000      -0.537986       -14.6393 
  17   2.0000      -0.533535       -14.5182 
  18   2.0000      -0.512247       -13.9389 
  19   2.0000      -0.502295       -13.6682 
  20   2.0000      -0.497910       -13.5488 
  21   2.0000      -0.494773       -13.4635 
  22   2.0000      -0.480437       -13.0734 
  23   2.0000      -0.479253       -13.0412 
  24   2.0000      -0.463958       -12.6249 
  25   2.0000      -0.447408       -12.1746 
  26   2.0000      -0.440120       -11.9763 
  27   2.0000      -0.425074       -11.5669 
  28   2.0000      -0.360043        -9.7973 
  29   2.0000      -0.357771        -9.7355 
  30   2.0000      -0.319579        -8.6962 
  31   0.0000       0.009417         0.2563 
  32   0.0000       0.080923         2.2020 
  33   0.0000       0.089505         2.4355 
  34   0.0000       0.092976         2.5300 
  35   0.0000       0.097884         2.6636 
  36   0.0000       0.106335         2.8935 
  37   0.0000       0.120649         3.2830 
  38   0.0000       0.123848         3.3701 
  39   0.0000       0.133272         3.6265 
  40   0.0000       0.141195         3.8421 
  41   0.0000       0.144394         3.9292 
*Only the first 10 virtual orbitals were printed.

                    ********************************
                    * MULLIKEN POPULATION ANALYSIS *
                    ********************************

-----------------------
MULLIKEN ATOMIC CHARGES
-----------------------
   0 C :   -0.097836
   1 C :   -0.087990
   2 C :    0.001226
   3 C :   -0.082788
   4 C :   -0.064477
   5 C :   -0.038729
   6 C :   -0.025606
   7 C :    0.195578
   8 O :   -0.346940
   9 C :   -0.087288
  10 C :   -0.097200
  11 H :    0.032358
  12 H :    0.058144
  13 H :    0.052875
  14 H :    0.006291
  15 H :    0.074462
  16 H :    0.044753
  17 H :    0.082631
  18 H :    0.037947
  19 H :    0.019938
  20 H :    0.007921
  21 H :    0.042813
  22 H :    0.069067
  23 H :    0.063332
  24 H :    0.034008
  25 H :    0.049478
  26 H :    0.056032
Sum of atomic charges:    0.0000000

--------------------------------
MULLIKEN REDUCED ORBITAL CHARGES
--------------------------------
  0 C s       :     0.959589  s :     0.959589
      pz      :     1.030935  p :     3.064316
      px      :     0.999097
      py      :     1.034284
      dz2     :     0.016441  d :     0.073931
      dxz     :     0.016755
      dyz     :     0.007413
      dx2y2   :     0.022258
      dxy     :     0.011064

  1 C s       :     1.108377  s :     1.108377
      pz      :     0.946774  p :     2.861445
      px      :     0.970900
      py      :     0.943771
      dz2     :     0.025232  d :     0.118168
      dxz     :     0.030535
      dyz     :     0.014832
      dx2y2   :     0.020773
      dxy     :     0.026796

  2 C s       :     1.028960  s :     1.028960
      pz      :     0.976906  p :     2.879995
      px      :     0.918439
      py      :     0.984650
      dz2     :     0.016807  d :     0.089820
      dxz     :     0.021611
      dyz     :     0.010933
      dx2y2   :     0.018138
      dxy     :     0.022331

  3 C s       :     1.009294  s :     1.009294
      pz      :     1.029511  p :     2.972372
      px      :     0.922424
      py      :     1.020438
      dz2     :     0.024903  d :     0.101122
      dxz     :     0.021244
      dyz     :     0.009343
      dx2y2   :     0.027479
      dxy     :     0.018153

  4 C s       :     0.990437  s :     0.990437
      pz      :     1.007094  p :     2.975958
      px      :     0.910614
      py      :     1.058250
      dz2     :     0.024453  d :     0.098082
      dxz     :     0.018625
      dyz     :     0.013885
      dx2y2   :     0.023534
      dxy     :     0.017584

  5 C s       :     1.132351  s :     1.132351
      pz      :     0.938475  p :     2.782761
      px      :     0.926230
      py      :     0.918056
      dz2     :     0.029573  d :     0.123616
      dxz     :     0.020200
      dyz     :     0.022391
      dx2y2   :     0.026654
      dxy     :     0.024799

  6 C s       :     0.989993  s :     0.989993
      pz      :     1.001098  p :     2.957077
      px      :     1.015011
      py      :     0.940968
      dz2     :     0.013812  d :     0.078537
      dxz     :     0.012234
      dyz     :     0.019821
      dx2y2   :     0.016625
      dxy     :     0.016046

  7 C s       :     1.114613  s :     1.114613
      pz      :     0.850873  p :     2.515725
      px      :     0.810851
      py      :     0.854001
      dz2     :     0.021760  d :     0.174084
      dxz     :     0.041094
      dyz     :     0.026719
      dx2y2   :     0.053082
      dxy     :     0.031429

  8 O s       :     1.793396  s :     1.793396
      pz      :     1.619293  p :     4.519802
      px      :     1.365559
      py      :     1.534949
      dz2     :     0.004056  d :     0.033742
      dxz     :     0.005205
      dyz     :     0.005306
      dx2y2   :     0.010078
      dxy     :     0.009097

  9 C s       :     0.956374  s :     0.956374
      pz      :     1.042792  p :     3.060225
      px      :     1.048999
      py      :     0.968434
      dz2     :     0.008199  d :     0.070690
      dxz     :     0.014222
      dyz     :     0.020728
      dx2y2   :     0.017266
      dxy     :     0.010275

 10 C s       :     0.957321  s :     0.957321
      pz      :     0.994005  p :     3.066576
      px      :     1.051038
      py      :     1.021533
      dz2     :     0.018200  d :     0.073303
      dxz     :     0.016283
      dyz     :     0.013238
      dx2y2   :     0.019418
      dxy     :     0.006162

 11 H s       :     0.923505  s :     0.923505
      pz      :     0.013214  p :     0.044137
      px      :     0.020419
      py      :     0.010503

 12 H s       :     0.897850  s :     0.897850
      pz      :     0.010279  p :     0.044006
      px      :     0.010424
      py      :     0.023303

 13 H s       :     0.903108  s :     0.903108
      pz      :     0.021925  p :     0.044017
      px      :     0.010340
      py      :     0.011752

 14 H s       :     0.943983  s :     0.943983
      pz      :     0.021909  p :     0.049726
      px      :     0.010036
      py      :     0.017781

 15 H s       :     0.882077  s :     0.882077
      pz      :     0.022005  p :     0.043461
      px      :     0.009753
      py      :     0.011703

 16 H s       :     0.913154  s :     0.913154
      pz      :     0.009438  p :     0.042093
      px      :     0.009964
      py      :     0.022691

 17 H s       :     0.872906  s :     0.872906
      pz      :     0.009711  p :     0.044463
      px      :     0.009385
      py      :     0.025367

 18 H s       :     0.919409  s :     0.919409
      pz      :     0.021059  p :     0.042644
      px      :     0.009973
      py      :     0.011611

 19 H s       :     0.930155  s :     0.930155
      pz      :     0.013468  p :     0.049907
      px      :     0.021310
      py      :     0.015129

 20 H s       :     0.949174  s :     0.949174
      pz      :     0.019447  p :     0.042906
      px      :     0.013968
      py      :     0.009491

 21 H s       :     0.913215  s :     0.913215
      pz      :     0.017795  p :     0.043972
      px      :     0.014655
      py      :     0.011523

 22 H s       :     0.886500  s :     0.886500
      pz      :     0.012169  p :     0.044433
      px      :     0.022175
      py      :     0.010089

 23 H s       :     0.892480  s :     0.892480
      pz      :     0.016978  p :     0.044188
      px      :     0.010268
      py      :     0.016942

 24 H s       :     0.921720  s :     0.921720
      pz      :     0.011382  p :     0.044272
      px      :     0.022534
      py      :     0.010356

 25 H s       :     0.906040  s :     0.906040
      pz      :     0.010556  p :     0.044482
      px      :     0.011033
      py      :     0.022893

 26 H s       :     0.899451  s :     0.899451
      pz      :     0.018167  p :     0.044517
      px      :     0.014254
      py      :     0.012096



                     *******************************
                     * LOEWDIN POPULATION ANALYSIS *
                     *******************************

----------------------
LOEWDIN ATOMIC CHARGES
----------------------
   0 C :   -0.120852
   1 C :   -0.053380
   2 C :   -0.051444
   3 C :   -0.082064
   4 C :   -0.077024
   5 C :    0.024010
   6 C :   -0.088613
   7 C :    0.029942
   8 O :   -0.175581
   9 C :   -0.105838
  10 C :   -0.116498
  11 H :    0.047119
  12 H :    0.055522
  13 H :    0.053357
  14 H :    0.036603
  15 H :    0.055155
  16 H :    0.047172
  17 H :    0.060425
  18 H :    0.049249
  19 H :    0.040885
  20 H :    0.036771
  21 H :    0.054501
  22 H :    0.062982
  23 H :    0.060761
  24 H :    0.049531
  25 H :    0.052033
  26 H :    0.055275

-------------------------------
LOEWDIN REDUCED ORBITAL CHARGES
-------------------------------
  0 C s       :     0.778356  s :     0.778356
      pz      :     1.047714  p :     3.104317
      px      :     1.009221
      py      :     1.047382
      dz2     :     0.054883  d :     0.238178
      dxz     :     0.052310
      dyz     :     0.024396
      dx2y2   :     0.074213
      dxy     :     0.032376

  1 C s       :     0.801264  s :     0.801264
      pz      :     0.949929  p :     2.876964
      px      :     1.022768
      py      :     0.904266
      dz2     :     0.079813  d :     0.375153
      dxz     :     0.098133
      dyz     :     0.047338
      dx2y2   :     0.071082
      dxy     :     0.078788

  2 C s       :     0.805505  s :     0.805505
      pz      :     1.000874  p :     2.950871
      px      :     1.000123
      py      :     0.949875
      dz2     :     0.054570  d :     0.295067
      dxz     :     0.071750
      dyz     :     0.036136
      dx2y2   :     0.066681
      dxy     :     0.065929

  3 C s       :     0.760495  s :     0.760495
      pz      :     1.025518  p :     3.002042
      px      :     0.938327
      py      :     1.038197
      dz2     :     0.083609  d :     0.319526
      dxz     :     0.062780
      dyz     :     0.030723
      dx2y2   :     0.087289
      dxy     :     0.055124

  4 C s       :     0.761438  s :     0.761438
      pz      :     1.009787  p :     3.006403
      px      :     0.939425
      py      :     1.057192
      dz2     :     0.079681  d :     0.309183
      dxz     :     0.058015
      dyz     :     0.041076
      dx2y2   :     0.075166
      dxy     :     0.055244

  5 C s       :     0.809817  s :     0.809817
      pz      :     0.925645  p :     2.787185
      px      :     0.924313
      py      :     0.937227
      dz2     :     0.080762  d :     0.378988
      dxz     :     0.068001
      dyz     :     0.072579
      dx2y2   :     0.083237
      dxy     :     0.074409

  6 C s       :     0.807763  s :     0.807763
      pz      :     1.008565  p :     3.012671
      px      :     1.015690
      py      :     0.988416
      dz2     :     0.042230  d :     0.268179
      dxz     :     0.045512
      dyz     :     0.073136
      dx2y2   :     0.053931
      dxy     :     0.053369

  7 C s       :     0.823066  s :     0.823066
      pz      :     0.887940  p :     2.654471
      px      :     0.858520
      py      :     0.908011
      dz2     :     0.063104  d :     0.492521
      dxz     :     0.112479
      dyz     :     0.072096
      dx2y2   :     0.133871
      dxy     :     0.110971

  8 O s       :     1.560071  s :     1.560071
      pz      :     1.560439  p :     4.545777
      px      :     1.429780
      py      :     1.555558
      dz2     :     0.008977  d :     0.069732
      dxz     :     0.012813
      dyz     :     0.008694
      dx2y2   :     0.017434
      dxy     :     0.021815

  9 C s       :     0.777144  s :     0.777144
      pz      :     1.052601  p :     3.099454
      px      :     1.057510
      py      :     0.989343
      dz2     :     0.025000  d :     0.229240
      dxz     :     0.045837
      dyz     :     0.068851
      dx2y2   :     0.055899
      dxy     :     0.033652

 10 C s       :     0.777520  s :     0.777520
      pz      :     1.004198  p :     3.103607
      px      :     1.059248
      py      :     1.040162
      dz2     :     0.056052  d :     0.235371
      dxz     :     0.054679
      dyz     :     0.042114
      dx2y2   :     0.063885
      dxy     :     0.018641

 11 H s       :     0.807483  s :     0.807483
      pz      :     0.046022  p :     0.145398
      px      :     0.058529
      py      :     0.040847

 12 H s       :     0.797596  s :     0.797596
      pz      :     0.041065  p :     0.146882
      px      :     0.039858
      py      :     0.065958

 13 H s       :     0.799612  s :     0.799612
      pz      :     0.064036  p :     0.147031
      px      :     0.039699
      py      :     0.043296

 14 H s       :     0.809703  s :     0.809703
      pz      :     0.064874  p :     0.153694
      px      :     0.033600
      py      :     0.055220

 15 H s       :     0.795219  s :     0.795219
      pz      :     0.067400  p :     0.149626
      px      :     0.037785
      py      :     0.044442

 16 H s       :     0.804852  s :     0.804852
      pz      :     0.040902  p :     0.147976
      px      :     0.038467
      py      :     0.068606

 17 H s       :     0.787180  s :     0.787180
      pz      :     0.043077  p :     0.152395
      px      :     0.036084
      py      :     0.073233

 18 H s       :     0.804535  s :     0.804535
      pz      :     0.064264  p :     0.146216
      px      :     0.036855
      py      :     0.045097

 19 H s       :     0.803935  s :     0.803935
      pz      :     0.044037  p :     0.155181
      px      :     0.062370
      py      :     0.048773

 20 H s       :     0.825935  s :     0.825935
      pz      :     0.058810  p :     0.137294
      px      :     0.045719
      py      :     0.032764

 21 H s       :     0.801155  s :     0.801155
      pz      :     0.055198  p :     0.144344
      px      :     0.049452
      py      :     0.039695

 22 H s       :     0.790414  s :     0.790414
      pz      :     0.043616  p :     0.146604
      px      :     0.063941
      py      :     0.039047

 23 H s       :     0.792678  s :     0.792678
      pz      :     0.053305  p :     0.146562
      px      :     0.041229
      py      :     0.052027

 24 H s       :     0.805197  s :     0.805197
      pz      :     0.040381  p :     0.145272
      px      :     0.064843
      py      :     0.040049

 25 H s       :     0.799883  s :     0.799883
      pz      :     0.040442  p :     0.148084
      px      :     0.042543
      py      :     0.065099

 26 H s       :     0.796843  s :     0.796843
      pz      :     0.055326  p :     0.147883
      px      :     0.049208
      py      :     0.043349



                      *****************************
                      * MAYER POPULATION ANALYSIS *
                      *****************************

  NA   - Mulliken gross atomic population
  ZA   - Total nuclear charge
  QA   - Mulliken gross atomic charge
  VA   - Mayer's total valence
  BVA  - Mayer's bonded valence
  FA   - Mayer's free valence

  ATOM       NA         ZA         QA         VA         BVA        FA
  0 C      4.0978     4.0000    -0.0978     3.9729     3.9729     0.0000
  1 C      4.0880     4.0000    -0.0880     4.0644     4.0644    -0.0000
  2 C      3.9988     4.0000     0.0012     3.9746     3.9746     0.0000
  3 C      4.0828     4.0000    -0.0828     4.0048     4.0048     0.0000
  4 C      4.0645     4.0000    -0.0645     3.9851     3.9851     0.0000
  5 C      4.0387     4.0000    -0.0387     4.0781     4.0781    -0.0000
  6 C      4.0256     4.0000    -0.0256     3.9433     3.9433     0.0000
  7 C      3.8044     4.0000     0.1956     4.0466     4.0466     0.0000
  8 O      6.3469     6.0000    -0.3469     1.9643     1.9643    -0.0000
  9 C      4.0873     4.0000    -0.0873     3.9606     3.9606    -0.0000
 10 C      4.0972     4.0000    -0.0972     3.9863     3.9863     0.0000
 11 H      0.9676     1.0000     0.0324     1.0303     1.0303     0.0000
 12 H      0.9419     1.0000     0.0581     1.0208     1.0208     0.0000
 13 H      0.9471     1.0000     0.0529     1.0222     1.0222     0.0000
 14 H      0.9937     1.0000     0.0063     1.0429     1.0429     0.0000
 15 H      0.9255     1.0000     0.0745     0.9896     0.9896     0.0000
 16 H      0.9552     1.0000     0.0448     0.9988     0.9988     0.0000
 17 H      0.9174     1.0000     0.0826     1.0113     1.0113     0.0000
 18 H      0.9621     1.0000     0.0379     1.0135     1.0135     0.0000
 19 H      0.9801     1.0000     0.0199     1.0412     1.0412     0.0000
 20 H      0.9921     1.0000     0.0079     1.0374     1.0374     0.0000
 21 H      0.9572     1.0000     0.0428     1.0327     1.0327    -0.0000
 22 H      0.9309     1.0000     0.0691     1.0225     1.0225    -0.0000
 23 H      0.9367     1.0000     0.0633     1.0237     1.0237    -0.0000
 24 H      0.9660     1.0000     0.0340     1.0308     1.0308     0.0000
 25 H      0.9505     1.0000     0.0495     1.0211     1.0211     0.0000
 26 H      0.9440     1.0000     0.0560     1.0218     1.0218     0.0000

  Mayer bond orders larger than 0.100000
B(  0-C ,  1-C ) :   1.0125 B(  0-C , 11-H ) :   0.9951 B(  0-C , 12-H ) :   0.9850 
B(  0-C , 13-H ) :   0.9861 B(  1-C ,  2-C ) :   1.9051 B(  1-C , 10-C ) :   1.0211 
B(  2-C ,  3-C ) :   1.0164 B(  2-C , 14-H ) :   0.9959 B(  3-C ,  4-C ) :   0.9604 
B(  3-C , 15-H ) :   0.9854 B(  3-C , 16-H ) :   0.9852 B(  4-C ,  5-C ) :   1.0371 
B(  4-C , 17-H ) :   0.9763 B(  4-C , 18-H ) :   0.9919 B(  5-C ,  6-C ) :   1.7828 
B(  5-C ,  9-C ) :   1.0302 B(  6-C ,  7-C ) :   1.1264 B(  6-C , 19-H ) :   0.9859 
B(  7-C ,  8-O ) :   1.8439 B(  7-C , 20-H ) :   1.0130 B(  9-C , 21-H ) :   0.9926 
B(  9-C , 22-H ) :   0.9772 B(  9-C , 23-H ) :   0.9773 B( 10-C , 24-H ) :   0.9947 
B( 10-C , 25-H ) :   0.9823 B( 10-C , 26-H ) :   0.9810 

-------
TIMINGS
-------

Total SCF time: 0 days 0 hours 1 min 2 sec 

Total time                  ....      62.637 sec
Sum of individual times     ....      60.587 sec  ( 96.7%)

SCF preparation             ....       2.332 sec  (  3.7%)
Fock matrix formation       ....      55.265 sec  ( 88.2%)
  Startup                   ....       0.602 sec  (  1.1% of F)
  Split-RI-J                ....       2.077 sec  (  3.8% of F)
  Chain of spheres X        ....      25.487 sec  ( 46.1% of F)
  XC integration            ....      25.661 sec  ( 46.4% of F)
    XC Preparation          ....       0.000 sec  (  0.0% of XC)
    Basis function eval.    ....       0.570 sec  (  2.2% of XC)
    Density eval.           ....       0.257 sec  (  1.0% of XC)
    XC-Functional eval.     ....       0.197 sec  (  0.8% of XC)
    XC-Potential eval.      ....       0.307 sec  (  1.2% of XC)
Diagonalization             ....       0.000 sec  (  0.0%)
Density matrix formation    ....       0.806 sec  (  1.3%)
Total Energy calculation    ....       0.460 sec  (  0.7%)
Population analysis         ....       0.103 sec  (  0.2%)
Orbital Transformation      ....       0.121 sec  (  0.2%)
Orbital Orthonormalization  ....       0.000 sec  (  0.0%)
DIIS solution               ....       1.081 sec  (  1.7%)
SOSCF solution              ....       0.419 sec  (  0.7%)
Finished LeanSCF after  62.7 sec

Maximum memory used throughout the entire LEANSCF-calculation: 41.3 MB


           ************************************************************
           *        Program running with 40 parallel MPI-processes    *
           *              working on a common directory               *
           ************************************************************

------------------------------------------------------------------------------
                         ORCA PROPERTY INTEGRAL CALCULATIONS
------------------------------------------------------------------------------

GBWName                                   ... ./output/geranial/geranial.gbw
Number of atoms                           ...     27
Number of basis functions                 ...    223
Max core memory                           ...   1024 MB

Dipole integrals                          ... YES
Quadrupole integrals                      ...  NO
Linear momentum integrals                 ...  NO
Angular momentum integrals                ...  NO
Higher moments length integrals           ...  NO
Higher moments velocity integrals         ...  NO
Kinetic energy integrals                  ...  NO
GIAO right hand sides                     ...  NO
GIAO dipole derivative integrals          ...  NO
SOC integrals                             ...  NO
EPR diamagnetic integrals (GIAO)          ...  NO
EPR gauge integrals                       ...  NO
Field gradient integrals                  ...  NO (   0 nuclei)
Spin-dipole/Fermi contact integrals       ...  NO (   0 nuclei)
Contact density integrals                 ...  NO (   0 nuclei)
Nucleus-orbit integrals                   ...  NO (   0 nuclei)
Geometric perturbations                   ...  NO (  27 nuclei)

Choice of electric origin   ... Center of mass
Position of electric origin ... (  0.5777, -0.4373, -0.2101) 
Choice of magnetic origin   ... GIAO
Position of magnetic origin ... (  0.0000,  0.0000,  0.0000) 

Calculating integrals                     ... Electric Dipole (Length)     done (  0.0 sec)

Property integrals calculated in   0.0 sec

Maximum memory used throughout the entire PROPINT-calculation: 17.4 MB


-------------------------------------------------------------------------------
                          DFT DISPERSION CORRECTION                            
                                                                               
                                DFTD4 V3.4.0                                   
-------------------------------------------------------------------------------
[...]
 24:    614.31   0.000866    4.38  0.000440  (-0.014888 -0.004443 -0.014095)
 25:    758.47   0.009697   49.01  0.003990  ( 0.033202 -0.051428 -0.015577)
 26:    783.74   0.000428    2.16  0.000170  (-0.008273  0.009924  0.001855)
 27:    832.08   0.000067    0.34  0.000025  (-0.001663  0.004601 -0.001067)
 28:    847.82   0.003567   18.02  0.001313  ( 0.021074 -0.007883  0.028399)
 29:    875.93   0.003787   19.14  0.001349  (-0.007550 -0.018503 -0.030819)
 30:    907.38   0.000527    2.67  0.000181  ( 0.000047  0.005527  0.012282)
 31:    985.80   0.000129    0.65  0.000041  ( 0.004302  0.003629 -0.003030)
 32:   1009.23   0.004911   24.82  0.001519  (-0.020297  0.030771  0.012645)
 33:   1022.07   0.000016    0.08  0.000005  ( 0.001786  0.001321  0.000016)
 34:   1035.71   0.000796    4.02  0.000240  ( 0.005146  0.006090  0.013272)
 35:   1046.39   0.000569    2.87  0.000170  ( 0.000856  0.001802  0.012871)
 36:   1058.77   0.000343    1.73  0.000101  ( 0.009324 -0.003165  0.002000)
 37:   1071.14   0.000821    4.15  0.000239  ( 0.002507  0.014985 -0.002869)
 38:   1094.28   0.000826    4.17  0.000235  (-0.010458  0.002961 -0.010831)
 39:   1118.36   0.004907   24.80  0.001369  ( 0.025935 -0.026097 -0.003937)
 40:   1128.81   0.000068    0.34  0.000019  (-0.001961 -0.001794 -0.003432)
 41:   1161.68   0.001656    8.37  0.000445  ( 0.020855  0.003078 -0.000568)
 42:   1189.91   0.000479    2.42  0.000126  (-0.009266  0.001759  0.006062)
 43:   1257.86   0.001598    8.08  0.000396  ( 0.017968 -0.006322 -0.005803)
 44:   1297.06   0.000617    3.12  0.000148  (-0.002439  0.011922 -0.000631)
 45:   1315.84   0.000507    2.56  0.000120  ( 0.009496 -0.005383  0.001031)
 46:   1354.00   0.001201    6.07  0.000277  ( 0.007496 -0.013876 -0.005295)
 47:   1390.05   0.000578    2.92  0.000130  ( 0.009014 -0.006921  0.000808)
 48:   1412.38   0.001855    9.37  0.000410  (-0.019193 -0.006101  0.002039)
 49:   1425.96   0.002063   10.43  0.000451  (-0.021132 -0.000877 -0.002035)
 50:   1444.21   0.002131   10.77  0.000460  (-0.017194 -0.012832  0.000457)
 51:   1450.45   0.000942    4.76  0.000203  ( 0.006092  0.010735 -0.007089)
 52:   1458.33   0.003240   16.37  0.000693  (-0.006601  0.025034 -0.004793)
 53:   1468.44   0.000636    3.22  0.000135  ( 0.005196 -0.008665 -0.005756)
 54:   1502.37   0.000208    1.05  0.000043  (-0.001889 -0.003411 -0.005284)
 55:   1506.67   0.002563   12.95  0.000531  ( 0.022214  0.006112 -0.000105)
 56:   1507.65   0.000673    3.40  0.000139  ( 0.002097 -0.006980  0.009287)
 57:   1512.28   0.003433   17.35  0.000708  ( 0.016099 -0.012693 -0.016972)
 58:   1522.41   0.005213   26.34  0.001069  ( 0.005412  0.005908  0.031691)
 59:   1523.93   0.000033    0.17  0.000007  (-0.000126  0.000381 -0.002578)
 60:   1528.45   0.003862   19.51  0.000788  ( 0.014574 -0.023376  0.005436)
 61:   1534.42   0.002398   12.12  0.000488  ( 0.005058  0.013566 -0.016675)
 62:   1732.19   0.055853  282.26  0.010062  ( 0.038696 -0.090404 -0.019798)
 63:   1809.17   0.000856    4.32  0.000148  (-0.011812  0.002822  0.000353)
 64:   1842.26   0.030865  155.98  0.005228  (-0.043932 -0.057034  0.006734)
 65:   3002.67   0.031348  158.42  0.003258  (-0.050113  0.022478  0.015538)
 66:   3093.56   0.006647   33.59  0.000671  (-0.020466 -0.013394  0.008503)
 67:   3099.26   0.008444   42.67  0.000850  (-0.024726  0.015335  0.001927)
 68:   3103.00   0.002161   10.92  0.000217  ( 0.000060 -0.014734  0.000484)
 69:   3113.68   0.003651   18.45  0.000366  (-0.007983  0.011970  0.012606)
 70:   3125.46   0.005324   26.91  0.000532  ( 0.001766  0.005565 -0.022305)
 71:   3168.54   0.000062    0.31  0.000006  (-0.000840 -0.001149 -0.002015)
 72:   3169.72   0.004350   21.98  0.000428  (-0.004731 -0.005389 -0.019413)
 73:   3175.25   0.000695    3.51  0.000068  (-0.004022  0.007137  0.001074)
 74:   3184.17   0.000827    4.18  0.000081  ( 0.004909 -0.001501  0.007399)
 75:   3197.22   0.000513    2.59  0.000050  (-0.004420  0.005521 -0.000102)
 76:   3204.58   0.000546    2.76  0.000053  (-0.004715 -0.005121  0.002165)
 77:   3209.71   0.004530   22.89  0.000440  (-0.005286  0.019883 -0.004144)
 78:   3218.06   0.001643    8.30  0.000159  ( 0.010612  0.005343 -0.004259)
 79:   3225.16   0.003706   18.73  0.000359  (-0.012911 -0.012144  0.006669)
 80:   3232.60   0.003135   15.84  0.000303  (-0.015027 -0.007101  0.005142)

* The epsilon (eps) is given for a Dirac delta lineshape.
** The dipole moment derivative (T) already includes vibrational overlap.

The first frequency considered to be a vibration is 6
The total number of vibrations considered is 75


--------------------------
THERMOCHEMISTRY AT 298.15K
--------------------------

Temperature         ...   298.15 K
Pressure            ...     1.00 atm
Total Mass          ...   152.24 AMU
Quasi RRHO          ...     True
Cut-Off Frequency   ...     1.00 cm^-1

Throughout the following assumptions are being made:
  (1) The electronic state is orbitally nondegenerate
  (2) There are no thermally accessible electronically excited states
  (3) Hindered rotations indicated by low frequency modes are not
      treated as such but are treated as vibrations and this may
      cause some error
  (4) All equations used are the standard statistical mechanics
      equations for an ideal gas
  (5) All vibrations are strictly harmonic

freq.      22.80  E(vib)   ...       0.56 
freq.      36.09  E(vib)   ...       0.54 
freq.      81.96  E(vib)   ...       0.48 
freq.      87.54  E(vib)   ...       0.48 
freq.     117.66  E(vib)   ...       0.44 
freq.     133.60  E(vib)   ...       0.42 
freq.     179.93  E(vib)   ...       0.37 
freq.     181.32  E(vib)   ...       0.37 
freq.     201.60  E(vib)   ...       0.35 
freq.     244.28  E(vib)   ...       0.31 
freq.     262.12  E(vib)   ...       0.29 
freq.     315.39  E(vib)   ...       0.25 
freq.     338.99  E(vib)   ...       0.23 
freq.     391.41  E(vib)   ...       0.20 
freq.     413.87  E(vib)   ...       0.19 
freq.     430.11  E(vib)   ...       0.18 
freq.     489.34  E(vib)   ...       0.15 
freq.     533.52  E(vib)   ...       0.13 
freq.     614.31  E(vib)   ...       0.10 
freq.     758.47  E(vib)   ...       0.06 
freq.     783.74  E(vib)   ...       0.05 
freq.     832.08  E(vib)   ...       0.04 
freq.     847.82  E(vib)   ...       0.04 
freq.     875.93  E(vib)   ...       0.04 
freq.     907.38  E(vib)   ...       0.03 
freq.     985.80  E(vib)   ...       0.02 
freq.    1009.23  E(vib)   ...       0.02 
freq.    1022.07  E(vib)   ...       0.02 
freq.    1035.71  E(vib)   ...       0.02 
freq.    1046.39  E(vib)   ...       0.02 
freq.    1058.77  E(vib)   ...       0.02 
freq.    1071.14  E(vib)   ...       0.02 
freq.    1094.28  E(vib)   ...       0.02 
freq.    1118.36  E(vib)   ...       0.01 
freq.    1128.81  E(vib)   ...       0.01 
freq.    1161.68  E(vib)   ...       0.01 
freq.    1189.91  E(vib)   ...       0.01 
freq.    1257.86  E(vib)   ...       0.01 
freq.    1297.06  E(vib)   ...       0.01 
freq.    1315.84  E(vib)   ...       0.01 
freq.    1354.00  E(vib)   ...       0.01 
freq.    1390.05  E(vib)   ...       0.00 
freq.    1412.38  E(vib)   ...       0.00 
freq.    1425.96  E(vib)   ...       0.00 
freq.    1444.21  E(vib)   ...       0.00 
freq.    1450.45  E(vib)   ...       0.00 
freq.    1458.33  E(vib)   ...       0.00 
freq.    1468.44  E(vib)   ...       0.00 
freq.    1502.37  E(vib)   ...       0.00 
freq.    1506.67  E(vib)   ...       0.00 
freq.    1507.65  E(vib)   ...       0.00 
freq.    1512.28  E(vib)   ...       0.00 
freq.    1522.41  E(vib)   ...       0.00 
freq.    1523.93  E(vib)   ...       0.00 
freq.    1528.45  E(vib)   ...       0.00 
freq.    1534.42  E(vib)   ...       0.00 
freq.    1732.19  E(vib)   ...       0.00 
freq.    1809.17  E(vib)   ...       0.00 
freq.    1842.26  E(vib)   ...       0.00 
freq.    3002.67  E(vib)   ...       0.00 
freq.    3093.56  E(vib)   ...       0.00 
freq.    3099.26  E(vib)   ...       0.00 
freq.    3103.00  E(vib)   ...       0.00 
freq.    3113.68  E(vib)   ...       0.00 
freq.    3125.46  E(vib)   ...       0.00 
freq.    3168.54  E(vib)   ...       0.00 
freq.    3169.72  E(vib)   ...       0.00 
freq.    3175.25  E(vib)   ...       0.00 
freq.    3184.17  E(vib)   ...       0.00 
freq.    3197.22  E(vib)   ...       0.00 
freq.    3204.58  E(vib)   ...       0.00 
freq.    3209.71  E(vib)   ...       0.00 
freq.    3218.06  E(vib)   ...       0.00 
freq.    3225.16  E(vib)   ...       0.00 
freq.    3232.60  E(vib)   ...       0.00 

------------
INNER ENERGY
------------

The inner energy is: U= E(el) + E(ZPE) + E(vib) + E(rot) + E(trans)
    E(el)   - is the total energy from the electronic structure calculation
              = E(kin-el) + E(nuc-el) + E(el-el) + E(nuc-nuc)
    E(ZPE)  - the the zero temperature vibrational energy from the frequency calculation
    E(vib)  - the the finite temperature correction to E(ZPE) due to population
              of excited vibrational states
    E(rot)  - is the rotational thermal energy
    E(trans)- is the translational thermal energy

Summary of contributions to the inner energy U:
Electronic energy                ...    -82.64563984 Eh
Zero point energy                ...      0.24222039 Eh     152.00 kcal/mol
Thermal vibrational correction   ...      0.01050894 Eh       6.59 kcal/mol
Thermal rotational correction    ...      0.00141627 Eh       0.89 kcal/mol
Thermal translational correction ...      0.00141627 Eh       0.89 kcal/mol
-----------------------------------------------------------------------
Total thermal energy                    -82.39007797 Eh


Summary of corrections to the electronic energy:
(perhaps to be used in another calculation)
Total thermal correction                  0.01334148 Eh       8.37 kcal/mol
Non-thermal (ZPE) correction              0.24222039 Eh     152.00 kcal/mol
-----------------------------------------------------------------------
Total correction                          0.25556187 Eh     160.37 kcal/mol


--------
ENTHALPY
--------

The enthalpy is H = U + kB*T
                kB is Boltzmann's constant
Total thermal energy              ...    -82.39007797 Eh 
Thermal Enthalpy correction       ...      0.00094421 Eh       0.59 kcal/mol
-----------------------------------------------------------------------
Total Enthalpy                    ...    -82.38913376 Eh


Note: Only C1 symmetry has been detected, increase convergence thresholds 
      if your molecule has a higher symmetry. Symmetry factor of 1.0 is   
      used for the rotational entropy correction. 
 

Note: Rotational entropy computed according to Herzberg 
Infrared and Raman Spectra, Chapter V,1, Van Nostrand Reinhold, 1945 
Point Group:  C1, Symmetry Number:   1  
Rotational constants in cm-1:     0.061107     0.017081     0.013986 

Vibrational entropy computed according to the QRRHO of S. Grimme
Chem.Eur.J. 2012 18 9955 using a reference frequency of 100.0 cm-1


-------
ENTROPY
-------

The entropy contributions are T*S = T*(S(el)+S(vib)+S(rot)+S(trans))
     S(el)   - electronic entropy
     S(vib)  - vibrational entropy
     S(rot)  - rotational entropy
     S(trans)- translational entropy
The entropies will be listed as multiplied by the temperature to get
units of energy

Electronic entropy                ...      0.00000000 Eh      0.00 kcal/mol
Vibrational entropy               ...      0.01903189 Eh     11.94 kcal/mol
Rotational entropy                ...      0.01476734 Eh      9.27 kcal/mol
Translational entropy             ...      0.01946646 Eh     12.22 kcal/mol
-----------------------------------------------------------------------
Final entropy term                ...      0.05326569 Eh     33.42 kcal/mol

In case the symmetry of your molecule has not been determined correctly
or in case you have a reason to use a different symmetry number we print 
out the resulting rotational entropy values for sn=1,12:

 non-linear molecules -----------------------------------
|  sn= 1 | S(rot)=       0.01476734 Eh      9.27 kcal/mol|
|  sn= 2 | S(rot)=       0.01411288 Eh      8.86 kcal/mol|
|  sn= 3 | S(rot)=       0.01373005 Eh      8.62 kcal/mol|
|  sn= 4 | S(rot)=       0.01345843 Eh      8.45 kcal/mol|
|  sn= 5 | S(rot)=       0.01324774 Eh      8.31 kcal/mol|
|  sn= 6 | S(rot)=       0.01307559 Eh      8.21 kcal/mol|
|  sn= 7 | S(rot)=       0.01293005 Eh      8.11 kcal/mol|
|  sn= 8 | S(rot)=       0.01280397 Eh      8.03 kcal/mol|
|  sn= 9 | S(rot)=       0.01269276 Eh      7.96 kcal/mol|
|  sn=10 | S(rot)=       0.01259328 Eh      7.90 kcal/mol|
|  sn=11 | S(rot)=       0.01250329 Eh      7.85 kcal/mol|
|  sn=12 | S(rot)=       0.01242114 Eh      7.79 kcal/mol|
 linear molecules ---------------------------------------
|  Dinfh | S(rot)=       0.00935716 Eh      5.87 kcal/mol|
|  Cinfv | S(rot)=       0.01001162 Eh      6.28 kcal/mol|
 --------------------------------------------------------


-------------------
GIBBS FREE ENERGY
-------------------

The Gibbs free energy is G = H - T*S

Total enthalpy                    ...    -82.38913376 Eh 
Total entropy correction          ...     -0.05326569 Eh    -33.42 kcal/mol
-----------------------------------------------------------------------
Final Gibbs free energy         ...    -82.44239945 Eh

For completeness - the Gibbs free energy minus the electronic energy
G-E(el)                           ...      0.20324039 Eh    127.53 kcal/mol


Maximum memory used throughout the entire PROP-calculation: 126.8 MB

--------------------------------
SUGGESTED CITATIONS FOR THIS RUN
--------------------------------

Below you find a list of papers that are relevant to this ORCA run
We neither can nor want to force you to cite these papers, but we appreciate if you do
You receive ORCA, which is the product of decades of hard work by many enthusiastic individuals, for free
The only thing we kindly ask in return is that you cite our papers,
We deeply appreciate it, if you show your appreciation for ORCA by not just citing the generic ORCA reference.

Please note that relegating all ORCA citations to the supporting information does *not* help us.
SI sections are not indexed - citations you put there will not count into any citation statistics
But we need these citations in order to attract the funding resources that allow us to do what we are doing

Therefore, if you are a happy ORCA user, please consider citing a few of the papers listed below in the main body of your paper

In addition to the list printed below, the program has created the file ./output/geranial/geranial.bibtex that contains the list in bibtex format
You can import this file easily into all common literature databanks and citation aid programs


List of essential papers. We consider these as the minimum necessary citations

  1. Neese,F.
     Software update: the ORCA program system, version 5.0
     WIRES Comput. Molec. Sci., 2022 12(1)e1606
     doi.org/10.1002/wcms.1606
  2. Mueller,M.; Hansen,A.; Grimme,S.
     wB97X-3c: A composite range-separated hybrid DFT method with a molecule-optimized polarized valence double-zeta basis set
     J. Chem. Phys., 2023 158 014103
     doi.org/10.1063/5.0133026

List of papers to cite with high priority. The work reported in these papers was absolutely
necessary for this run to complete.
Our perspective: the developers of density functionals and basis sets usually get cited in chemistry papers
Good! But without the algorithms to do something with them, the functionals or basis sets would not do anything.
Hence, in our opinion, the algorithm design and method developments papers are equally worthy of getting cited

  1. Neese,F.
     An improvement of the resolution of the identity approximation for the formation of the Coulomb matrix
     J. Comp. Chem., 2003 24(14)1740-1747
     doi.org/10.1002/jcc.10318
  2. Neese,F.; Wennmohs,F.; Hansen,A.; Becker,U.
     Efficient, approximate and parallel Hartree-Fock and hybrid DFT calculations. A 'chain-of-spheres' algorithm for the Hartree-Fock exchange
     Chem. Phys., 2009 356(1-3)98-109
     doi.org/10.1016/j.chemphys.2008.10.036
  3. Bykov,D.; Petrenko,T.; Izsak,R.; Kossmann,S.; Becker,U.; Valeev,E.; Neese,F.
     Efficient implementation of the analytic second derivatives of Hartree-Fock and hybrid DFT energies: a detailed analysis of different approximations
     Molec. Phys., 2015 113 1961-1977
     doi.org/10.1080/00268976.2015.1025114
  4. Helmich-Paris,B.; de Souza,B.; Neese,F.; Izsák,R.
     An improved chain of spheres for exchange algorithm
     J. Chem. Phys., 2021 155 104109
     doi.org/doi: 10.1063/5.0058766.
  5. Neese,F.
     The SHARK Integral Generation and Digestion System
     J. Comp. Chem., 2022  1-16
     doi.org/10.1002/jcc.26942
  6. Caldeweyher,E.; Bannwarth,C.; Grimme,S.
     Extension of the D3 dispersion coefficient model
     J. Chem. Phys., 2017 147 034112
     doi.org/10.1063/1.4993215
  7. Caldeweyher,E.; Ehlert,S.; Hansen,A.; Neugebauer,H.; Spicher,S.; Bannwarth,C.; Grimme,S.
     A generally applicable atomic-charge dependent London dispersion correction
     J. Chem. Phys., 2019 150 154122
     doi.org/10.1063/1.5090222
  8. Caldeweyher,E.; Mewes,J.; Ehlert,S.; Grimme,S.
     Extension and evaluation of the D4 London-dispersion model for periodic systems
     Phys. Chem. Chem. Phys., 2020 22(16)8499-8512
     doi.org/10.1039/D0CP00502A
  9. Wittmann,L.; Gordiy,I.; Friede,M.; Helmich-Paris,B.; Grimme,S.; Hansen,A.; Bursch,M.
     Extension of the D3 and D4 London Dispersion Corrections to the full Actinides Series
     Phys. Chem. Chem. Phys., 2024 26(32)21379-21394
     doi.org/https://doi.org/10.1039/D4CP01514B 

List of suggested additional citations. These are papers that are important in the 'surrounding' of 
of this run, or papers that preceded the highly important papers. If you like your results we are grateful for a citation.

  1. Izsak,R.; Neese,F.
     An overlap fitted chain of spheres exchange method
     J. Chem. Phys., 2011 135 144105
     doi.org/10.1063/1.3646921
  2. Izsak,R.; Hansen,A.; Neese,F.
     The resolution of identity and chain of spheres approximations for the LPNO-CCSD singles Fock term
     Molec. Phys., 2012 110 2413-2417
     doi.org/10.1080/00268976.2012.687466
  3. Neese,F.
     The ORCA program system
     WIRES Comput. Molec. Sci., 2012 2(1)73-78
     doi.org/10.1002/wcms.81
  4. Izsak,R.; Neese,F.; Klopper,W.
     Robust fitting techniques in the chain of spheres approximation to the Fock exchange: The role of the complementary space
     J. Chem. Phys., 2013 139 
     doi.org/10.1063/1.4819264
  5. Neese,F.
     Software update: the ORCA program system, version 4.0
     WIRES Comput. Molec. Sci., 2018 8(1)1-6
     doi.org/10.1002/wcms.1327
  6. Neese,F.; Wennmohs,F.; Becker,U.; Riplinger,C.
     The ORCA quantum chemistry program package
     J. Chem. Phys., 2020 152 Art. No. L224108
     doi.org/10.1063/5.0004608

List of optional additional citations

  1. Neese,F.
     Approximate second-order SCF convergence for spin unrestricted wavefunctions
     Chem. Phys. Lett., 2000 325(1-3)93-98
     doi.org/10.1016/s0009-2614(00)00662-x

Timings for individual modules:

Sum of individual times          ...     2724.409 sec (=  45.407 min)
Startup calculation              ...      161.276 sec (=   2.688 min)   5.9 %
SCF iterations                   ...     2002.471 sec (=  33.375 min)  73.5 %
Property integrals               ...       83.085 sec (=   1.385 min)   3.0 %
SCF Response                     ...       44.836 sec (=   0.747 min)   1.6 %
Property calculations            ...       86.452 sec (=   1.441 min)   3.2 %
SCF Gradient evaluation          ...      345.397 sec (=   5.757 min)  12.7 %
Geometry relaxation              ...        0.893 sec (=   0.015 min)   0.0 %
                             ****ORCA TERMINATED NORMALLY****
TOTAL RUN TIME: 0 days 0 hours 45 minutes 46 seconds 49 msec
