
                                 *****************
                                 * O   R   C   A *
                                 *****************

                                            #,                                       
                                            ###                                      
                                            ####                                     
                                            #####                                    
                                            ######                                   
                                           ########,                                 
                                     ,,################,,,,,                         
                               ,,#################################,,                 
                          ,,##########################################,,             
                       ,#########################################, ''#####,          
                    ,#############################################,,   '####,        
                  ,##################################################,,,,####,       
                ,###########''''           ''''###############################       
              ,#####''   ,,,,##########,,,,          '''####'''          '####       
            ,##' ,,,,###########################,,,                        '##       
           ' ,,###''''                  '''############,,,                           
         ,,##''                                '''############,,,,        ,,,,,,###''
      ,#''                                            '''#######################'''  
     '                                                          ''''####''''         
             ,#######,   #######,   ,#######,      ##                                
            ,#'     '#,  ##    ##  ,#'     '#,    #''#        ,####,   ,####,        
            ##       ##  ##   ,#'  ##            #'  '#       #'       #'  '#        
            ##       ##  #######   ##           ,######,      #####,   #    #        
            '#,     ,#'  ##    ##  '#,     ,#' ,#      #,     #,   #   #,  ,#        
             '#######'   ##     ##  '#######'  #'      '#     '####' # '####'        



                #########################################################
                #                        -***-                          #
                #          Department of theory and spectroscopy        #
                #                                                       #
                #                      Frank Neese                      #
                #                                                       #
                #     Directorship, Architecture, Infrastructure        #
                #                    SHARK, DRIVERS                     #
                #        Core code/Algorithms in most modules           #
                #                                                       #
                #        Max Planck Institute fuer Kohlenforschung      #
                #                Kaiser Wilhelm Platz 1                 #
                #                 D-45470 Muelheim/Ruhr                 #
                #                      Germany                          #
                #                                                       #
                #                  All rights reserved                  #
                #                        -***-                          #
                #########################################################


                         Program Version 6.0.1  -  RELEASE   -


 With contributions from (in alphabetic order):
[Max-Planck-Institut fuer Kohlenforschung]                               
  Daniel Aravena         : Magnetic Suceptibility                        
  Michael Atanasov       : Ab Initio Ligand Field Theory (pilot matlab implementation)
  Alexander A. Auer      : GIAO ZORA, VPT2 properties, NMR spectrum      
  Ute Becker             : All parallelization in ORCA, NUMFREQ, NUMCALC 
  Giovanni Bistoni       : ED, misc. LED, open-shell LED, HFLD           
  Martin Brehm           : Molecular dynamics                            
  Dmytro Bykov           : pre 5.0 version of the SCF Hessian            
  Marcos Casanova-Páez   : Triplet and SCS-CIS(D). UHF-(DLPNO)-IP/EA/STEOM-CCSD. UHF-CVS-IP/STEOM-CCSD   
  Vijay G. Chilkuri      : MRCI spin determinant printing, contributions to CSF-ICE 
  Pauline Colinet        : FMM embedding                                 
  Dipayan Datta          : RHF DLPNO-CCSD density                        
  Achintya Kumar Dutta   : EOM-CC, STEOM-CC                              
  Nicolas Foglia         : Exact transition moments, OPA infrastructure, MCD improvements    
  Dmitry Ganyushin       : Spin-Orbit,Spin-Spin,Magnetic field MRCI      
  Miquel Garcia-Rates    : C-PCM and meta-GGA Hessian, CCSD/C-PCM, Gaussian charge scheme 
  Tiago L. C. Gouveia    : GS-ROHF, GS-ROCIS                             
  Yang Guo               : DLPNO-NEVPT2, F12-NEVPT2, CIM, IAO-localization        
  Andreas Hansen         : Spin unrestricted coupled pair/coupled cluster methods 
  Ingolf Harden          : AUTO-CI MPn and infrastructure                
  Benjamin Helmich-Paris : MC-RPA, TRAH-(SCF,CASSCF), AVAS, COSX integrals, SCF dyn. polar. 
  Lee Huntington         : MR-EOM, pCC                                   
  Robert Izsak           : Overlap fitted RIJCOSX, COSX-SCS-MP3, EOM     
  Riya Kayal             : Wick's Theorem for AUTO-CI, AUTO-CI UHF-CCSDT 
  Emily Kempfer          : AUTO-CI, RHF CISDT and CCSDT                  
  Christian Kollmar      : KDIIS, OOCD, Brueckner-CCSD(T), CCSD density, CASPT2, CASPT2-K, improved NEVPT2 
  Axel Koslowski         : Symmetry handling                             
  Simone Kossmann        : meta-GGA functionals, TD-DFT gradient, OOMP2, (MP2 Hessian; deprecated post 5.0) 
  Lucas Lang             : DCDCAS                                        
  Marvin Lechner         : AUTO-CI (C++ implementation), FIC-MRCC        
  Spencer Leger          : CASSCF response                               
  Dagmar Lenk            : GEPOL surface, SMD, ORCA-2-JSON               
  Dimitrios Liakos       : Extrapolation schemes; Compound Job, initial MDCI parallelization 
  Dimitrios Manganas     : Further ROCIS development; embedding schemes. LFT, Crystal Embedding 
  Dimitrios Pantazis     : SARC Basis sets                               
  Anastasios Papadopoulos: AUTO-CI, single reference methods and gradients 
  Taras Petrenko         : pre 6.0 DFT Hessian and TD-DFT gradient, (ASA, deprecated), ECA, 1-Electron XAS/XES, NRVS 
  Peter Pinski           : DLPNO-MP2, DLPNO-MP2 Gradient                 
  Christoph Reimann      : Effective Core Potentials                     
  Marius Retegan         : Local ZFS, SOC                                
  Christoph Riplinger    : Optimizer, TS searches, QM/MM, DLPNO-CCSD(T), (RO)-DLPNO pert. Triples 
  Michael Roemelt        : Original ROCIS implementation                 
  Masaaki Saitow         : Open-shell DLPNO-CCSD energy and density      
  Barbara Sandhoefer     : DKH picture change effects                    
  Kantharuban Sivalingam : CASSCF convergence/infrastructure, NEVPT2 and variants, FIC-MRCI 
  Bernardo de Souza      : ESD, SOC TD-DFT                               
  Georgi L. Stoychev     : AutoAux, RI-MP2 NMR, DLPNO-MP2 response, X2C  
  Van Anh Tran           : RI-MP2 g-tensors                              
  Willem Van den Heuvel  : Paramagnetic NMR                              
  Zikuan Wang            : NOTCH, Electric field optimization            
  Frank Wennmohs         : Technical directorship and infrastructure     
  Hang Xu                : AUTO-CI-Response properties                   
                                                                         
[FACCTs GmbH]                                                            
  Markus Bursch, Miquel Garcia-Rates, Christoph Riplinger, Bernardo de Souza, Georgi L. Stoychev 
                                                                 
  APM, Basis sets (HGBS, AHGBS, def-TZVP (Ac-Lr), def2-XVPD (La-Lu)), CI-OPT, improved COSX, DLPNO-Multilevel,           
  DOCKER, DRACO, updates on ESD, GOAT, IRC, LR-CPCM, MBIS, meta-GGA TD-DFT gradient, ML-optimized integration grids, 
  MM, NACMEs, nearIR, NEB, NEB-TS, NL-DFT gradient (VV10), 2- and 3-layer-ONIOM, interface openCOSMO-RS, QMMM,   
  Crystal-QMMM, SF, symmetry and pop. for TD-DFT, r2SCAN hybrids, SOLVATOR                                   
                                                                         
[Other institutions]                                                     
  V. Asgeirsson          : NEB                                           
  Christoph Bannwarth    : sTDA-DFT, sTD-DFT, PBEh-3c, B97-3c, D3        
  Sebastian Ehlert       : rSCAN, r2SCAN, r2SCAN-3c, D4, dhf basis sets  
  Marvin Friede          : D4 for Fr, Ra, Ac-Lr                          
  Lars Goerigk           : TD-DFT with DH, B97 family of functionals     
  Stefan Grimme          : VdW corrections, initial TS optimization, DFT functionals, gCP, sTDA/sTD-DF 
  Waldemar Hujo          : DFT-NL                                        
  H. Jonsson             : NEB                                           
  Holger Kruse           : gCP                                           
  Marcel Mueller         : wB97X-3c, vDZP basis set                      
  Hagen Neugebauer       : wr2SCAN                                       
  Tobias Risthaus        : range-separated hybrid DFT                    
  Lukas Wittmann         : regularized MP2, r2SCAN double-hybrids, wr2SCAN        
                                                                         
We gratefully acknowledge several colleagues who have allowed us to      
interface, adapt or use parts of their codes:                            
  Ed Valeev, F. Pavosevic, A. Kumar             : LibInt (2-el integral package), F12 methods 
  Garnet Chan, S. Sharma, J. Yang, R. Olivares  : DMRG                   
  Ulf Ekstrom                                   : XCFun DFT Library      
  Mihaly Kallay                                 : mrcc  (arbitrary order and MRCC methods)
  Frank Weinhold                                : gennbo (NPA and NBO analysis)           
  Simon Mueller                                 : openCOSMO-RS                            
  Christopher J. Cramer and Donald G. Truhlar   : smd solvation model                     
  S Lehtola, MJT Oliveira, MAL Marques          : LibXC Library                           
  Liviu Ungur et al                             : ANISO software                          


 Your calculation uses the libint2 library for the computation of 2-el integrals
 For citations please refer to: http://libint.valeyev.net

 Your ORCA version has been built with support for libXC version: 6.2.2
 For citations please refer to: https://libxc.gitlab.io

 This ORCA versions uses:
   CBLAS   interface :  Fast vector & matrix operations
   LAPACKE interface :  Fast linear algebra routines
   SCALAPACK package :  Parallel linear algebra routines
   Shared memory     :  Shared parallel matrices
   BLAS/LAPACK       :  OpenBLAS 0.3.27  USE64BITINT DYNAMIC_ARCH NO_AFFINITY SkylakeX SINGLE_THREADED
        Core in use  :  SkylakeX
   Copyright (c) 2011-2014, The OpenBLAS Project


Your calculation utilizes the atom-pairwise dispersion correction
based on EEQ partial charges (D4)


================================================================================

cite the ECPs for C  [vDZP-ECP] as follows:
   B-Ne (ecp-2-mwb), Al-Ar (ecp-10-mwb), Ga-Kr (ecp-28-mwb), Y-Cd (ecp-28-mwb), In-Xe (ecp-46-mwb):
     A. Bergner, M. Dolg, W. Küchle, H. Stoll, and H. Preuß, Mol. Phys. 80, 1431 (1993)., T. Leininger, A. Berning, A. Nicklass, H. Stoll, H.-J. Werner, and H.-J.Flad, Chem. Phys. 217, 19 (1997).
   Na-Mg, K-Ca, Rb-Sr, Cs-Ba (CRENBL):
     L. Fernandez Pacios and P. A. Christiansen, J. Chem. Phys. 82, 2664 (1985)., M. M. Hurley, L. F. Pacios, P. A. Christiansen, R. B. Ross, and W. C. Ermler, J. Chem. Phys. 84, 6840 (1986)., L. A. LaJohn, P. A. Christiansen, R. B. Ross, T. Atashroo, and W. C. Ermler, J. Chem. Phys. 87, 2812 (1987)., R. B. Ross, J. M. Powers, T. Atashroo, W. C. Ermler, L. A. LaJohn, and P. A. Christiansen, J. Chem. Phys. 93, 6654 (1990). 
   Sc-Zn (ecp-10-mdf):
     M. Dolg, U. Wedig, H. Stoll, and H. Preuss, J. Chem. Phys. 86, 866 (1986). 
   Y-Cd (ecp-28-mwb), Hf-Hg (ecp-60-mwb):
     D. Andrae, U. Häußermann, M. Dolg, H. Stoll, and H. Preuß, Theor. Chim. Acta 77, 123 (1990). 
   La (ecp-46-mwb):
     M. Dolg, H. Stoll, and H. Preuss, J. Chem. Phys. 90, 1730 (1989)., M. Dolg, H. Stoll, and H. Preuss, Theor. Chim. Acta 85, 441 (1993).
   Ce-Lu (SBKJC-ecp):
     T. R. Cundari and W. J. Stevens, J. Chem. Phys. 98, 5555 (1993).
   Tl-Rn (ecp-78-mwb):
     W. Küchle, M. Dolg, H. Stoll, and H. Preuss, Mol. Phys. 74, 1245 (1991).

ECP parameters for C  [vDZP-ECP] have been obtained from:
MM, AH, SG, J. Chem. Phys. 158, 014103 (2023), 10.1063/5.0133026

----- Orbital basis set information -----
Your calculation utilizes the basis: vDZP
   Marcel Mueller, Andreas Hansen, Stefan Grimme 
   J. Chem. Phys. 158, 014103 (2023). DOI: 10.1063/5.0133026

----- AuxJ basis set information -----
Your calculation utilizes the auxiliary basis: def2/J
   F. Weigend, Phys. Chem. Chem. Phys. 8, 1057 (2006).

================================================================================
                                        WARNINGS
                       Please study these warnings very carefully!
================================================================================

WARNING: Frozen-Core approximation turned on, but there are no core electrons.
  ===> : Turning off frozen-core approximation


WARNING: Geometry Optimization
  ===> : Switching off AutoStart
         For restart on a previous wavefunction, please use MOREAD

================================================================================
                                       INPUT FILE
================================================================================
NAME = ./output/isoledene/isoledene.inp
|  1> ! wB97X-3c OPT FREQ TightSCF
|  2> %pal
|  3>   nprocs 40
|  4> end
|  5> * xyz 0 1
|  6> C     -1.892010     2.271061    -2.096567
|  7> C     -0.761531     1.400136    -1.524789
|  8> C      0.187395     2.246392    -0.659480
|  9> C      1.643928     1.758294    -0.686931
| 10> C      1.933863     0.238144    -0.814033
| 11> C      0.946255    -0.916366    -0.532881
| 12> C      2.028363    -0.561264     0.500516
| 13> C      1.634742     0.129307     1.820081
| 14> C      3.204303    -1.541519     0.580577
| 15> C     -0.500545    -0.686142    -0.151781
| 16> C     -1.283053     0.255029    -0.681091
| 17> C     -2.725127     0.039941    -0.340133
| 18> C     -2.730185    -1.175185     0.582581
| 19> C     -1.319335    -1.768529     0.487864
| 20> C     -0.785798    -2.205896     1.853743
| 21> H     -2.581377     1.655192    -2.712060
| 22> H     -1.468055     3.058522    -2.755753
| 23> H     -2.464779     2.764172    -1.282190
| 24> H     -0.212639     0.982623    -2.398353
| 25> H      0.192469     3.300741    -1.016383
| 26> H     -0.180525     2.297661     0.388276
| 27> H      2.194068     2.189137     0.175264
| 28> H      2.114789     2.225983    -1.579164
| 29> H      2.731494    -0.025870    -1.542534
| 30> H      1.147586    -1.825069    -1.139789
| 31> H      2.433143     0.840233     2.117630
| 32> H      0.675120     0.676094     1.759501
| 33> H      1.550012    -0.628963     2.624919
| 34> H      4.107757    -1.006156     0.940334
| 35> H      3.436959    -2.002343    -0.403557
| 36> H      2.960261    -2.354125     1.296397
| 37> H     -3.144576     0.928241     0.179219
| 38> H     -3.304714    -0.175812    -1.263280
| 39> H     -3.494929    -1.916304     0.262613
| 40> H     -2.965672    -0.845815     1.619535
| 41> H     -1.336219    -2.647543    -0.194517
| 42> H     -1.442412    -2.996335     2.275048
| 43> H     -0.765135    -1.350603     2.561598
| 44> H      0.236110    -2.627062     1.749574
| 45> *
| 46> 
| 47>                          ****END OF INPUT****
================================================================================

                       *****************************
                       * Geometry Optimization Run *
                       *****************************

Geometry optimization settings:
Update method            Update   .... BFGS
Choice of coordinates    CoordSys .... (2022) Redundant Internals
Initial Hessian          InHess   .... Almloef's Model
Max. no of cycles        MaxIter  .... 117

Convergence Tolerances:
Energy Change            TolE     ....  5.0000e-06 Eh
Max. Gradient            TolMAXG  ....  3.0000e-04 Eh/bohr
RMS Gradient             TolRMSG  ....  1.0000e-04 Eh/bohr
Max. Displacement        TolMAXD  ....  4.0000e-03 bohr
RMS Displacement         TolRMSD  ....  2.0000e-03 bohr
Strict Convergence                .... False

------------------------------------------------------------------------------
                        ORCA OPTIMIZATION COORDINATE SETUP
------------------------------------------------------------------------------

The optimization will be done in redundant internal coordinates (2022)
Making redundant internal coordinates   ...  (2022 redundants) done
Evaluating the initial hessian          ...  (Almloef) done
Evaluating the coordinates              ...  done
Calculating the B-matrix                .... done
Calculating the G-matrix                .... done
Diagonalizing the G-matrix              .... done
Small eigenvalue found = 1.852e-02
Small eigenvalue found = 2.834e-02
The first mode is                       ....  110
The number of degrees of freedom        ....  111

    -----------------------------------------------------------------
                    Redundant Internal Coordinates


    -----------------------------------------------------------------
         Definition                    Initial Value    Approx d2E/dq
    -----------------------------------------------------------------
      1. B(C   1,C   0)                  1.5373         0.363632   
      2. B(C   2,C   1)                  1.5380         0.362788   
      3. B(C   3,C   2)                  1.5364         0.364913   
      4. B(C   4,C   3)                  1.5528         0.343606   
      5. B(C   5,C   4)                  1.5451         0.353427   
      6. B(C   6,C   5)                  1.5378         0.362963   
      7. B(C   6,C   4)                  1.5414         0.358206   
      8. B(C   7,C   6)                  1.5405         0.359466   
      9. B(C   8,C   6)                  1.5330         0.369456   
     10. B(C   9,C   5)                  1.5138         0.396540   
     11. B(C  10,C   9)                  1.3335         0.768847   
     12. B(C  10,C   1)                  1.5150         0.394807   
     13. B(C  11,C  10)                  1.4974         0.421162   
     14. B(C  12,C  11)                  1.5258         0.379433   
     15. B(C  13,C   9)                  1.5004         0.416527   
     16. B(C  13,C  12)                  1.5335         0.368845   
     17. B(C  14,C  13)                  1.5302         0.373271   
     18. B(H  15,C   0)                  1.1106         0.333898   
     19. B(H  16,C   0)                  1.1110         0.333343   
     20. B(H  17,C   0)                  1.1111         0.333303   
     21. B(H  18,C   1)                  1.1130         0.330954   
     22. B(H  19,C   2)                  1.1131         0.330766   
     23. B(H  20,C   2)                  1.1117         0.332558   
     24. B(H  21,C   3)                  1.1098         0.334835   
     25. B(H  22,C   3)                  1.1120         0.332153   
     26. B(H  23,C   4)                  1.1120         0.332093   
     27. B(H  24,C   5)                  1.1111         0.333204   
     28. B(H  25,C   7)                  1.1097         0.334982   
     29. B(H  26,C   7)                  1.1061         0.339384   
     30. B(H  27,C   7)                  1.1090         0.335803   
     31. B(H  28,C   8)                  1.1101         0.334498   
     32. B(H  29,C   8)                  1.1113         0.332986   
     33. B(H  30,C   8)                  1.1101         0.334490   
     34. B(H  31,C  11)                  1.1112         0.333133   
     35. B(H  32,C  11)                  1.1112         0.333171   
     36. B(H  33,C  12)                  1.1120         0.332182   
     37. B(H  34,C  12)                  1.1132         0.330682   
     38. B(H  35,C  13)                  1.1129         0.331019   
     39. B(H  36,C  14)                  1.1106         0.333854   
     40. B(H  37,C  14)                  1.1104         0.334087   
     41. B(H  38,C  14)                  1.1102         0.334354   
     42. A(H  15,C   0,H  17)          109.4116         0.283975   
     43. A(H  16,C   0,H  17)          108.4838         0.283902   
     44. A(C   1,C   0,H  17)          110.9715         0.318828   
     45. A(H  15,C   0,H  16)          107.5234         0.283980   
     46. A(C   1,C   0,H  15)          110.3907         0.318921   
     47. A(C   1,C   0,H  16)          109.9743         0.318835   
     48. A(C  10,C   1,H  18)          108.8651         0.322773   
     49. A(C   2,C   1,C  10)          108.3593         0.364969   
     50. A(C   0,C   1,C   2)          110.5634         0.359879   
     51. A(C   2,C   1,H  18)          110.1041         0.318340   
     52. A(C   0,C   1,C  10)          112.4699         0.365115   
     53. A(C   0,C   1,H  18)          106.4543         0.318461   
     54. A(H  19,C   2,H  20)          105.0715         0.283461   
     55. A(C   1,C   2,H  19)          110.0964         0.318311   
     56. A(C   3,C   2,H  20)          110.1974         0.318895   
     57. A(C   1,C   2,H  20)          110.5766         0.318591   
     58. A(C   3,C   2,H  19)          106.9098         0.318614   
     59. A(C   1,C   2,C   3)          113.5825         0.360095   
     60. A(C   2,C   3,H  22)          106.3886         0.318832   
     61. A(H  21,C   3,H  22)          104.4879         0.283946   
     62. A(C   4,C   3,H  22)          105.4864         0.315723   
     63. A(C   4,C   3,H  21)          110.5543         0.316136   
     64. A(C   2,C   3,C   4)          119.3077         0.356782   
     65. A(C   2,C   3,H  21)          109.4347         0.319250   
     66. A(C   5,C   4,C   6)           59.7677         0.357366   
     67. A(C   6,C   4,H  23)          113.0528         0.317859   
     68. A(C   3,C   4,H  23)          114.8334         0.315714   
     69. A(C   3,C   4,C   5)          126.6747         0.354851   
     70. A(C   3,C   4,C   6)          116.7027         0.355660   
     71. A(C   5,C   4,H  23)          113.5956         0.317165   
     72. A(C   4,C   5,C   9)          122.8939         0.363613   
     73. A(C   6,C   5,C   9)          117.9197         0.365273   
     74. A(C   6,C   5,H  24)          115.3650         0.318717   
     75. A(C   4,C   5,H  24)          113.3205         0.317337   
     76. A(C   4,C   5,C   6)           59.9980         0.358169   
     77. A(C   9,C   5,H  24)          115.7898         0.323364   
     78. A(C   7,C   6,C   8)          115.9707         0.360290   
     79. A(C   5,C   6,C   8)          115.2899         0.360885   
     80. A(C   4,C   6,C   8)          115.0355         0.360074   
     81. A(C   5,C   6,C   7)          119.9556         0.359203   
     82. A(C   4,C   6,C   7)          118.8396         0.358398   
     83. A(C   4,C   6,C   5)           60.2343         0.358989   
     84. A(H  25,C   7,H  27)          107.3623         0.284448   
     85. A(C   6,C   7,H  27)          109.5522         0.318618   
     86. A(H  25,C   7,H  26)          108.7950         0.284918   
     87. A(C   6,C   7,H  26)          113.3508         0.319170   
     88. A(C   6,C   7,H  25)          109.4534         0.318491   
     89. A(H  26,C   7,H  27)          108.1467         0.285027   
     90. A(H  28,C   8,H  29)          108.4571         0.284012   
     91. A(C   6,C   8,H  29)          112.3022         0.319607   
     92. A(C   6,C   8,H  28)          109.4413         0.319843   
     93. A(C   6,C   8,H  30)          109.4581         0.319842   
     94. A(H  29,C   8,H  30)          108.2715         0.284011   
     95. A(H  28,C   8,H  30)          108.8432         0.284211   
     96. A(C  10,C   9,C  13)          110.9863         0.420096   
     97. A(C   5,C   9,C  13)          121.2784         0.374016   
     98. A(C   5,C   9,C  10)          124.6283         0.416431   
     99. A(C   9,C  10,C  11)          111.9234         0.420926   
    100. A(C   1,C  10,C  11)          124.5363         0.374448   
    101. A(C   1,C  10,C   9)          123.5403         0.416107   
    102. A(C  10,C  11,C  12)          104.7913         0.371893   
    103. A(H  31,C  11,H  32)          110.2812         0.283856   
    104. A(C  12,C  11,H  32)          110.2467         0.321031   
    105. A(C  10,C  11,H  32)          109.9415         0.326576   
    106. A(C  12,C  11,H  31)          110.6558         0.321025   
    107. A(C  10,C  11,H  31)          110.8017         0.326570   
    108. A(C  11,C  12,C  13)          105.5303         0.363526   
    109. A(H  33,C  12,H  34)          108.6482         0.283400   
    110. A(C  13,C  12,H  34)          111.5089         0.319158   
    111. A(C  11,C  12,H  34)          109.1716         0.320637   
    112. A(C  13,C  12,H  33)          110.9215         0.319394   
    113. A(C  11,C  12,H  33)          111.0425         0.320875   
    114. A(C  12,C  13,C  14)          112.1013         0.362511   
    115. A(C   9,C  13,C  14)          113.3568         0.370142   
    116. A(C   9,C  13,C  12)          104.4352         0.369384   
    117. A(C  14,C  13,H  35)          109.0768         0.319834   
    118. A(C  12,C  13,H  35)          109.2397         0.319211   
    119. A(C   9,C  13,H  35)          108.4617         0.325634   
    120. A(H  37,C  14,H  38)          109.5658         0.284139   
    121. A(H  36,C  14,H  38)          108.0473         0.284108   
    122. A(C  13,C  14,H  38)          110.2194         0.320358   
    123. A(H  36,C  14,H  37)          108.5046         0.284073   
    124. A(C  13,C  14,H  37)          110.8145         0.320316   
    125. A(C  13,C  14,H  36)          109.6268         0.320280   
    126. D(C  10,C   1,C   0,H  16)   -176.6093         0.010594   
    127. D(C   2,C   1,C   0,H  16)     62.1115         0.010594   
    128. D(C   2,C   1,C   0,H  17)    -57.9263         0.010594   
    129. D(C  10,C   1,C   0,H  17)     63.3529         0.010594   
    130. D(C  10,C   1,C   0,H  15)    -58.1270         0.010594   
    131. D(C   2,C   1,C   0,H  15)   -179.4062         0.010594   
    132. D(C   3,C   2,C   1,H  18)    -30.9298         0.010548   
    133. D(C   3,C   2,C   1,C   0)   -148.2827         0.010548   
    134. D(H  19,C   2,C   1,H  18)     88.9156         0.010548   
    135. D(H  19,C   2,C   1,C  10)   -152.1204         0.010548   
    136. D(H  19,C   2,C   1,C   0)    -28.4373         0.010548   
    137. D(C   3,C   2,C   1,C  10)     88.0342         0.010548   
    138. D(C   4,C   3,C   2,H  19)   -155.2761         0.010664   
    139. D(C   4,C   3,C   2,C   1)    -33.6373         0.010664   
    140. D(C   4,C   3,C   2,H  20)     91.0570         0.010664   
    141. D(H  21,C   3,C   2,H  19)     76.0401         0.010664   
    142. D(H  21,C   3,C   2,C   1)   -162.3212         0.010664   
    143. D(H  21,C   3,C   2,H  20)    -37.6268         0.010664   
    144. D(C   6,C   4,C   3,H  22)    151.4808         0.009542   
    145. D(C   6,C   4,C   3,H  21)     39.0764         0.009542   
    146. D(C   5,C   4,C   3,H  22)   -137.6754         0.009542   
    147. D(C   6,C   4,C   3,C   2)    -89.0939         0.009542   
    148. D(C   5,C   4,C   3,H  21)    109.9201         0.009542   
    149. D(C   5,C   4,C   3,C   2)    -18.2501         0.009542   
    150. D(H  24,C   5,C   4,C   3)    150.7710         0.010048   
    151. D(C   9,C   5,C   4,H  23)   -150.4204         0.010048   
    152. D(C   9,C   5,C   4,C   6)    105.6920         0.010048   
    153. D(C   6,C   5,C   4,H  23)    103.8876         0.010048   
    154. D(C   6,C   5,C   4,C   3)   -102.3854         0.010048   
    155. D(C   9,C   5,C   4,C   3)      3.3066         0.010048   
    156. D(C   5,C   6,C   4,C   3)    118.7302         0.010302   
    157. D(C   8,C   6,C   5,C   4)   -105.6022         0.010558   
    158. D(C   7,C   6,C   5,H  24)   -148.4111         0.010558   
    159. D(C   7,C   6,C   5,C   9)     -5.6483         0.010558   
    160. D(C   7,C   6,C   5,C   4)    108.1646         0.010558   
    161. D(C   4,C   6,C   5,H  24)    103.4243         0.010558   
    162. D(C   4,C   6,C   5,C   9)   -113.8130         0.010558   
    163. D(C   8,C   6,C   4,C   3)   -135.2457         0.010302   
    164. D(C   7,C   6,C   4,H  23)    145.2144         0.010302   
    165. D(C   7,C   6,C   4,C   5)   -109.9829         0.010302   
    166. D(C   7,C   6,C   4,C   3)      8.7473         0.010302   
    167. D(C   5,C   6,C   4,H  23)   -104.8028         0.010302   
    168. D(H  26,C   7,C   6,C   8)   -169.2322         0.010369   
    169. D(H  26,C   7,C   6,C   5)    -23.2184         0.010369   
    170. D(H  26,C   7,C   6,C   4)     47.1010         0.010369   
    171. D(H  25,C   7,C   6,C   5)   -144.8634         0.010369   
    172. D(H  25,C   7,C   6,C   4)    -74.5441         0.010369   
    173. D(H  25,C   7,C   6,C   8)     69.1227         0.010369   
    174. D(H  29,C   8,C   6,C   7)   -179.9037         0.010914   
    175. D(H  29,C   8,C   6,C   5)     32.4847         0.010914   
    176. D(H  29,C   8,C   6,C   4)    -34.8505         0.010914   
    177. D(H  28,C   8,C   6,C   7)    -59.3955         0.010914   
    178. D(H  28,C   8,C   6,C   5)    152.9929         0.010914   
    179. D(H  28,C   8,C   6,C   4)     85.6577         0.010914   
    180. D(C  13,C   9,C   5,C   6)    -91.5931         0.011679   
    181. D(C  13,C   9,C   5,C   4)   -162.2509         0.011679   
    182. D(C  10,C   9,C   5,H  24)   -107.2323         0.011679   
    183. D(C  10,C   9,C   5,C   6)    110.1599         0.011679   
    184. D(C  10,C   9,C   5,C   4)     39.5021         0.011679   
    185. D(C  11,C  10,C   1,C   0)     -4.5700         0.011582   
    186. D(C   9,C  10,C   1,H  18)     57.7166         0.011582   
    187. D(C   9,C  10,C   1,C   2)    -62.0269         0.011582   
    188. D(C   9,C  10,C   1,C   0)    175.4428         0.011582   
    189. D(C  11,C  10,C   9,C  13)      6.8323         0.042364   
    190. D(C  11,C  10,C   9,C   5)    167.0014         0.042364   
    191. D(C   1,C  10,C   9,C  13)   -173.1791         0.042364   
    192. D(C   1,C  10,C   9,C   5)    -13.0099         0.042364   
    193. D(C  11,C  10,C   1,C   2)    117.9603         0.011582   
    194. D(H  32,C  11,C  10,C   1)     64.8003         0.013114   
    195. D(H  31,C  11,C  10,C   9)    122.6290         0.013114   
    196. D(H  31,C  11,C  10,C   1)    -57.3595         0.013114   
    197. D(C  12,C  11,C  10,C   9)      3.2493         0.013114   
    198. D(C  12,C  11,C  10,C   1)   -176.7392         0.013114   
    199. D(H  33,C  12,C  11,H  32)    -13.4973         0.011476   
    200. D(H  33,C  12,C  11,H  31)    108.7714         0.011476   
    201. D(H  33,C  12,C  11,C  10)   -131.7510         0.011476   
    202. D(C  13,C  12,C  11,H  32)    106.7684         0.011476   
    203. D(C  13,C  12,C  11,H  31)   -130.9628         0.011476   
    204. D(C  13,C  12,C  11,C  10)    -11.4853         0.011476   
    205. D(C  14,C  13,C  12,H  34)     19.7896         0.010880   
    206. D(C  14,C  13,C  12,H  33)   -101.4492         0.010880   
    207. D(C  14,C  13,C  12,C  11)    138.2056         0.010880   
    208. D(C   9,C  13,C  12,H  34)   -103.3292         0.010880   
    209. D(C   9,C  13,C  12,H  33)    135.4320         0.010880   
    210. D(C   9,C  13,C  12,C  11)     15.0869         0.010880   
    211. D(H  35,C  13,C   9,C   5)    -58.4315         0.012836   
    212. D(C  14,C  13,C   9,C  10)   -136.1969         0.012836   
    213. D(C  14,C  13,C   9,C   5)     62.8670         0.012836   
    214. D(C  12,C  13,C   9,C  10)    -13.8970         0.012836   
    215. D(C  12,C  13,C   9,C   5)   -174.8332         0.012836   
    216. D(H  37,C  14,C  13,H  35)   -179.5006         0.011127   
    217. D(H  37,C  14,C  13,C  12)    -58.3857         0.011127   
    218. D(H  37,C  14,C  13,C   9)     59.5471         0.011127   
    219. D(H  36,C  14,C  13,H  35)    -59.7615         0.011127   
    220. D(H  36,C  14,C  13,C  12)     61.3535         0.011127   
    221. D(H  36,C  14,C  13,C   9)    179.2862         0.011127   
    -----------------------------------------------------------------

Number of atoms                         .... 39
Number of degrees of freedom            .... 221


         *************************************************************
         *                GEOMETRY OPTIMIZATION CYCLE   1            *
         *************************************************************
---------------------------------
CARTESIAN COORDINATES (ANGSTROEM)
---------------------------------
  C     -1.892010    2.271061   -2.096567
  C     -0.761531    1.400136   -1.524789
  C      0.187395    2.246392   -0.659480
  C      1.643928    1.758294   -0.686931
  C      1.933863    0.238144   -0.814033
  C      0.946255   -0.916366   -0.532881
  C      2.028363   -0.561264    0.500516
  C      1.634742    0.129307    1.820081
  C      3.204303   -1.541519    0.580577
  C     -0.500545   -0.686142   -0.151781
  C     -1.283053    0.255029   -0.681091
  C     -2.725127    0.039941   -0.340133
  C     -2.730185   -1.175185    0.582581
  C     -1.319335   -1.768529    0.487864
  C     -0.785798   -2.205896    1.853743
  H     -2.581377    1.655192   -2.712060
  H     -1.468055    3.058522   -2.755753
  H     -2.464779    2.764172   -1.282190
  H     -0.212639    0.982623   -2.398353
  H      0.192469    3.300741   -1.016383
  H     -0.180525    2.297661    0.388276
  H      2.194068    2.189137    0.175264
  H      2.114789    2.225983   -1.579164
  H      2.731494   -0.025870   -1.542534
  H      1.147586   -1.825069   -1.139789
  H      2.433143    0.840233    2.117630
  H      0.675120    0.676094    1.759501
  H      1.550012   -0.628963    2.624919
  H      4.107757   -1.006156    0.940334
  H      3.436959   -2.002343   -0.403557
  H      2.960261   -2.354125    1.296397
  H     -3.144576    0.928241    0.179219
  H     -3.304714   -0.175812   -1.263280
  H     -3.494929   -1.916304    0.262613
  H     -2.965672   -0.845815    1.619535
  H     -1.336219   -2.647543   -0.194517
  H     -1.442412   -2.996335    2.275048
  H     -0.765135   -1.350603    2.561598
  H      0.236110   -2.627062    1.749574

----------------------------
CARTESIAN COORDINATES (A.U.)
----------------------------
  NO LB      ZA    FRAG     MASS         X           Y           Z
   0 C     4.0000*   0    12.011   -3.575381    4.291683   -3.961937
   1 C     4.0000*   0    12.011   -1.439085    2.645874   -2.881434
   2 C     4.0000*   0    12.011    0.354125    4.245066   -1.246237
   3 C     4.0000*   0    12.011    3.106574    3.322694   -1.298111
   4 C     4.0000*   0    12.011    3.654471    0.450027   -1.538299
   5 C     4.0000*   0    12.011    1.788163   -1.731681   -1.006999
   6 C     4.0000*   0    12.011    3.833051   -1.060635    0.945838
   7 C     4.0000*   0    12.011    3.089215    0.244355    3.439455
   8 C     4.0000*   0    12.011    6.055255   -2.913049    1.097132
   9 C     4.0000*   0    12.011   -0.945893   -1.296620   -0.286825
  10 C     4.0000*   0    12.011   -2.424619    0.481935   -1.287075
  11 C     4.0000*   0    12.011   -5.149744    0.075478   -0.642758
  12 C     4.0000*   0    12.011   -5.159302   -2.220778    1.100919
  13 C     4.0000*   0    12.011   -2.493182   -3.342035    0.921929
  14 C     4.0000*   0    12.011   -1.484943   -4.168539    3.503067
  15 H     1.0000    0     1.008   -4.878096    3.127860   -5.125051
  16 H     1.0000    0     1.008   -2.774222    5.779769   -5.207618
  17 H     1.0000    0     1.008   -4.657757    5.223528   -2.422988
  18 H     1.0000    0     1.008   -0.401829    1.856888   -4.532230
  19 H     1.0000    0     1.008    0.363714    6.237497   -1.920686
  20 H     1.0000    0     1.008   -0.341143    4.341950    0.733735
  21 H     1.0000    0     1.008    4.146188    4.136869    0.331201
  22 H     1.0000    0     1.008    3.996372    4.206498   -2.984187
  23 H     1.0000    0     1.008    5.161776   -0.048887   -2.914967
  24 H     1.0000    0     1.008    2.168623   -3.448881   -2.153889
  25 H     1.0000    0     1.008    4.597974    1.587810    4.001741
  26 H     1.0000    0     1.008    1.275792    1.277633    3.324975
  27 H     1.0000    0     1.008    2.929098   -1.188568    4.960378
  28 H     1.0000    0     1.008    7.762536   -1.901359    1.776974
  29 H     1.0000    0     1.008    6.494911   -3.783880   -0.762612
  30 H     1.0000    0     1.008    5.594083   -4.448652    2.449835
  31 H     1.0000    0     1.008   -5.942387    1.754121    0.338675
  32 H     1.0000    0     1.008   -6.245004   -0.332237   -2.387253
  33 H     1.0000    0     1.008   -6.604459   -3.621290    0.496267
  34 H     1.0000    0     1.008   -5.604308   -1.598359    3.060478
  35 H     1.0000    0     1.008   -2.525088   -5.003131   -0.367584
  36 H     1.0000    0     1.008   -2.725764   -5.662253    4.299218
  37 H     1.0000    0     1.008   -1.445896   -2.552270    4.840719
  38 H     1.0000    0     1.008    0.446183   -4.964428    3.306216
* core charge reduced due to ECP

--------------------------------
INTERNAL COORDINATES (ANGSTROEM)
--------------------------------
 C      0   0   0     0.000000000000     0.00000000     0.00000000
 C      1   0   0     1.537342904608     0.00000000     0.00000000
 C      2   1   0     1.537975759397   110.56342537     0.00000000
 C      3   2   1     1.536385887430   113.58248764   211.71729815
 C      4   3   2     1.552763100131   119.30768876   326.36265535
 C      5   4   3     1.545092019547   126.67473983   341.74985594
 C      6   5   4     1.537844112281    59.99804086   257.61456618
 C      7   6   5     1.540479661309   119.95556234   108.16463388
 C      7   6   5     1.533018105681   115.28988985   254.39778131
 C      6   5   4     1.513760397215   122.89393548     3.30659401
 C     10   6   5     1.333525664322   124.62833286    39.50214262
 C     11  10   6     1.497361889118   111.92339340   167.00144097
 C     12  11  10     1.525764695173   104.79125279     3.24928938
 C     10   6   5     1.500374755817   121.27835294   197.74909594
 C     14  10   6     1.530221247303   113.35675289    62.86697375
 H      1   2   3     1.110564324521   110.39073298   180.59384794
 H      1   2   3     1.111017034587   109.97430136    62.11152119
 H      1   2   3     1.111050261604   110.97152167   302.07371113
 H      2   1   3     1.112975109753   106.45430783   240.42292950
 H      3   2   1     1.113129512090   110.09639543   331.56268293
 H      3   2   1     1.111659242887   110.57655655    87.22728506
 H      4   3   2     1.109801751789   109.43466014   197.67884306
 H      4   3   2     1.111990471331   106.38860167    85.32685153
 H      5   4   3     1.112039707635   114.83340236   135.20035421
 H      6   5   4     1.111131240779   113.32052009   150.77103395
 H      8   7   6     1.109682540945   109.45338469   215.13658639
 H      8   7   6     1.106128538034   113.35076250   336.78164987
 H      8   7   6     1.109016127946   109.55220315    97.66660007
 H      9   7   6     1.110075569920   109.44132022   152.99291589
 H      9   7   6     1.111308824435   112.30221020    32.48474551
 H      9   7   6     1.110082556119   109.45810555   272.19925049
 H     12  11  10     1.111188936907   110.80168080   122.62895797
 H     12  11  10     1.111157428624   109.94152711   244.78876240
 H     13  12  11     1.111966851449   111.04251397   228.24897400
 H     13  12  11     1.113199138602   109.17155511   108.48174387
 H     14  10   6     1.112921610363   108.46168778   301.56848821
 H     15  14  10     1.110600585603   109.62675887   179.28621859
 H     15  14  10     1.110410634154   110.81454882    59.54705300
 H     15  14  10     1.110192749292   110.21944345   298.09291473

---------------------------
INTERNAL COORDINATES (A.U.)
---------------------------
 C      0   0   0     0.000000000000     0.00000000     0.00000000
 C      1   0   0     2.905157063637     0.00000000     0.00000000
 C      2   1   0     2.906352985870   110.56342537     0.00000000
 C      3   2   1     2.903348563264   113.58248764   211.71729815
 C      4   3   2     2.934297010106   119.30768876   326.36265535
 C      5   4   3     2.919800768651   126.67473983   341.74985594
 C      6   5   4     2.906104208874    59.99804086   257.61456618
 C      7   6   5     2.911084674750   119.95556234   108.16463388
 C      7   6   5     2.896984378080   115.28988985   254.39778131
 C      6   5   4     2.860592583112   122.89393548     3.30659401
 C     10   6   5     2.519998298124   124.62833286    39.50214262
 C     11  10   6     2.829603893805   111.92339340   167.00144097
 C     12  11  10     2.883277418683   104.79125279     3.24928938
 C     10   6   5     2.835297386744   121.27835294   197.74909594
 C     14  10   6     2.891699081711   113.35675289    62.86697375
 H      1   2   3     2.098662427448   110.39073298   180.59384794
 H      1   2   3     2.099517925490   109.97430136    62.11152119
 H      1   2   3     2.099580715454   110.97152167   302.07371113
 H      2   1   3     2.103218151304   106.45430783   240.42292950
 H      3   2   1     2.103509929436   110.09639543   331.56268293
 H      3   2   1     2.100731523299   110.57655655    87.22728506
 H      4   3   2     2.097221373827   109.43466014   197.67884306
 H      4   3   2     2.101357454346   106.38860167    85.32685153
 H      5   4   3     2.101450497477   114.83340236   135.20035421
 H      6   5   4     2.099733743916   113.32052009   150.77103395
 H      8   7   6     2.096996097980   109.45338469   215.13658639
 H      8   7   6     2.090280005799   113.35076250   336.78164987
 H      8   7   6     2.095736759919   109.55220315    97.66660007
 H      9   7   6     2.097738815106   109.44132022   152.99291589
 H      9   7   6     2.100069328393   112.30221020    32.48474551
 H      9   7   6     2.097752017108   109.45810555   272.19925049
 H     12  11  10     2.099842773798   110.80168080   122.62895797
 H     12  11  10     2.099783231772   109.94152711   244.78876240
 H     13  12  11     2.101312819237   111.04251397   228.24897400
 H     13  12  11     2.103641504475   109.17155511   108.48174387
 H     14  10   6     2.103117052109   108.46168778   301.56848821
 H     15  14  10     2.098730950962   109.62675887   179.28621859
 H     15  14  10     2.098371994745   110.81454882    59.54705300
 H     15  14  10     2.097960252027   110.21944345   298.09291473

---------------------
BASIS SET INFORMATION
---------------------
There are 2 groups of distinct atoms

 Group   1 Type C   : 6s6p2d contracted to 2s2p1d pattern {42/42/2}
 Group   2 Type H   : 8s2p contracted to 2s1p pattern {53/2}

Atom   0C    basis set group =>   1
Atom   1C    basis set group =>   1
Atom   2C    basis set group =>   1
Atom   3C    basis set group =>   1
Atom   4C    basis set group =>   1
Atom   5C    basis set group =>   1
Atom   6C    basis set group =>   1
Atom   7C    basis set group =>   1
Atom   8C    basis set group =>   1
Atom   9C    basis set group =>   1
Atom  10C    basis set group =>   1
Atom  11C    basis set group =>   1
Atom  12C    basis set group =>   1
Atom  13C    basis set group =>   1
Atom  14C    basis set group =>   1
Atom  15H    basis set group =>   2
Atom  16H    basis set group =>   2
Atom  17H    basis set group =>   2
Atom  18H    basis set group =>   2
Atom  19H    basis set group =>   2
Atom  20H    basis set group =>   2
Atom  21H    basis set group =>   2
Atom  22H    basis set group =>   2
Atom  23H    basis set group =>   2
Atom  24H    basis set group =>   2
Atom  25H    basis set group =>   2
Atom  26H    basis set group =>   2
Atom  27H    basis set group =>   2
Atom  28H    basis set group =>   2
Atom  29H    basis set group =>   2
Atom  30H    basis set group =>   2
Atom  31H    basis set group =>   2
Atom  32H    basis set group =>   2
Atom  33H    basis set group =>   2
Atom  34H    basis set group =>   2
Atom  35H    basis set group =>   2
Atom  36H    basis set group =>   2
Atom  37H    basis set group =>   2
Atom  38H    basis set group =>   2
---------------------------------
AUXILIARY/J BASIS SET INFORMATION
---------------------------------
There are 2 groups of distinct atoms

 Group   1 Type C   : 12s5p4d2f1g contracted to 6s4p3d1f1g pattern {711111/2111/211/2/1}
 Group   2 Type H   : 5s2p1d contracted to 3s1p1d pattern {311/2/1}

Atom   0C    basis set group =>   1
Atom   1C    basis set group =>   1
Atom   2C    basis set group =>   1
Atom   3C    basis set group =>   1
Atom   4C    basis set group =>   1
Atom   5C    basis set group =>   1
Atom   6C    basis set group =>   1
Atom   7C    basis set group =>   1
Atom   8C    basis set group =>   1
Atom   9C    basis set group =>   1
Atom  10C    basis set group =>   1
Atom  11C    basis set group =>   1
Atom  12C    basis set group =>   1
Atom  13C    basis set group =>   1
Atom  14C    basis set group =>   1
Atom  15H    basis set group =>   2
Atom  16H    basis set group =>   2
Atom  17H    basis set group =>   2
Atom  18H    basis set group =>   2
Atom  19H    basis set group =>   2
Atom  20H    basis set group =>   2
Atom  21H    basis set group =>   2
Atom  22H    basis set group =>   2
Atom  23H    basis set group =>   2
Atom  24H    basis set group =>   2
Atom  25H    basis set group =>   2
Atom  26H    basis set group =>   2
Atom  27H    basis set group =>   2
Atom  28H    basis set group =>   2
Atom  29H    basis set group =>   2
Atom  30H    basis set group =>   2
Atom  31H    basis set group =>   2
Atom  32H    basis set group =>   2
Atom  33H    basis set group =>   2
Atom  34H    basis set group =>   2
Atom  35H    basis set group =>   2
Atom  36H    basis set group =>   2
Atom  37H    basis set group =>   2
Atom  38H    basis set group =>   2
-------------------------
ECP PARAMETER INFORMATION
-------------------------

 Group 1, Type C  ECP vDZP-ECP (replacing 2 core electrons, lmax=3)

Atom   0C    ECP group =>   1
Atom   1C    ECP group =>   1
Atom   2C    ECP group =>   1
Atom   3C    ECP group =>   1
Atom   4C    ECP group =>   1
Atom   5C    ECP group =>   1
Atom   6C    ECP group =>   1
Atom   7C    ECP group =>   1
Atom   8C    ECP group =>   1
Atom   9C    ECP group =>   1
Atom  10C    ECP group =>   1
Atom  11C    ECP group =>   1
Atom  12C    ECP group =>   1
Atom  13C    ECP group =>   1
Atom  14C    ECP group =>   1



           ************************************************************
           *        Program running with 40 parallel MPI-processes    *
           *              working on a common directory               *
           ************************************************************
------------------------------------------------------------------------------
                             ORCA STARTUP CALCULATIONS
                           -- RI-GTO INTEGRALS CHOSEN --
------------------------------------------------------------------------------
------------------------------------------------------------------------------
                   ___                                                        
                  /   \      - P O W E R E D   B Y -                         
                 /     \                                                     
                 |  |  |   _    _      __       _____    __    __             
                 |  |  |  | |  | |    /  \     |  _  \  |  |  /  |          
                  \  \/   | |  | |   /    \    | | | |  |  | /  /          
                 / \  \   | |__| |  /  /\  \   | |_| |  |  |/  /          
                |  |  |   |  __  | /  /__\  \  |    /   |      \           
                |  |  |   | |  | | |   __   |  |    \   |  |\   \          
                \     /   | |  | | |  |  |  |  | |\  \  |  | \   \       
                 \___/    |_|  |_| |__|  |__|  |_| \__\ |__|  \__/        
                                                                              
                      - O R C A' S   B I G   F R I E N D -                    
                                      &                                       
                       - I N T E G R A L  F E E D E R -                       
                                                                              
 v1 FN, 2020, v2 2021, v3 2022-2024                                           
------------------------------------------------------------------------------


----------------------
SHARK INTEGRAL PACKAGE
----------------------

Number of atoms                             ...     39
Number of basis functions                   ...    315
Number of shells                            ...    147
Maximum angular momentum                    ...      2
Integral batch strategy                     ... SHARK/LIBINT Hybrid
RI-J (if used) integral strategy            ... SPLIT-RIJ (Revised 2003 algorithm where possible)
Printlevel                                  ...      1
Contraction scheme used                     ... SEGMENTED contraction
Prescreening option                         ... SCHWARTZ
   Thresh                                   ... 2.500e-11
   Tcut                                     ... 2.500e-12
   Tpresel                                  ... 2.500e-12 
Coulomb Range Separation                    ... NOT USED
Exchange Range Separation                   ... Long Range
   Mu parameter                             ... 3.000e-01
   Scaling (regular/separated)              ... 1.670e-01 8.330e-01
Multipole approximations                    ... NOT USED
Finite Nucleus Model                        ... NOT USED
CABS basis                                  ... NOT available
Auxiliary Coulomb fitting basis             ... AVAILABLE
   # of basis functions in Aux-J            ...    999
   # of shells in Aux-J                     ...    345
   Maximum angular momentum in Aux-J        ...      4
Auxiliary J/K fitting basis                 ... NOT available
Auxiliary Correlation fitting basis         ... NOT available
Auxiliary 'external' fitting basis          ... NOT available

Checking pre-screening integrals            ... done (  0.0 sec) Dimension = 147
Check shell pair data                       ... done (  0.0 sec)
Shell pair information
Shell pair cut-off parameter TPreSel        ...   2.5e-12
Total number of shell pairs                 ...     10878
Shell pairs after pre-screening             ...     10844
Total number of primitive shell pairs       ...    102036
Primitive shell pairs kept                  ...     79063
          la=0 lb=0:   3079 shell pairs
          la=1 lb=0:   4196 shell pairs
          la=1 lb=1:   1469 shell pairs
          la=2 lb=0:   1170 shell pairs
          la=2 lb=1:    810 shell pairs
          la=2 lb=2:    120 shell pairs

Calculating one electron integrals          ... done (  0.0 sec)
Calculating ECP integrals                   ... done (  0.2 sec)
Calculating RI/J V-Matrix + Cholesky decomp.... done (  0.0 sec)
Calculating Nuclear repulsion               ... done (  0.0 sec) ENN=    580.958358414354 Eh

Diagonalization of the overlap matrix:
Smallest eigenvalue                        ... 6.637e-04
Time for diagonalization                   ...    0.014 sec
Threshold for overlap eigenvalues          ... 1.000e-07
Number of eigenvalues below threshold      ... 0
Time for construction of square roots      ...    0.008 sec
Total time needed                          ...    0.038 sec

-------------------
DFT GRID GENERATION
-------------------

General Integration Accuracy     IntAcc      ... 4.388
Radial Grid Type                 RadialGrid  ... OptM3 with GC (2021)
Angular Grid (max. ang.)         AngularGrid ... 4 (Lebedev-302)
Angular grid pruning method      GridPruning ... 4 (adaptive)
Weight generation scheme         WeightScheme... mBecke (2022)
Basis function cutoff            BFCut       ... 1.0000e-11
Integration weight cutoff        WCut        ... 1.0000e-14
Partially contracted basis set               ... off
Rotationally invariant grid construction     ... off
Angular grids for H and He will be reduced by one unit

Total number of grid points                  ...   164607
Total number of batches                      ...     2592
Average number of points per batch           ...       63
Average number of grid points per atom       ...     4221

--------------------
COSX GRID GENERATION
--------------------

GRIDX 1
-------
General Integration Accuracy     IntAcc      ... 3.816
Radial Grid Type                 RadialGrid  ... OptM3 with GC (2021)
Angular Grid (max. ang.)         AngularGrid ... 1 (Lebedev-50)
Angular grid pruning method      GridPruning ... 4 (adaptive)
Weight generation scheme         WeightScheme... mBecke (2022)
Basis function cutoff            BFCut       ... 1.0000e-11
Integration weight cutoff        WCut        ... 1.0000e-14
Partially contracted basis set               ... on
Rotationally invariant grid construction     ... off
Angular grids for H and He will be reduced by one unit

Total number of grid points                  ...    20998
Total number of batches                      ...      190
Average number of points per batch           ...      110
Average number of grid points per atom       ...      538
UseSFitting                                  ... on

GRIDX 2
-------
General Integration Accuracy     IntAcc      ... 4.020
Radial Grid Type                 RadialGrid  ... OptM3 with GC (2021)
Angular Grid (max. ang.)         AngularGrid ... 2 (Lebedev-110)
Angular grid pruning method      GridPruning ... 4 (adaptive)
Weight generation scheme         WeightScheme... mBecke (2022)
Basis function cutoff            BFCut       ... 1.0000e-11
Integration weight cutoff        WCut        ... 1.0000e-14
Partially contracted basis set               ... on
Rotationally invariant grid construction     ... off
Angular grids for H and He will be reduced by one unit

Total number of grid points                  ...    43399
Total number of batches                      ...      360
Average number of points per batch           ...      120
Average number of grid points per atom       ...     1113
UseSFitting                                  ... on

GRIDX 3
-------
General Integration Accuracy     IntAcc      ... 4.338
Radial Grid Type                 RadialGrid  ... OptM3 with GC (2021)
Angular Grid (max. ang.)         AngularGrid ... 3 (Lebedev-194)
Angular grid pruning method      GridPruning ... 4 (adaptive)
Weight generation scheme         WeightScheme... mBecke (2022)
Basis function cutoff            BFCut       ... 1.0000e-11
Integration weight cutoff        WCut        ... 1.0000e-14
Partially contracted basis set               ... on
Rotationally invariant grid construction     ... off
Angular grids for H and He will be reduced by one unit

Total number of grid points                  ...    94084
Total number of batches                      ...      759
Average number of points per batch           ...      123
Average number of grid points per atom       ...     2412
UseSFitting                                  ... on
Initializing property integral containers    ... done (  0.0 sec)

SHARK setup successfully completed in   5.4 seconds

Maximum memory used throughout the entire STARTUP-calculation: 52.3 MB


           ************************************************************
           *        Program running with 40 parallel MPI-processes    *
           *              working on a common directory               *
           ************************************************************
-------------------------------------------------------------------------------
                                 ORCA GUESS
                   Start orbitals & Density for SCF / CASSCF
-------------------------------------------------------------------------------

------------
SCF SETTINGS
------------
Hamiltonian:
 Density Functional     Method          .... DFT(GTOs)
 Exchange Functional    Exchange        .... WB97X-V
 Correlation Functional Correlation     .... WB97X-V
 Gradients option       PostSCFGGA      .... off
 Hybrid DFT is turned on
   Fraction HF Exchange ScalHFX         ....  0.167000
   Scaling of DF-GGA-X  ScalDFX         ....  0.000000
   Scaling of DF-GGA-C  ScalDFC         ....  1.000000
   Scaling of DF-LDA-C  ScalLDAC        ....  1.000000
   Perturbative correction              ....  0.000000
 Long-range corrected/Screened/Range-Separated Hybrid DFT is turned on
   Amount of maximum screened exact exchange              ....  0.833000
   Range separation parameter mu (erf(mu*r12)/r12)        ....  0.300000
   NL short-range parameter             ....  6.000000
   NL long-range parameter              ....  0.010000
 RI-approximation to the Coulomb term is turned on
   Number of AuxJ basis functions       .... 999
   RIJ-COSX (HFX calculated with COS-X)).... on


General Settings:
 Integral files         IntName         .... ./output/isoledene/isoledene
 Hartree-Fock type      HFTyp           .... RHF
 Total Charge           Charge          ....    0
 Multiplicity           Mult            ....    1
 Number of Electrons    NEL             ....   84
 Basis Dimension        Dim             ....  315
 Nuclear Repulsion      ENuc            ....    580.9583584144 Eh

Convergence Acceleration:
 AO-DIIS                CNVDIIS         .... on
   Start iteration      DIISMaxIt       ....    12
   Startup error        DIISStart       ....  0.200000
   # of expansion vecs  DIISMaxEq       ....     5
   Bias factor          DIISBfac        ....   1.050
   Max. coefficient     DIISMaxC        ....  10.000
 MO-DIIS                CNVKDIIS        .... off
 Trust-Rad. Augm. Hess. CNVTRAH         .... auto
   Auto Start mean grad. ratio tolernc. ....  1.125000
   Auto Start start iteration           ....    50
   Auto Start num. interpolation iter.  ....    10
   Max. Number of Micro iterations      ....    24
   Max. Number of Macro iterations      .... Maxiter - #DIIS iter
   Number of Davidson start vectors     ....     2
   Converg. threshold    (grad. norm)   ....   1.000e-05
   Grad. Scal. Fac. for Micro threshold ....   0.100
   Minimum threshold for Micro iter.    ....   1.000e-02
   NR start threshold (gradient norm)   ....   1.000e-04
   Initial trust radius                 ....   0.400
   Minimum AH scaling param. (alpha)    ....   1.000
   Maximum AH scaling param. (alpha)    .... 1000.000
   Quad. conv. algorithm                .... NR
   White noise on init. David. guess    .... on
   Maximum white noise                  ....   0.010
   Pseudo random numbers                .... off
   Inactive MOs                         .... canonical
   Orbital update algorithm             .... Taylor
   Preconditioner                       .... Diag
   Full preconditioner red. dimension   ....   250
 SOSCF                  CNVSOSCF        .... on
   Start iteration      SOSCFMaxIt      ....   150
   Startup grad/error   SOSCFStart      ....  0.003300
   Hessian update       SOSCFHessUp     .... L-BFGS
 Level Shifting         CNVShift        .... on
   Level shift para.    LevelShift      ....    0.2500
   Turn off err/grad.   ShiftErr        ....    0.0010
 Zerner damping         CNVZerner       .... off
 Static damping         CNVDamp         .... on
   Fraction old density DampFac         ....    0.7000
   Max. Damping (<1)    DampMax         ....    0.9800
   Min. Damping (>=0)   DampMin         ....    0.0000
   Turn off err/grad.   DampErr         ....    0.1000

SCF Procedure:
 Maximum # iterations   MaxIter         ....   125
 SCF integral mode      SCFMode         .... Direct
   Integral package                     .... SHARK and LIBINT hybrid scheme
 Reset frequency        DirectResetFreq ....    20
 Integral Threshold     Thresh          ....  2.500e-11 Eh
 Primitive CutOff       TCut            ....  2.500e-12 Eh

Convergence Tolerance:
 Convergence Check Mode ConvCheckMode   .... Total+1el-Energy
 Convergence forced     ConvForced      .... 0
 Energy Change          TolE            ....  1.000e-08 Eh
 1-El. energy change                    ....  1.000e-05 Eh
 Orbital Gradient       TolG            ....  1.000e-05
 Orbital Rotation angle TolX            ....  1.000e-05
 DIIS Error             TolErr          ....  5.000e-07

------------------------------
INITIAL GUESS: MODEL POTENTIAL
------------------------------
Loading Hartree-Fock densities                     ... done
Atomic calculation to generate a density for atom 0 (C  with ECP)
  Multiplicity assumed   :    1
  Atomic configuration   : 1s2 2s2 2p2 
  Number of open shells  : 1
  Command: /home/aspe232/Project/Software/ORCA/6_0_1/build/orca ./output/isoledene/isoledene_atom6.inp "" > ./output/isoledene/isoledene_atom6.out
Returned from the atomic calculation with res=0
Calculating cut-offs                               ... done
Initializing the effective Hamiltonian             ... done
Setting up the integral package (SHARK)            ... done
Starting the Coulomb interaction                   ... done (   0.1 sec)
Making the grid                                    ... done (   1.2 sec)
Mapping shells                                     ... done
Starting the XC term evaluation                    ... done (   0.1 sec)
  promolecular density results
     # of electrons  =    114.000922943
     EX              =    -55.409909987
     EC              =     -4.571058984
     EX+EC           =    -59.980968970
Transforming the Hamiltonian                       ... done (   0.0 sec)
Diagonalizing the Hamiltonian                      ... done (   0.0 sec)
Back transforming the eigenvectors                 ... done (   0.0 sec)
Now organizing SCF variables                       ... done
                      ------------------
                      INITIAL GUESS DONE (   2.2 sec)
                      ------------------
             **** ENERGY FILE WAS UPDATED (./output/isoledene/isoledene.en.tmp) ****
Finished Guess after   3.1 sec
Maximum memory used throughout the entire GUESS-calculation: 35.0 MB


           ************************************************************
           *        Program running with 40 parallel MPI-processes    *
           *              working on a common directory               *
           ************************************************************

-------------------------------------------------------------------------------------------
                                      ORCA LEAN-SCF
                              memory conserving SCF solver
-------------------------------------------------------------------------------------------

----------------------------------------D-I-I-S--------------------------------------------
Iteration    Energy (Eh)           Delta-E    RMSDP     MaxDP     DIISErr   Damp  Time(sec)
-------------------------------------------------------------------------------------------
               ***  Starting incremental Fock matrix formation  ***
    1    -99.1816838627995594     0.00e+00  3.54e-03  7.61e-02  1.84e-01  0.700   8.3
    2    -99.4555616456752887    -2.74e-01  2.58e-03  5.58e-02  1.09e-01  0.700   6.0
                               ***Turning on AO-DIIS***
    3    -99.5969007032617810    -1.41e-01  1.35e-03  3.02e-02  5.69e-02  0.700   6.0
    4    -99.6800029779745955    -8.31e-02  2.92e-03  6.57e-02  3.57e-02  0.000   6.0
    5    -99.8546325336978953    -1.75e-01  2.10e-04  4.29e-03  4.60e-03  0.000   5.4
                              *** Initializing SOSCF ***
---------------------------------------S-O-S-C-F--------------------------------------
Iteration    Energy (Eh)           Delta-E    RMSDP     MaxDP     MaxGrad    Time(sec)
--------------------------------------------------------------------------------------
    6    -99.8551119441240189    -4.79e-04  1.04e-04  1.70e-03  1.17e-03     5.7
               *** Restarting incremental Fock matrix formation ***
    7    -99.8552015607125441    -8.96e-05  5.76e-05  1.09e-03  3.15e-04     8.3
    8    -99.8552139117282422    -1.24e-05  3.51e-05  6.68e-04  1.68e-04     7.6
    9    -99.8552164263467148    -2.51e-06  1.11e-05  2.37e-04  8.43e-05     7.0
   10    -99.8552168174712733    -3.91e-07  3.26e-06  9.92e-05  1.47e-05     7.0
   11    -99.8552168379492286    -2.05e-08  1.39e-06  3.07e-05  8.49e-06     6.0
   12    -99.8552168588414588    -2.09e-08  2.19e-07  6.03e-06  1.24e-06     6.0
                  *** Gradient check signals convergence ***

               *****************************************************
               *                     SUCCESS                       *
               *           SCF CONVERGED AFTER  12 CYCLES          *
               *****************************************************

Recomputing exchange energy using gridx3       ... done (    9.978 sec)
Old exchange energy                            :    -15.894991306 Eh
New exchange energy                            :    -15.894988382 Eh
Exchange energy change after final integration :      0.000002924 Eh
Total energy after final integration           :    -99.855213935 Eh
             **** ENERGY FILE WAS UPDATED (./output/isoledene/isoledene.en.tmp) ****

----------------
TOTAL SCF ENERGY
----------------

Total Energy       :        -99.85521393451495 Eh           -2717.19851 eV

Components:
Nuclear Repulsion  :        580.95835841435371 Eh           15808.68063 eV
Electronic Energy  :       -680.81357527319517 Eh          -18525.87922 eV
One Electron Energy:      -1300.92238287684654 Eh          -35399.89773 eV
Two Electron Energy:        620.10880760365137 Eh           16874.01851 eV

Virial components:
Potential Energy   :       -177.89042584811091 Eh           -4840.64458 eV
Kinetic Energy     :         78.03521191359597 Eh            2123.44607 eV
Virial Ratio       :          2.27961738663668

DFT components:
N(Alpha)           :       42.000025332270 electrons
N(Beta)            :       42.000025332270 electrons
N(Total)           :       84.000050664540 electrons
E(X)               :      -16.100979726201 Eh       
E(C)               :       -3.147336572949 Eh       
E(XC)              :      -19.248316299151 Eh       

---------------
SCF CONVERGENCE
---------------

  Last Energy change         ...    2.0892e-08  Tolerance :   1.0000e-08
  Last MAX-Density change    ...    6.0347e-06  Tolerance :   1.0000e-07
  Last RMS-Density change    ...    2.1893e-07  Tolerance :   5.0000e-09
  Last DIIS Error            ...    1.1672e-03  Tolerance :   5.0000e-07
  Last Orbital Gradient      ...    1.2415e-06  Tolerance :   1.0000e-05
  Last Orbital Rotation      ...    3.3838e-06  Tolerance :   1.0000e-05


----------------
ORBITAL ENERGIES
----------------

  NO   OCC          E(Eh)            E(eV) 
   0   2.0000      -1.012588       -27.5539 
   1   2.0000      -0.981639       -26.7118 
   2   2.0000      -0.940001       -25.5787 
   3   2.0000      -0.878979       -23.9182 
   4   2.0000      -0.862147       -23.4602 
   5   2.0000      -0.860690       -23.4206 
   6   2.0000      -0.830142       -22.5893 
   7   2.0000      -0.812930       -22.1210 
   8   2.0000      -0.772766       -21.0280 
   9   2.0000      -0.762972       -20.7615 
  10   2.0000      -0.728439       -19.8218 
  11   2.0000      -0.686851       -18.6902 
  12   2.0000      -0.667514       -18.1640 
  13   2.0000      -0.640648       -17.4329 
  14   2.0000      -0.610155       -16.6032 
  15   2.0000      -0.601184       -16.3591 
  16   2.0000      -0.587185       -15.9781 
  17   2.0000      -0.571976       -15.5643 
  18   2.0000      -0.551364       -15.0034 
  19   2.0000      -0.544254       -14.8099 
  20   2.0000      -0.536277       -14.5928 
  21   2.0000      -0.528625       -14.3846 
  22   2.0000      -0.527156       -14.3446 
  23   2.0000      -0.513851       -13.9826 
  24   2.0000      -0.504604       -13.7310 
  25   2.0000      -0.493938       -13.4407 
  26   2.0000      -0.488661       -13.2971 
  27   2.0000      -0.485166       -13.2020 
  28   2.0000      -0.474804       -12.9201 
  29   2.0000      -0.467121       -12.7110 
  30   2.0000      -0.463118       -12.6021 
  31   2.0000      -0.452098       -12.3022 
  32   2.0000      -0.443420       -12.0661 
  33   2.0000      -0.440442       -11.9850 
  34   2.0000      -0.430906       -11.7256 
  35   2.0000      -0.423488       -11.5237 
  36   2.0000      -0.421974       -11.4825 
  37   2.0000      -0.416964       -11.3462 
  38   2.0000      -0.404698       -11.0124 
  39   2.0000      -0.364532        -9.9194 
  40   2.0000      -0.352444        -9.5905 
  41   2.0000      -0.308305        -8.3894 
  42   0.0000       0.082676         2.2497 
  43   0.0000       0.089834         2.4445 
  44   0.0000       0.090953         2.4750 
  45   0.0000       0.095215         2.5909 
  46   0.0000       0.108783         2.9601 
  47   0.0000       0.115038         3.1303 
  48   0.0000       0.118419         3.2224 
  49   0.0000       0.119887         3.2623 
  50   0.0000       0.128723         3.5027 
  51   0.0000       0.129617         3.5271 
  52   0.0000       0.144439         3.9304 
*Only the first 10 virtual orbitals were printed.

                    ********************************
                    * MULLIKEN POPULATION ANALYSIS *
                    ********************************

-----------------------
MULLIKEN ATOMIC CHARGES
-----------------------
   0 C :   -0.075068
   1 C :   -0.102693
   2 C :   -0.032515
   3 C :   -0.058687
   4 C :   -0.067780
   5 C :   -0.074942
   6 C :   -0.107978
   7 C :   -0.033418
   8 C :   -0.045315
   9 C :   -0.054966
  10 C :    0.034060
  11 C :   -0.075302
  12 C :   -0.043155
  13 C :   -0.083152
  14 C :   -0.065967
  15 H :    0.035668
  16 H :    0.038623
  17 H :    0.032319
  18 H :    0.056913
  19 H :    0.030256
  20 H :    0.034408
  21 H :    0.037694
  22 H :    0.037521
  23 H :    0.042656
  24 H :    0.044574
  25 H :    0.034318
  26 H :    0.033677
  27 H :    0.035593
  28 H :    0.035993
  29 H :    0.030403
  30 H :    0.025800
  31 H :    0.045088
  32 H :    0.045927
  33 H :    0.041775
  34 H :    0.031678
  35 H :    0.036822
  36 H :    0.036748
  37 H :    0.031917
  38 H :    0.030507
Sum of atomic charges:    0.0000000

--------------------------------
MULLIKEN REDUCED ORBITAL CHARGES
--------------------------------
  0 C s       :     0.960335  s :     0.960335
      pz      :     1.024229  p :     3.039805
      px      :     0.995508
      py      :     1.020068
      dz2     :     0.004330  d :     0.074928
      dxz     :     0.020844
      dyz     :     0.021080
      dx2y2   :     0.009066
      dxy     :     0.019609

  1 C s       :     1.044631  s :     1.044631
      pz      :     1.013356  p :     2.935148
      px      :     0.961581
      py      :     0.960211
      dz2     :     0.019786  d :     0.122914
      dxz     :     0.026835
      dyz     :     0.027904
      dx2y2   :     0.021235
      dxy     :     0.027154

  2 C s       :     0.999744  s :     0.999744
      pz      :     1.013089  p :     2.933113
      px      :     0.913715
      py      :     1.006309
      dz2     :     0.022181  d :     0.099658
      dxz     :     0.022301
      dyz     :     0.011152
      dx2y2   :     0.026956
      dxy     :     0.017068

  3 C s       :     0.992975  s :     0.992975
      pz      :     1.061386  p :     2.966821
      px      :     0.960384
      py      :     0.945050
      dz2     :     0.012833  d :     0.098890
      dxz     :     0.021276
      dyz     :     0.020005
      dx2y2   :     0.021404
      dxy     :     0.023372

  4 C s       :     1.064809  s :     1.064809
      pz      :     0.978679  p :     2.890456
      px      :     1.025522
      py      :     0.886255
      dz2     :     0.017909  d :     0.112514
      dxz     :     0.019940
      dyz     :     0.026983
      dx2y2   :     0.023015
      dxy     :     0.024667

  5 C s       :     1.044445  s :     1.044445
      pz      :     1.012175  p :     2.912173
      px      :     0.921627
      py      :     0.978371
      dz2     :     0.015655  d :     0.118324
      dxz     :     0.027964
      dyz     :     0.020835
      dx2y2   :     0.028239
      dxy     :     0.025631

  6 C s       :     1.094641  s :     1.094641
      pz      :     0.885522  p :     2.871249
      px      :     0.965492
      py      :     1.020235
      dz2     :     0.031312  d :     0.142089
      dxz     :     0.030973
      dyz     :     0.033455
      dx2y2   :     0.020297
      dxy     :     0.026052

  7 C s       :     0.945707  s :     0.945707
      pz      :     0.974519  p :     3.014228
      px      :     1.023835
      py      :     1.015874
      dz2     :     0.016317  d :     0.073483
      dxz     :     0.009471
      dyz     :     0.021934
      dx2y2   :     0.006723
      dxy     :     0.019038

  8 C s       :     0.955451  s :     0.955451
      pz      :     1.031015  p :     3.013747
      px      :     0.985266
      py      :     0.997465
      dz2     :     0.011242  d :     0.076117
      dxz     :     0.009730
      dyz     :     0.020771
      dx2y2   :     0.016948
      dxy     :     0.017426

  9 C s       :     1.019665  s :     1.019665
      pz      :     0.985367  p :     2.914076
      px      :     0.930046
      py      :     0.998663
      dz2     :     0.015156  d :     0.121226
      dxz     :     0.026425
      dyz     :     0.016254
      dx2y2   :     0.033563
      dxy     :     0.029829

 10 C s       :     1.049015  s :     1.049015
      pz      :     0.928172  p :     2.795322
      px      :     0.929492
      py      :     0.937658
      dz2     :     0.018069  d :     0.121603
      dxz     :     0.025078
      dyz     :     0.017324
      dx2y2   :     0.032806
      dxy     :     0.028324

 11 C s       :     0.992471  s :     0.992471
      pz      :     1.009999  p :     2.980423
      px      :     0.976831
      py      :     0.993593
      dz2     :     0.016324  d :     0.102407
      dxz     :     0.025135
      dyz     :     0.018261
      dx2y2   :     0.020954
      dxy     :     0.021734

 12 C s       :     0.997189  s :     0.997189
      pz      :     1.006731  p :     2.950413
      px      :     0.970754
      py      :     0.972927
      dz2     :     0.022144  d :     0.095554
      dxz     :     0.013786
      dyz     :     0.017514
      dx2y2   :     0.016436
      dxy     :     0.025673

 13 C s       :     1.044155  s :     1.044155
      pz      :     0.977077  p :     2.909897
      px      :     0.927615
      py      :     1.005205
      dz2     :     0.024168  d :     0.129099
      dxz     :     0.021877
      dyz     :     0.034065
      dx2y2   :     0.024759
      dxy     :     0.024229

 14 C s       :     0.963145  s :     0.963145
      pz      :     0.972234  p :     3.028268
      px      :     1.029758
      py      :     1.026276
      dz2     :     0.015488  d :     0.074553
      dxz     :     0.010671
      dyz     :     0.022846
      dx2y2   :     0.010677
      dxy     :     0.014871

 15 H s       :     0.920849  s :     0.920849
      pz      :     0.014076  p :     0.043483
      px      :     0.015589
      py      :     0.013817

 16 H s       :     0.918182  s :     0.918182
      pz      :     0.014681  p :     0.043195
      px      :     0.011507
      py      :     0.017007

 17 H s       :     0.924570  s :     0.924570
      pz      :     0.016836  p :     0.043111
      px      :     0.013567
      py      :     0.012709

 18 H s       :     0.902160  s :     0.902160
      pz      :     0.017087  p :     0.040926
      px      :     0.012527
      py      :     0.011312

 19 H s       :     0.927258  s :     0.927258
      pz      :     0.010977  p :     0.042486
      px      :     0.009922
      py      :     0.021587

 20 H s       :     0.923322  s :     0.923322
      pz      :     0.021917  p :     0.042269
      px      :     0.010854
      py      :     0.009498

 21 H s       :     0.919063  s :     0.919063
      pz      :     0.018720  p :     0.043243
      px      :     0.013329
      py      :     0.011195

 22 H s       :     0.920133  s :     0.920133
      pz      :     0.018102  p :     0.042346
      px      :     0.011994
      py      :     0.012250

 23 H s       :     0.913055  s :     0.913055
      pz      :     0.017038  p :     0.044289
      px      :     0.017909
      py      :     0.009342

 24 H s       :     0.910442  s :     0.910442
      pz      :     0.016165  p :     0.044984
      px      :     0.009175
      py      :     0.019644

 25 H s       :     0.921910  s :     0.921910
      pz      :     0.010997  p :     0.043772
      px      :     0.016868
      py      :     0.015908

 26 H s       :     0.919740  s :     0.919740
      pz      :     0.010356  p :     0.046582
      px      :     0.022128
      py      :     0.014098

 27 H s       :     0.919724  s :     0.919724
      pz      :     0.017460  p :     0.044683
      px      :     0.010802
      py      :     0.016421

 28 H s       :     0.920933  s :     0.920933
      pz      :     0.011292  p :     0.043074
      px      :     0.019132
      py      :     0.012650

 29 H s       :     0.925581  s :     0.925581
      pz      :     0.020274  p :     0.044017
      px      :     0.010810
      py      :     0.012933

 30 H s       :     0.930811  s :     0.930811
      pz      :     0.015600  p :     0.043389
      px      :     0.010325
      py      :     0.017464

 31 H s       :     0.911841  s :     0.911841
      pz      :     0.012586  p :     0.043071
      px      :     0.012183
      py      :     0.018302

 32 H s       :     0.911060  s :     0.911060
      pz      :     0.018905  p :     0.043013
      px      :     0.013865
      py      :     0.010243

 33 H s       :     0.915422  s :     0.915422
      pz      :     0.010714  p :     0.042803
      px      :     0.016231
      py      :     0.015858

 34 H s       :     0.925848  s :     0.925848
      pz      :     0.021657  p :     0.042474
      px      :     0.009940
      py      :     0.010877

 35 H s       :     0.922389  s :     0.922389
      pz      :     0.014047  p :     0.040789
      px      :     0.008996
      py      :     0.017747

 36 H s       :     0.920029  s :     0.920029
      pz      :     0.012340  p :     0.043223
      px      :     0.014304
      py      :     0.016580

 37 H s       :     0.924561  s :     0.924561
      pz      :     0.015336  p :     0.043522
[...]
 81:   1512.40   0.000137    0.69  0.000028  (-0.004525 -0.002005  0.001918)
 82:   1518.74   0.002258   11.41  0.000464  ( 0.019448 -0.000538 -0.009239)
 83:   1521.05   0.001436    7.26  0.000295  ( 0.006200  0.006847 -0.014467)
 84:   1524.64   0.002226   11.25  0.000456  ( 0.001315  0.016294  0.013730)
 85:   1527.45   0.000821    4.15  0.000168  (-0.007825 -0.008894 -0.005234)
 86:   1528.15   0.001074    5.43  0.000219  (-0.014064 -0.001787  0.004271)
 87:   1530.69   0.002181   11.02  0.000445  (-0.000668  0.016737 -0.012809)
 88:   1532.11   0.003511   17.74  0.000715  (-0.006396 -0.024861 -0.007489)
 89:   1540.17   0.002157   10.90  0.000437  ( 0.011467 -0.000090 -0.017478)
 90:   1544.99   0.000229    1.16  0.000046  (-0.006457  0.000084 -0.002120)
 91:   1563.67   0.000164    0.83  0.000033  ( 0.000760  0.000721 -0.005621)
 92:   1787.25   0.000348    1.76  0.000061  (-0.007389 -0.002440 -0.000418)
 93:   3041.42   0.007285   36.81  0.000747  ( 0.001596  0.022272  0.015775)
 94:   3060.66   0.003547   17.93  0.000362  ( 0.003993 -0.002322 -0.018449)
 95:   3076.46   0.009547   48.25  0.000968  ( 0.022053 -0.006752  0.020892)
 96:   3078.04   0.006161   31.13  0.000625  ( 0.017725  0.010504 -0.014146)
 97:   3084.87   0.009064   45.81  0.000917  (-0.023876  0.017484 -0.006417)
 98:   3094.15   0.003693   18.66  0.000372  ( 0.003489  0.005745  0.018090)
 99:   3095.51   0.008758   44.26  0.000883  ( 0.008222 -0.017077  0.022883)
100:   3096.58   0.005728   28.95  0.000577  ( 0.020830 -0.002177  0.011775)
101:   3101.58   0.014242   71.97  0.001433  ( 0.000504 -0.037789  0.002173)
102:   3105.08   0.007418   37.49  0.000745  (-0.015495 -0.006755  0.021442)
103:   3123.30   0.004057   20.50  0.000405  (-0.010688 -0.010392 -0.013533)
104:   3154.47   0.004964   25.09  0.000491  (-0.018862  0.010509  0.004992)
105:   3163.34   0.002333   11.79  0.000230  ( 0.000244 -0.014396 -0.004784)
106:   3164.02   0.004549   22.99  0.000449  (-0.000476  0.006689 -0.020092)
107:   3166.90   0.002283   11.54  0.000225  ( 0.011134  0.009617 -0.002916)
108:   3168.78   0.006468   32.68  0.000637  ( 0.012650  0.019944 -0.008898)
109:   3169.88   0.006286   31.77  0.000619  ( 0.015356  0.018414  0.006631)
110:   3182.15   0.003686   18.63  0.000361  (-0.012706 -0.014116  0.000863)
111:   3183.53   0.002522   12.75  0.000247  ( 0.010255  0.001036  0.011874)
112:   3183.75   0.004682   23.66  0.000459  (-0.006473 -0.004992  0.019802)
113:   3189.20   0.007839   39.61  0.000767  (-0.013694  0.009308  0.022200)
114:   3191.48   0.004582   23.16  0.000448  (-0.011262  0.013482  0.011807)
115:   3195.92   0.003833   19.37  0.000374  (-0.012509 -0.013633 -0.005653)
116:   3219.60   0.001819    9.19  0.000176  (-0.012008  0.005481 -0.001452)

* The epsilon (eps) is given for a Dirac delta lineshape.
** The dipole moment derivative (T) already includes vibrational overlap.

The first frequency considered to be a vibration is 6
The total number of vibrations considered is 111


--------------------------
THERMOCHEMISTRY AT 298.15K
--------------------------

Temperature         ...   298.15 K
Pressure            ...     1.00 atm
Total Mass          ...   204.36 AMU
Quasi RRHO          ...     True
Cut-Off Frequency   ...     1.00 cm^-1

Throughout the following assumptions are being made:
  (1) The electronic state is orbitally nondegenerate
  (2) There are no thermally accessible electronically excited states
  (3) Hindered rotations indicated by low frequency modes are not
      treated as such but are treated as vibrations and this may
      cause some error
  (4) All equations used are the standard statistical mechanics
      equations for an ideal gas
  (5) All vibrations are strictly harmonic

freq.      47.65  E(vib)   ...       0.53 
freq.      69.82  E(vib)   ...       0.50 
freq.     126.62  E(vib)   ...       0.43 
freq.     152.52  E(vib)   ...       0.40 
freq.     162.77  E(vib)   ...       0.39 
freq.     170.48  E(vib)   ...       0.38 
freq.     223.62  E(vib)   ...       0.33 
freq.     226.71  E(vib)   ...       0.33 
freq.     239.19  E(vib)   ...       0.31 
freq.     258.87  E(vib)   ...       0.30 
freq.     265.14  E(vib)   ...       0.29 
freq.     272.31  E(vib)   ...       0.29 
freq.     297.73  E(vib)   ...       0.27 
freq.     317.28  E(vib)   ...       0.25 
freq.     328.71  E(vib)   ...       0.24 
freq.     366.99  E(vib)   ...       0.22 
freq.     382.21  E(vib)   ...       0.21 
freq.     409.98  E(vib)   ...       0.19 
freq.     428.85  E(vib)   ...       0.18 
freq.     467.42  E(vib)   ...       0.16 
freq.     488.61  E(vib)   ...       0.15 
freq.     514.49  E(vib)   ...       0.13 
freq.     588.25  E(vib)   ...       0.10 
freq.     603.05  E(vib)   ...       0.10 
freq.     665.73  E(vib)   ...       0.08 
freq.     688.84  E(vib)   ...       0.07 
freq.     740.51  E(vib)   ...       0.06 
freq.     765.07  E(vib)   ...       0.06 
freq.     812.18  E(vib)   ...       0.05 
freq.     851.84  E(vib)   ...       0.04 
freq.     872.98  E(vib)   ...       0.04 
freq.     925.40  E(vib)   ...       0.03 
freq.     938.10  E(vib)   ...       0.03 
freq.     946.21  E(vib)   ...       0.03 
freq.     969.56  E(vib)   ...       0.03 
freq.     987.82  E(vib)   ...       0.02 
freq.     988.98  E(vib)   ...       0.02 
freq.     995.37  E(vib)   ...       0.02 
freq.    1016.00  E(vib)   ...       0.02 
freq.    1038.74  E(vib)   ...       0.02 
freq.    1040.24  E(vib)   ...       0.02 
freq.    1048.22  E(vib)   ...       0.02 
freq.    1077.31  E(vib)   ...       0.02 
freq.    1082.75  E(vib)   ...       0.02 
freq.    1107.10  E(vib)   ...       0.02 
freq.    1124.07  E(vib)   ...       0.01 
freq.    1136.23  E(vib)   ...       0.01 
freq.    1154.90  E(vib)   ...       0.01 
freq.    1166.66  E(vib)   ...       0.01 
freq.    1168.28  E(vib)   ...       0.01 
freq.    1181.69  E(vib)   ...       0.01 
freq.    1210.69  E(vib)   ...       0.01 
freq.    1228.48  E(vib)   ...       0.01 
freq.    1250.26  E(vib)   ...       0.01 
freq.    1252.41  E(vib)   ...       0.01 
freq.    1262.57  E(vib)   ...       0.01 
freq.    1290.51  E(vib)   ...       0.01 
freq.    1293.90  E(vib)   ...       0.01 
freq.    1326.44  E(vib)   ...       0.01 
freq.    1348.16  E(vib)   ...       0.01 
freq.    1359.58  E(vib)   ...       0.01 
freq.    1370.04  E(vib)   ...       0.01 
freq.    1377.77  E(vib)   ...       0.01 
freq.    1384.12  E(vib)   ...       0.00 
freq.    1405.38  E(vib)   ...       0.00 
freq.    1413.45  E(vib)   ...       0.00 
freq.    1430.07  E(vib)   ...       0.00 
freq.    1440.96  E(vib)   ...       0.00 
freq.    1443.65  E(vib)   ...       0.00 
freq.    1445.51  E(vib)   ...       0.00 
freq.    1447.59  E(vib)   ...       0.00 
freq.    1452.87  E(vib)   ...       0.00 
freq.    1456.22  E(vib)   ...       0.00 
freq.    1509.43  E(vib)   ...       0.00 
freq.    1510.70  E(vib)   ...       0.00 
freq.    1512.40  E(vib)   ...       0.00 
freq.    1518.74  E(vib)   ...       0.00 
freq.    1521.05  E(vib)   ...       0.00 
freq.    1524.64  E(vib)   ...       0.00 
freq.    1527.45  E(vib)   ...       0.00 
freq.    1528.15  E(vib)   ...       0.00 
freq.    1530.69  E(vib)   ...       0.00 
freq.    1532.11  E(vib)   ...       0.00 
freq.    1540.17  E(vib)   ...       0.00 
freq.    1544.99  E(vib)   ...       0.00 
freq.    1563.67  E(vib)   ...       0.00 
freq.    1787.25  E(vib)   ...       0.00 
freq.    3041.42  E(vib)   ...       0.00 
freq.    3060.66  E(vib)   ...       0.00 
freq.    3076.46  E(vib)   ...       0.00 
freq.    3078.04  E(vib)   ...       0.00 
freq.    3084.87  E(vib)   ...       0.00 
freq.    3094.15  E(vib)   ...       0.00 
freq.    3095.51  E(vib)   ...       0.00 
freq.    3096.58  E(vib)   ...       0.00 
freq.    3101.58  E(vib)   ...       0.00 
freq.    3105.08  E(vib)   ...       0.00 
freq.    3123.30  E(vib)   ...       0.00 
freq.    3154.47  E(vib)   ...       0.00 
freq.    3163.34  E(vib)   ...       0.00 
freq.    3164.02  E(vib)   ...       0.00 
freq.    3166.90  E(vib)   ...       0.00 
freq.    3168.78  E(vib)   ...       0.00 
freq.    3169.88  E(vib)   ...       0.00 
freq.    3182.15  E(vib)   ...       0.00 
freq.    3183.53  E(vib)   ...       0.00 
freq.    3183.75  E(vib)   ...       0.00 
freq.    3189.20  E(vib)   ...       0.00 
freq.    3191.48  E(vib)   ...       0.00 
freq.    3195.92  E(vib)   ...       0.00 
freq.    3219.60  E(vib)   ...       0.00 

------------
INNER ENERGY
------------

The inner energy is: U= E(el) + E(ZPE) + E(vib) + E(rot) + E(trans)
    E(el)   - is the total energy from the electronic structure calculation
              = E(kin-el) + E(nuc-el) + E(el-el) + E(nuc-nuc)
    E(ZPE)  - the the zero temperature vibrational energy from the frequency calculation
    E(vib)  - the the finite temperature correction to E(ZPE) due to population
              of excited vibrational states
    E(rot)  - is the rotational thermal energy
    E(trans)- is the translational thermal energy

Summary of contributions to the inner energy U:
Electronic energy                ...    -99.93123669 Eh
Zero point energy                ...      0.36617625 Eh     229.78 kcal/mol
Thermal vibrational correction   ...      0.01212783 Eh       7.61 kcal/mol
Thermal rotational correction    ...      0.00141627 Eh       0.89 kcal/mol
Thermal translational correction ...      0.00141627 Eh       0.89 kcal/mol
-----------------------------------------------------------------------
Total thermal energy                    -99.55010006 Eh


Summary of corrections to the electronic energy:
(perhaps to be used in another calculation)
Total thermal correction                  0.01496038 Eh       9.39 kcal/mol
Non-thermal (ZPE) correction              0.36617625 Eh     229.78 kcal/mol
-----------------------------------------------------------------------
Total correction                          0.38113662 Eh     239.17 kcal/mol


--------
ENTHALPY
--------

The enthalpy is H = U + kB*T
                kB is Boltzmann's constant
Total thermal energy              ...    -99.55010006 Eh 
Thermal Enthalpy correction       ...      0.00094421 Eh       0.59 kcal/mol
-----------------------------------------------------------------------
Total Enthalpy                    ...    -99.54915585 Eh


Note: Only C1 symmetry has been detected, increase convergence thresholds 
      if your molecule has a higher symmetry. Symmetry factor of 1.0 is   
      used for the rotational entropy correction. 
 

Note: Rotational entropy computed according to Herzberg 
Infrared and Raman Spectra, Chapter V,1, Van Nostrand Reinhold, 1945 
Point Group:  C1, Symmetry Number:   1  
Rotational constants in cm-1:     0.025188     0.020562     0.012930 

Vibrational entropy computed according to the QRRHO of S. Grimme
Chem.Eur.J. 2012 18 9955 using a reference frequency of 100.0 cm-1


-------
ENTROPY
-------

The entropy contributions are T*S = T*(S(el)+S(vib)+S(rot)+S(trans))
     S(el)   - electronic entropy
     S(vib)  - vibrational entropy
     S(rot)  - rotational entropy
     S(trans)- translational entropy
The entropies will be listed as multiplied by the temperature to get
units of energy

Electronic entropy                ...      0.00000000 Eh      0.00 kcal/mol
Vibrational entropy               ...      0.02036181 Eh     12.78 kcal/mol
Rotational entropy                ...      0.01513525 Eh      9.50 kcal/mol
Translational entropy             ...      0.01988345 Eh     12.48 kcal/mol
-----------------------------------------------------------------------
Final entropy term                ...      0.05538051 Eh     34.75 kcal/mol

In case the symmetry of your molecule has not been determined correctly
or in case you have a reason to use a different symmetry number we print 
out the resulting rotational entropy values for sn=1,12:

 non-linear molecules -----------------------------------
|  sn= 1 | S(rot)=       0.01513525 Eh      9.50 kcal/mol|
|  sn= 2 | S(rot)=       0.01448079 Eh      9.09 kcal/mol|
|  sn= 3 | S(rot)=       0.01409796 Eh      8.85 kcal/mol|
|  sn= 4 | S(rot)=       0.01382634 Eh      8.68 kcal/mol|
|  sn= 5 | S(rot)=       0.01361565 Eh      8.54 kcal/mol|
|  sn= 6 | S(rot)=       0.01344351 Eh      8.44 kcal/mol|
|  sn= 7 | S(rot)=       0.01329796 Eh      8.34 kcal/mol|
|  sn= 8 | S(rot)=       0.01317188 Eh      8.27 kcal/mol|
|  sn= 9 | S(rot)=       0.01306067 Eh      8.20 kcal/mol|
|  sn=10 | S(rot)=       0.01296119 Eh      8.13 kcal/mol|
|  sn=11 | S(rot)=       0.01287120 Eh      8.08 kcal/mol|
|  sn=12 | S(rot)=       0.01278905 Eh      8.03 kcal/mol|
 linear molecules ---------------------------------------
|  Dinfh | S(rot)=       0.00943131 Eh      5.92 kcal/mol|
|  Cinfv | S(rot)=       0.01008576 Eh      6.33 kcal/mol|
 --------------------------------------------------------


-------------------
GIBBS FREE ENERGY
-------------------

The Gibbs free energy is G = H - T*S

Total enthalpy                    ...    -99.54915585 Eh 
Total entropy correction          ...     -0.05538051 Eh    -34.75 kcal/mol
-----------------------------------------------------------------------
Final Gibbs free energy         ...    -99.60453637 Eh

For completeness - the Gibbs free energy minus the electronic energy
G-E(el)                           ...      0.32670032 Eh    205.01 kcal/mol


Maximum memory used throughout the entire PROP-calculation: 241.5 MB

--------------------------------
SUGGESTED CITATIONS FOR THIS RUN
--------------------------------

Below you find a list of papers that are relevant to this ORCA run
We neither can nor want to force you to cite these papers, but we appreciate if you do
You receive ORCA, which is the product of decades of hard work by many enthusiastic individuals, for free
The only thing we kindly ask in return is that you cite our papers,
We deeply appreciate it, if you show your appreciation for ORCA by not just citing the generic ORCA reference.

Please note that relegating all ORCA citations to the supporting information does *not* help us.
SI sections are not indexed - citations you put there will not count into any citation statistics
But we need these citations in order to attract the funding resources that allow us to do what we are doing

Therefore, if you are a happy ORCA user, please consider citing a few of the papers listed below in the main body of your paper

In addition to the list printed below, the program has created the file ./output/isoledene/isoledene.bibtex that contains the list in bibtex format
You can import this file easily into all common literature databanks and citation aid programs


List of essential papers. We consider these as the minimum necessary citations

  1. Neese,F.
     Software update: the ORCA program system, version 5.0
     WIRES Comput. Molec. Sci., 2022 12(1)e1606
     doi.org/10.1002/wcms.1606
  2. Mueller,M.; Hansen,A.; Grimme,S.
     wB97X-3c: A composite range-separated hybrid DFT method with a molecule-optimized polarized valence double-zeta basis set
     J. Chem. Phys., 2023 158 014103
     doi.org/10.1063/5.0133026

List of papers to cite with high priority. The work reported in these papers was absolutely
necessary for this run to complete.
Our perspective: the developers of density functionals and basis sets usually get cited in chemistry papers
Good! But without the algorithms to do something with them, the functionals or basis sets would not do anything.
Hence, in our opinion, the algorithm design and method developments papers are equally worthy of getting cited

  1. Neese,F.
     An improvement of the resolution of the identity approximation for the formation of the Coulomb matrix
     J. Comp. Chem., 2003 24(14)1740-1747
     doi.org/10.1002/jcc.10318
  2. Neese,F.; Wennmohs,F.; Hansen,A.; Becker,U.
     Efficient, approximate and parallel Hartree-Fock and hybrid DFT calculations. A 'chain-of-spheres' algorithm for the Hartree-Fock exchange
     Chem. Phys., 2009 356(1-3)98-109
     doi.org/10.1016/j.chemphys.2008.10.036
  3. Bykov,D.; Petrenko,T.; Izsak,R.; Kossmann,S.; Becker,U.; Valeev,E.; Neese,F.
     Efficient implementation of the analytic second derivatives of Hartree-Fock and hybrid DFT energies: a detailed analysis of different approximations
     Molec. Phys., 2015 113 1961-1977
     doi.org/10.1080/00268976.2015.1025114
  4. Helmich-Paris,B.; de Souza,B.; Neese,F.; Izsák,R.
     An improved chain of spheres for exchange algorithm
     J. Chem. Phys., 2021 155 104109
     doi.org/doi: 10.1063/5.0058766.
  5. Neese,F.
     The SHARK Integral Generation and Digestion System
     J. Comp. Chem., 2022  1-16
     doi.org/10.1002/jcc.26942
  6. Caldeweyher,E.; Bannwarth,C.; Grimme,S.
     Extension of the D3 dispersion coefficient model
     J. Chem. Phys., 2017 147 034112
     doi.org/10.1063/1.4993215
  7. Caldeweyher,E.; Ehlert,S.; Hansen,A.; Neugebauer,H.; Spicher,S.; Bannwarth,C.; Grimme,S.
     A generally applicable atomic-charge dependent London dispersion correction
     J. Chem. Phys., 2019 150 154122
     doi.org/10.1063/1.5090222
  8. Caldeweyher,E.; Mewes,J.; Ehlert,S.; Grimme,S.
     Extension and evaluation of the D4 London-dispersion model for periodic systems
     Phys. Chem. Chem. Phys., 2020 22(16)8499-8512
     doi.org/10.1039/D0CP00502A
  9. Wittmann,L.; Gordiy,I.; Friede,M.; Helmich-Paris,B.; Grimme,S.; Hansen,A.; Bursch,M.
     Extension of the D3 and D4 London Dispersion Corrections to the full Actinides Series
     Phys. Chem. Chem. Phys., 2024 26(32)21379-21394
     doi.org/https://doi.org/10.1039/D4CP01514B 

List of suggested additional citations. These are papers that are important in the 'surrounding' of 
of this run, or papers that preceded the highly important papers. If you like your results we are grateful for a citation.

  1. Izsak,R.; Neese,F.
     An overlap fitted chain of spheres exchange method
     J. Chem. Phys., 2011 135 144105
     doi.org/10.1063/1.3646921
  2. Izsak,R.; Hansen,A.; Neese,F.
     The resolution of identity and chain of spheres approximations for the LPNO-CCSD singles Fock term
     Molec. Phys., 2012 110 2413-2417
     doi.org/10.1080/00268976.2012.687466
  3. Neese,F.
     The ORCA program system
     WIRES Comput. Molec. Sci., 2012 2(1)73-78
     doi.org/10.1002/wcms.81
  4. Izsak,R.; Neese,F.; Klopper,W.
     Robust fitting techniques in the chain of spheres approximation to the Fock exchange: The role of the complementary space
     J. Chem. Phys., 2013 139 
     doi.org/10.1063/1.4819264
  5. Neese,F.
     Software update: the ORCA program system, version 4.0
     WIRES Comput. Molec. Sci., 2018 8(1)1-6
     doi.org/10.1002/wcms.1327
  6. Neese,F.; Wennmohs,F.; Becker,U.; Riplinger,C.
     The ORCA quantum chemistry program package
     J. Chem. Phys., 2020 152 Art. No. L224108
     doi.org/10.1063/5.0004608

List of optional additional citations

  1. Neese,F.
     Approximate second-order SCF convergence for spin unrestricted wavefunctions
     Chem. Phys. Lett., 2000 325(1-3)93-98
     doi.org/10.1016/s0009-2614(00)00662-x

Timings for individual modules:

Sum of individual times          ...     1809.232 sec (=  30.154 min)
Startup calculation              ...       77.730 sec (=   1.296 min)   4.3 %
SCF iterations                   ...     1057.215 sec (=  17.620 min)  58.4 %
Property integrals               ...      139.358 sec (=   2.323 min)   7.7 %
SCF Response                     ...       89.363 sec (=   1.489 min)   4.9 %
Property calculations            ...      207.856 sec (=   3.464 min)  11.5 %
SCF Gradient evaluation          ...      237.148 sec (=   3.952 min)  13.1 %
Geometry relaxation              ...        0.561 sec (=   0.009 min)   0.0 %
                             ****ORCA TERMINATED NORMALLY****
TOTAL RUN TIME: 0 days 0 hours 30 minutes 16 seconds 648 msec
