
                                 *****************
                                 * O   R   C   A *
                                 *****************

                                            #,                                       
                                            ###                                      
                                            ####                                     
                                            #####                                    
                                            ######                                   
                                           ########,                                 
                                     ,,################,,,,,                         
                               ,,#################################,,                 
                          ,,##########################################,,             
                       ,#########################################, ''#####,          
                    ,#############################################,,   '####,        
                  ,##################################################,,,,####,       
                ,###########''''           ''''###############################       
              ,#####''   ,,,,##########,,,,          '''####'''          '####       
            ,##' ,,,,###########################,,,                        '##       
           ' ,,###''''                  '''############,,,                           
         ,,##''                                '''############,,,,        ,,,,,,###''
      ,#''                                            '''#######################'''  
     '                                                          ''''####''''         
             ,#######,   #######,   ,#######,      ##                                
            ,#'     '#,  ##    ##  ,#'     '#,    #''#        ,####,   ,####,        
            ##       ##  ##   ,#'  ##            #'  '#       #'       #'  '#        
            ##       ##  #######   ##           ,######,      #####,   #    #        
            '#,     ,#'  ##    ##  '#,     ,#' ,#      #,     #,   #   #,  ,#        
             '#######'   ##     ##  '#######'  #'      '#     '####' # '####'        



                #########################################################
                #                        -***-                          #
                #          Department of theory and spectroscopy        #
                #                                                       #
                #                      Frank Neese                      #
                #                                                       #
                #     Directorship, Architecture, Infrastructure        #
                #                    SHARK, DRIVERS                     #
                #        Core code/Algorithms in most modules           #
                #                                                       #
                #        Max Planck Institute fuer Kohlenforschung      #
                #                Kaiser Wilhelm Platz 1                 #
                #                 D-45470 Muelheim/Ruhr                 #
                #                      Germany                          #
                #                                                       #
                #                  All rights reserved                  #
                #                        -***-                          #
                #########################################################


                         Program Version 6.0.1  -  RELEASE   -


 With contributions from (in alphabetic order):
[Max-Planck-Institut fuer Kohlenforschung]                               
  Daniel Aravena         : Magnetic Suceptibility                        
  Michael Atanasov       : Ab Initio Ligand Field Theory (pilot matlab implementation)
  Alexander A. Auer      : GIAO ZORA, VPT2 properties, NMR spectrum      
  Ute Becker             : All parallelization in ORCA, NUMFREQ, NUMCALC 
  Giovanni Bistoni       : ED, misc. LED, open-shell LED, HFLD           
  Martin Brehm           : Molecular dynamics                            
  Dmytro Bykov           : pre 5.0 version of the SCF Hessian            
  Marcos Casanova-Páez   : Triplet and SCS-CIS(D). UHF-(DLPNO)-IP/EA/STEOM-CCSD. UHF-CVS-IP/STEOM-CCSD   
  Vijay G. Chilkuri      : MRCI spin determinant printing, contributions to CSF-ICE 
  Pauline Colinet        : FMM embedding                                 
  Dipayan Datta          : RHF DLPNO-CCSD density                        
  Achintya Kumar Dutta   : EOM-CC, STEOM-CC                              
  Nicolas Foglia         : Exact transition moments, OPA infrastructure, MCD improvements    
  Dmitry Ganyushin       : Spin-Orbit,Spin-Spin,Magnetic field MRCI      
  Miquel Garcia-Rates    : C-PCM and meta-GGA Hessian, CCSD/C-PCM, Gaussian charge scheme 
  Tiago L. C. Gouveia    : GS-ROHF, GS-ROCIS                             
  Yang Guo               : DLPNO-NEVPT2, F12-NEVPT2, CIM, IAO-localization        
  Andreas Hansen         : Spin unrestricted coupled pair/coupled cluster methods 
  Ingolf Harden          : AUTO-CI MPn and infrastructure                
  Benjamin Helmich-Paris : MC-RPA, TRAH-(SCF,CASSCF), AVAS, COSX integrals, SCF dyn. polar. 
  Lee Huntington         : MR-EOM, pCC                                   
  Robert Izsak           : Overlap fitted RIJCOSX, COSX-SCS-MP3, EOM     
  Riya Kayal             : Wick's Theorem for AUTO-CI, AUTO-CI UHF-CCSDT 
  Emily Kempfer          : AUTO-CI, RHF CISDT and CCSDT                  
  Christian Kollmar      : KDIIS, OOCD, Brueckner-CCSD(T), CCSD density, CASPT2, CASPT2-K, improved NEVPT2 
  Axel Koslowski         : Symmetry handling                             
  Simone Kossmann        : meta-GGA functionals, TD-DFT gradient, OOMP2, (MP2 Hessian; deprecated post 5.0) 
  Lucas Lang             : DCDCAS                                        
  Marvin Lechner         : AUTO-CI (C++ implementation), FIC-MRCC        
  Spencer Leger          : CASSCF response                               
  Dagmar Lenk            : GEPOL surface, SMD, ORCA-2-JSON               
  Dimitrios Liakos       : Extrapolation schemes; Compound Job, initial MDCI parallelization 
  Dimitrios Manganas     : Further ROCIS development; embedding schemes. LFT, Crystal Embedding 
  Dimitrios Pantazis     : SARC Basis sets                               
  Anastasios Papadopoulos: AUTO-CI, single reference methods and gradients 
  Taras Petrenko         : pre 6.0 DFT Hessian and TD-DFT gradient, (ASA, deprecated), ECA, 1-Electron XAS/XES, NRVS 
  Peter Pinski           : DLPNO-MP2, DLPNO-MP2 Gradient                 
  Christoph Reimann      : Effective Core Potentials                     
  Marius Retegan         : Local ZFS, SOC                                
  Christoph Riplinger    : Optimizer, TS searches, QM/MM, DLPNO-CCSD(T), (RO)-DLPNO pert. Triples 
  Michael Roemelt        : Original ROCIS implementation                 
  Masaaki Saitow         : Open-shell DLPNO-CCSD energy and density      
  Barbara Sandhoefer     : DKH picture change effects                    
  Kantharuban Sivalingam : CASSCF convergence/infrastructure, NEVPT2 and variants, FIC-MRCI 
  Bernardo de Souza      : ESD, SOC TD-DFT                               
  Georgi L. Stoychev     : AutoAux, RI-MP2 NMR, DLPNO-MP2 response, X2C  
  Van Anh Tran           : RI-MP2 g-tensors                              
  Willem Van den Heuvel  : Paramagnetic NMR                              
  Zikuan Wang            : NOTCH, Electric field optimization            
  Frank Wennmohs         : Technical directorship and infrastructure     
  Hang Xu                : AUTO-CI-Response properties                   
                                                                         
[FACCTs GmbH]                                                            
  Markus Bursch, Miquel Garcia-Rates, Christoph Riplinger, Bernardo de Souza, Georgi L. Stoychev 
                                                                 
  APM, Basis sets (HGBS, AHGBS, def-TZVP (Ac-Lr), def2-XVPD (La-Lu)), CI-OPT, improved COSX, DLPNO-Multilevel,           
  DOCKER, DRACO, updates on ESD, GOAT, IRC, LR-CPCM, MBIS, meta-GGA TD-DFT gradient, ML-optimized integration grids, 
  MM, NACMEs, nearIR, NEB, NEB-TS, NL-DFT gradient (VV10), 2- and 3-layer-ONIOM, interface openCOSMO-RS, QMMM,   
  Crystal-QMMM, SF, symmetry and pop. for TD-DFT, r2SCAN hybrids, SOLVATOR                                   
                                                                         
[Other institutions]                                                     
  V. Asgeirsson          : NEB                                           
  Christoph Bannwarth    : sTDA-DFT, sTD-DFT, PBEh-3c, B97-3c, D3        
  Sebastian Ehlert       : rSCAN, r2SCAN, r2SCAN-3c, D4, dhf basis sets  
  Marvin Friede          : D4 for Fr, Ra, Ac-Lr                          
  Lars Goerigk           : TD-DFT with DH, B97 family of functionals     
  Stefan Grimme          : VdW corrections, initial TS optimization, DFT functionals, gCP, sTDA/sTD-DF 
  Waldemar Hujo          : DFT-NL                                        
  H. Jonsson             : NEB                                           
  Holger Kruse           : gCP                                           
  Marcel Mueller         : wB97X-3c, vDZP basis set                      
  Hagen Neugebauer       : wr2SCAN                                       
  Tobias Risthaus        : range-separated hybrid DFT                    
  Lukas Wittmann         : regularized MP2, r2SCAN double-hybrids, wr2SCAN        
                                                                         
We gratefully acknowledge several colleagues who have allowed us to      
interface, adapt or use parts of their codes:                            
  Ed Valeev, F. Pavosevic, A. Kumar             : LibInt (2-el integral package), F12 methods 
  Garnet Chan, S. Sharma, J. Yang, R. Olivares  : DMRG                   
  Ulf Ekstrom                                   : XCFun DFT Library      
  Mihaly Kallay                                 : mrcc  (arbitrary order and MRCC methods)
  Frank Weinhold                                : gennbo (NPA and NBO analysis)           
  Simon Mueller                                 : openCOSMO-RS                            
  Christopher J. Cramer and Donald G. Truhlar   : smd solvation model                     
  S Lehtola, MJT Oliveira, MAL Marques          : LibXC Library                           
  Liviu Ungur et al                             : ANISO software                          


 Your calculation uses the libint2 library for the computation of 2-el integrals
 For citations please refer to: http://libint.valeyev.net

 Your ORCA version has been built with support for libXC version: 6.2.2
 For citations please refer to: https://libxc.gitlab.io

 This ORCA versions uses:
   CBLAS   interface :  Fast vector & matrix operations
   LAPACKE interface :  Fast linear algebra routines
   SCALAPACK package :  Parallel linear algebra routines
   Shared memory     :  Shared parallel matrices
   BLAS/LAPACK       :  OpenBLAS 0.3.27  USE64BITINT DYNAMIC_ARCH NO_AFFINITY SkylakeX SINGLE_THREADED
        Core in use  :  SkylakeX
   Copyright (c) 2011-2014, The OpenBLAS Project


Your calculation utilizes the atom-pairwise dispersion correction
based on EEQ partial charges (D4)


================================================================================

cite the ECPs for C  [vDZP-ECP] as follows:
   B-Ne (ecp-2-mwb), Al-Ar (ecp-10-mwb), Ga-Kr (ecp-28-mwb), Y-Cd (ecp-28-mwb), In-Xe (ecp-46-mwb):
     A. Bergner, M. Dolg, W. Küchle, H. Stoll, and H. Preuß, Mol. Phys. 80, 1431 (1993)., T. Leininger, A. Berning, A. Nicklass, H. Stoll, H.-J. Werner, and H.-J.Flad, Chem. Phys. 217, 19 (1997).
   Na-Mg, K-Ca, Rb-Sr, Cs-Ba (CRENBL):
     L. Fernandez Pacios and P. A. Christiansen, J. Chem. Phys. 82, 2664 (1985)., M. M. Hurley, L. F. Pacios, P. A. Christiansen, R. B. Ross, and W. C. Ermler, J. Chem. Phys. 84, 6840 (1986)., L. A. LaJohn, P. A. Christiansen, R. B. Ross, T. Atashroo, and W. C. Ermler, J. Chem. Phys. 87, 2812 (1987)., R. B. Ross, J. M. Powers, T. Atashroo, W. C. Ermler, L. A. LaJohn, and P. A. Christiansen, J. Chem. Phys. 93, 6654 (1990). 
   Sc-Zn (ecp-10-mdf):
     M. Dolg, U. Wedig, H. Stoll, and H. Preuss, J. Chem. Phys. 86, 866 (1986). 
   Y-Cd (ecp-28-mwb), Hf-Hg (ecp-60-mwb):
     D. Andrae, U. Häußermann, M. Dolg, H. Stoll, and H. Preuß, Theor. Chim. Acta 77, 123 (1990). 
   La (ecp-46-mwb):
     M. Dolg, H. Stoll, and H. Preuss, J. Chem. Phys. 90, 1730 (1989)., M. Dolg, H. Stoll, and H. Preuss, Theor. Chim. Acta 85, 441 (1993).
   Ce-Lu (SBKJC-ecp):
     T. R. Cundari and W. J. Stevens, J. Chem. Phys. 98, 5555 (1993).
   Tl-Rn (ecp-78-mwb):
     W. Küchle, M. Dolg, H. Stoll, and H. Preuss, Mol. Phys. 74, 1245 (1991).

ECP parameters for C  [vDZP-ECP] have been obtained from:
MM, AH, SG, J. Chem. Phys. 158, 014103 (2023), 10.1063/5.0133026

----- Orbital basis set information -----
Your calculation utilizes the basis: vDZP
   Marcel Mueller, Andreas Hansen, Stefan Grimme 
   J. Chem. Phys. 158, 014103 (2023). DOI: 10.1063/5.0133026

----- AuxJ basis set information -----
Your calculation utilizes the auxiliary basis: def2/J
   F. Weigend, Phys. Chem. Chem. Phys. 8, 1057 (2006).

================================================================================
                                        WARNINGS
                       Please study these warnings very carefully!
================================================================================

WARNING: Frozen-Core approximation turned on, but there are no core electrons.
  ===> : Turning off frozen-core approximation


WARNING: Geometry Optimization
  ===> : Switching off AutoStart
         For restart on a previous wavefunction, please use MOREAD

================================================================================
                                       INPUT FILE
================================================================================
NAME = ./output/chamazulene/chamazulene.inp
|  1> ! wB97X-3c OPT FREQ TightSCF
|  2> %pal
|  3>   nprocs 40
|  4> end
|  5> * xyz 0 1
|  6> C      3.781732     0.390524    -0.430019
|  7> C      2.994395     0.048609     0.831492
|  8> C      1.558717    -0.302298     0.492250
|  9> C      0.652107     0.761698     0.440670
| 10> C     -0.705949     0.708361     0.147558
| 11> C     -1.540957     1.822643     0.127370
| 12> C     -2.823324     1.422254    -0.179355
| 13> C     -2.831240     0.058257    -0.361146
| 14> C     -1.546211    -0.444423    -0.173586
| 15> C     -1.193849    -1.795725    -0.297735
| 16> C      0.103624    -2.299845    -0.134472
| 17> C      1.292570    -1.650752     0.205051
| 18> C     -2.277827    -2.792964    -0.650439
| 19> C     -1.144618     3.243455     0.398551
| 20> H      3.794025    -0.477107    -1.123758
| 21> H      4.828250     0.643575    -0.158640
| 22> H      3.326430     1.264059    -0.943745
| 23> H      3.494439    -0.795562     1.355447
| 24> H      3.034730     0.912345     1.531290
| 25> H      1.055998     1.743959     0.655856
| 26> H     -3.686409     2.069614    -0.265154
| 27> H     -3.715719    -0.510470    -0.615671
| 28> H      0.227851    -3.366521    -0.285406
| 29> H      2.145709    -2.319218     0.257343
| 30> H     -1.904408    -3.837810    -0.701876
| 31> H     -3.078966    -2.766085     0.118304
| 32> H     -2.710212    -2.542399    -1.642272
| 33> H     -0.743926     3.329845     1.430138
| 34> H     -0.367862     3.560900    -0.328164
| 35> H     -2.019099     3.921081     0.300118
| 36> *
| 37> 
| 38>                          ****END OF INPUT****
================================================================================

                       *****************************
                       * Geometry Optimization Run *
                       *****************************

Geometry optimization settings:
Update method            Update   .... BFGS
Choice of coordinates    CoordSys .... (2022) Redundant Internals
Initial Hessian          InHess   .... Almloef's Model
Max. no of cycles        MaxIter  .... 90

Convergence Tolerances:
Energy Change            TolE     ....  5.0000e-06 Eh
Max. Gradient            TolMAXG  ....  3.0000e-04 Eh/bohr
RMS Gradient             TolRMSG  ....  1.0000e-04 Eh/bohr
Max. Displacement        TolMAXD  ....  4.0000e-03 bohr
RMS Displacement         TolRMSD  ....  2.0000e-03 bohr
Strict Convergence                .... False

------------------------------------------------------------------------------
                        ORCA OPTIMIZATION COORDINATE SETUP
------------------------------------------------------------------------------

The optimization will be done in redundant internal coordinates (2022)
Making redundant internal coordinates   ...  (2022 redundants) done
Evaluating the initial hessian          ...  (Almloef) done
Evaluating the coordinates              ...  done
Calculating the B-matrix                .... done
Calculating the G-matrix                .... done
Diagonalizing the G-matrix              .... done
Small eigenvalue found = 1.420e-02
Small eigenvalue found = 2.241e-02
The first mode is                       ....   66
The number of degrees of freedom        ....   84

    -----------------------------------------------------------------
                    Redundant Internal Coordinates


    -----------------------------------------------------------------
         Definition                    Initial Value    Approx d2E/dq
    -----------------------------------------------------------------
      1. B(C   1,C   0)                  1.5258         0.379315   
      2. B(C   2,C   1)                  1.5164         0.392750   
      3. B(C   3,C   2)                  1.3988         0.604883   
      4. B(C   4,C   3)                  1.3904         0.623992   
      5. B(C   5,C   4)                  1.3926         0.618910   
      6. B(C   6,C   5)                  1.3780         0.652980   
      7. B(C   7,C   6)                  1.3761         0.657576   
      8. B(C   8,C   7)                  1.3925         0.618995   
      9. B(C   8,C   4)                  1.4622         0.479201   
     10. B(C   9,C   8)                  1.4020         0.597863   
     11. B(C  10,C   9)                  1.4015         0.598930   
     12. B(C  11,C  10)                  1.3965         0.610072   
     13. B(C  11,C   2)                  1.4042         0.593142   
     14. B(C  12,C   9)                  1.5146         0.395376   
     15. B(C  13,C   5)                  1.4998         0.417442   
     16. B(H  14,C   0)                  1.1109         0.333426   
     17. B(H  15,C   0)                  1.1104         0.334159   
     18. B(H  16,C   0)                  1.1110         0.333388   
     19. B(H  17,C   1)                  1.1123         0.331783   
     20. B(H  18,C   1)                  1.1124         0.331681   
     21. B(H  19,C   3)                  1.0836         0.368616   
     22. B(H  20,C   6)                  1.0823         0.370445   
     23. B(H  21,C   7)                  1.0819         0.370958   
     24. B(H  22,C  10)                  1.0844         0.367530   
     25. B(H  23,C  11)                  1.0851         0.366650   
     26. B(H  24,C  12)                  1.1108         0.333657   
     27. B(H  25,C  12)                  1.1106         0.333810   
     28. B(H  26,C  12)                  1.1106         0.333832   
     29. B(H  27,C  13)                  1.1100         0.334542   
     30. B(H  28,C  13)                  1.1101         0.334516   
     31. B(H  29,C  13)                  1.1107         0.333771   
     32. A(C   1,C   0,H  16)          110.3053         0.321049   
     33. A(C   1,C   0,H  15)          109.5930         0.321170   
     34. A(H  14,C   0,H  15)          108.6738         0.284026   
     35. A(C   1,C   0,H  14)          110.3028         0.321055   
     36. A(H  14,C   0,H  16)          109.2595         0.283924   
     37. A(H  15,C   0,H  16)          108.6679         0.284021   
     38. A(H  17,C   1,H  18)          106.0610         0.283480   
     39. A(C   0,C   1,H  18)          109.1117         0.320779   
     40. A(C   0,C   1,H  17)          109.1198         0.320796   
     41. A(C   2,C   1,H  17)          110.8175         0.322629   
     42. A(C   2,C   1,H  18)          110.7786         0.322613   
     43. A(C   0,C   1,C   2)          110.8200         0.367437   
     44. A(C   3,C   2,C  11)          126.8755         0.428721   
     45. A(C   1,C   2,C  11)          116.5800         0.397086   
     46. A(C   1,C   2,C   3)          116.4786         0.398456   
     47. A(C   2,C   3,C   4)          127.7100         0.432642   
     48. A(C   4,C   3,H  19)          116.1484         0.354694   
     49. A(C   2,C   3,H  19)          116.1415         0.352831   
     50. A(C   3,C   4,C   8)          129.6314         0.414996   
     51. A(C   5,C   4,C   8)          106.4440         0.414393   
     52. A(C   3,C   4,C   5)          123.9208         0.434430   
     53. A(C   4,C   5,C   6)          109.1921         0.437999   
     54. A(C   6,C   5,C  13)          124.1552         0.408237   
     55. A(C   4,C   5,C  13)          126.6518         0.404388   
     56. A(C   5,C   6,C   7)          108.8304         0.442818   
     57. A(C   7,C   6,H  20)          125.2978         0.358167   
     58. A(C   5,C   6,H  20)          125.8718         0.357740   
     59. A(C   6,C   7,C   8)          109.5548         0.438564   
     60. A(C   8,C   7,H  21)          126.6074         0.354592   
     61. A(C   6,C   7,H  21)          123.8371         0.358251   
     62. A(C   7,C   8,C   9)          124.6058         0.431112   
     63. A(C   4,C   8,C   9)          129.4123         0.411855   
     64. A(C   4,C   8,C   7)          105.9784         0.414403   
     65. A(C   8,C   9,C  10)          124.6840         0.428570   
     66. A(C  10,C   9,C  12)          116.9278         0.398230   
     67. A(C   8,C   9,C  12)          118.3835         0.398105   
     68. A(C  11,C  10,H  22)          113.1723         0.353165   
     69. A(C   9,C  10,H  22)          116.3365         0.352065   
     70. A(C   9,C  10,C  11)          130.4899         0.430128   
     71. A(C  10,C  11,H  23)          113.2512         0.353021   
     72. A(C   2,C  11,H  23)          115.6407         0.351345   
     73. A(C   2,C  11,C  10)          131.1069         0.429379   
     74. A(H  25,C  12,H  26)          109.3808         0.284033   
     75. A(H  24,C  12,H  26)          107.5626         0.284013   
     76. A(C   9,C  12,H  26)          109.7586         0.323308   
     77. A(H  24,C  12,H  25)          107.2966         0.284010   
     78. A(C   9,C  12,H  25)          109.8244         0.323304   
     79. A(C   9,C  12,H  24)          112.9257         0.323280   
     80. A(H  28,C  13,H  29)          108.5691         0.284118   
     81. A(H  27,C  13,H  29)          108.6078         0.284122   
     82. A(C   5,C  13,H  29)          110.7255         0.326196   
     83. A(H  27,C  13,H  28)          109.4845         0.284220   
     84. A(C   5,C  13,H  28)          109.7222         0.326316   
     85. A(C   5,C  13,H  27)          109.7037         0.326320   
     86. D(H  17,C   1,C   0,H  15)    -57.6941         0.011469   
     87. D(H  17,C   1,C   0,H  14)     61.9136         0.011469   
     88. D(C   2,C   1,C   0,H  14)    -60.3791         0.011469   
     89. D(C   2,C   1,C   0,H  16)     60.4111         0.011469   
     90. D(H  17,C   1,C   0,H  16)   -177.2962         0.011469   
     91. D(C   2,C   1,C   0,H  15)   -179.9868         0.011469   
     92. D(C   3,C   2,C   1,C   0)    -88.2895         0.011468   
     93. D(C  11,C   2,C   1,C   0)     88.9621         0.011468   
     94. D(C   3,C   2,C   1,H  18)     32.9715         0.011468   
     95. D(C  11,C   2,C   1,H  17)    -32.3355         0.011468   
     96. D(C   3,C   2,C   1,H  17)    150.4129         0.011468   
     97. D(H  19,C   3,C   2,C  11)   -177.3833         0.025245   
     98. D(C   4,C   3,C   2,C  11)      2.6952         0.025245   
     99. D(C   4,C   3,C   2,C   1)    179.6223         0.025245   
    100. D(H  19,C   3,C   2,C   1)     -0.4562         0.025245   
    101. D(C   8,C   4,C   3,C   2)      0.3433         0.026964   
    102. D(C   5,C   4,C   3,H  19)     -0.3891         0.026964   
    103. D(C   5,C   4,C   3,C   2)    179.5324         0.026964   
    104. D(C   8,C   4,C   3,H  19)   -179.5782         0.026964   
    105. D(C  13,C   5,C   4,C   8)    179.8297         0.026500   
    106. D(C  13,C   5,C   4,C   3)      0.4808         0.026500   
    107. D(C   6,C   5,C   4,C   8)      0.1550         0.026500   
    108. D(C   6,C   5,C   4,C   3)   -179.1939         0.026500   
    109. D(H  20,C   6,C   5,C   4)    179.9411         0.029707   
    110. D(C   7,C   6,C   5,C  13)   -179.7754         0.029707   
    111. D(C   7,C   6,C   5,C   4)     -0.0908         0.029707   
    112. D(H  20,C   6,C   5,C  13)      0.2565         0.029707   
    113. D(H  21,C   7,C   6,H  20)      0.2358         0.030157   
    114. D(H  21,C   7,C   6,C   5)   -179.7325         0.030157   
    115. D(C   8,C   7,C   6,H  20)    179.9526         0.030157   
    116. D(C   8,C   7,C   6,C   5)     -0.0157         0.030157   
    117. D(C   9,C   8,C   7,C   6)   -179.2637         0.026508   
    118. D(C   4,C   8,C   7,H  21)    179.8161         0.026508   
    119. D(C   4,C   8,C   7,C   6)      0.1091         0.026508   
    120. D(C   9,C   8,C   4,C   5)    179.1713         0.015634   
    121. D(C   9,C   8,C   4,C   3)     -1.5303         0.015634   
    122. D(C   7,C   8,C   4,C   5)     -0.1605         0.015634   
    123. D(C   9,C   8,C   7,H  21)      0.4433         0.026508   
    124. D(C   7,C   8,C   4,C   3)    179.1379         0.015634   
    125. D(C  12,C   9,C   8,C   7)     -0.4656         0.024632   
    126. D(C  12,C   9,C   8,C   4)   -179.6851         0.024632   
    127. D(C  10,C   9,C   8,C   7)    178.7162         0.024632   
    128. D(C  10,C   9,C   8,C   4)     -0.5034         0.024632   
    129. D(H  22,C  10,C   9,C  12)      0.6455         0.024724   
    130. D(H  22,C  10,C   9,C   8)   -178.5471         0.024724   
    131. D(C  11,C  10,C   9,C  12)   -178.9254         0.024724   
    132. D(C  11,C  10,C   9,C   8)      1.8820         0.024724   
    133. D(H  23,C  11,C  10,C   9)    179.8585         0.025705   
    134. D(C   2,C  11,C  10,H  22)   -179.2914         0.025705   
    135. D(C   2,C  11,C  10,C   9)      0.2903         0.025705   
    136. D(H  23,C  11,C   2,C   3)    177.1499         0.024224   
    137. D(H  23,C  11,C   2,C   1)      0.2255         0.024224   
    138. D(C  10,C  11,C   2,C   3)     -3.2903         0.024224   
    139. D(H  23,C  11,C  10,H  22)      0.2768         0.025705   
    140. D(C  10,C  11,C   2,C   1)    179.7853         0.024224   
    141. D(H  26,C  12,C   9,C   8)     61.3551         0.011614   
    142. D(H  25,C  12,C   9,C  10)    121.8240         0.011614   
    143. D(H  25,C  12,C   9,C   8)    -58.9307         0.011614   
    144. D(H  24,C  12,C   9,C  10)      2.1129         0.011614   
    145. D(H  24,C  12,C   9,C   8)   -178.6418         0.011614   
    146. D(H  28,C  13,C   5,C   4)     59.5522         0.012890   
    147. D(H  27,C  13,C   5,C   6)    118.8656         0.012890   
    148. D(H  27,C  13,C   5,C   4)    -60.7630         0.012890   
    149. D(H  29,C  13,C   5,C   4)    179.3764         0.012890   
    150. D(H  28,C  13,C   5,C   6)   -120.8192         0.012890   
    -----------------------------------------------------------------

Number of atoms                         .... 30
Number of degrees of freedom            .... 150


         *************************************************************
         *                GEOMETRY OPTIMIZATION CYCLE   1            *
         *************************************************************
---------------------------------
CARTESIAN COORDINATES (ANGSTROEM)
---------------------------------
  C      3.781732    0.390524   -0.430019
  C      2.994395    0.048609    0.831492
  C      1.558717   -0.302298    0.492250
  C      0.652107    0.761698    0.440670
  C     -0.705949    0.708361    0.147558
  C     -1.540957    1.822643    0.127370
  C     -2.823324    1.422254   -0.179355
  C     -2.831240    0.058257   -0.361146
  C     -1.546211   -0.444423   -0.173586
  C     -1.193849   -1.795725   -0.297735
  C      0.103624   -2.299845   -0.134472
  C      1.292570   -1.650752    0.205051
  C     -2.277827   -2.792964   -0.650439
  C     -1.144618    3.243455    0.398551
  H      3.794025   -0.477107   -1.123758
  H      4.828250    0.643575   -0.158640
  H      3.326430    1.264059   -0.943745
  H      3.494439   -0.795562    1.355447
  H      3.034730    0.912345    1.531290
  H      1.055998    1.743959    0.655856
  H     -3.686409    2.069614   -0.265154
  H     -3.715719   -0.510470   -0.615671
  H      0.227851   -3.366521   -0.285406
  H      2.145709   -2.319218    0.257343
  H     -1.904408   -3.837810   -0.701876
  H     -3.078966   -2.766085    0.118304
  H     -2.710212   -2.542399   -1.642272
  H     -0.743926    3.329845    1.430138
  H     -0.367862    3.560900   -0.328164
  H     -2.019099    3.921081    0.300118

----------------------------
CARTESIAN COORDINATES (A.U.)
----------------------------
  NO LB      ZA    FRAG     MASS         X           Y           Z
   0 C     4.0000*   0    12.011    7.146438    0.737983   -0.812618
   1 C     4.0000*   0    12.011    5.658586    0.091858    1.571292
   2 C     4.0000*   0    12.011    2.945548   -0.571260    0.930218
   3 C     4.0000*   0    12.011    1.232304    1.439401    0.832746
   4 C     4.0000*   0    12.011   -1.334050    1.338608    0.278844
   5 C     4.0000*   0    12.011   -2.911987    3.444296    0.240694
   6 C     4.0000*   0    12.011   -5.335309    2.687671   -0.338932
   7 C     4.0000*   0    12.011   -5.350268    0.110090   -0.682467
   8 C     4.0000*   0    12.011   -2.921915   -0.839838   -0.328030
   9 C     4.0000*   0    12.011   -2.256048   -3.393428   -0.562638
  10 C     4.0000*   0    12.011    0.195821   -4.346077   -0.254115
  11 C     4.0000*   0    12.011    2.442603   -3.119469    0.387490
  12 C     4.0000*   0    12.011   -4.304469   -5.277937   -1.229152
  13 C     4.0000*   0    12.011   -2.163015    6.129242    0.753152
  14 H     1.0000    0     1.008    7.169668   -0.901602   -2.123595
  15 H     1.0000    0     1.008    9.124070    1.216180   -0.299786
  16 H     1.0000    0     1.008    6.286042    2.388725   -1.783420
  17 H     1.0000    0     1.008    6.603533   -1.503394    2.561424
  18 H     1.0000    0     1.008    5.734809    1.724082    2.893719
  19 H     1.0000    0     1.008    1.995547    3.295605    1.239388
  20 H     1.0000    0     1.008   -6.966303    3.911004   -0.501068
  21 H     1.0000    0     1.008   -7.021691   -0.964648   -1.163450
  22 H     1.0000    0     1.008    0.430576   -6.361803   -0.539339
  23 H     1.0000    0     1.008    4.054802   -4.382687    0.486308
  24 H     1.0000    0     1.008   -3.598810   -7.252410   -1.326353
  25 H     1.0000    0     1.008   -5.818403   -5.227143    0.223562
  26 H     1.0000    0     1.008   -5.121558   -4.804438   -3.103444
  27 H     1.0000    0     1.008   -1.405816    6.292495    2.702569
  28 H     1.0000    0     1.008   -0.695158    6.729126   -0.620140
  29 H     1.0000    0     1.008   -3.815544    7.409769    0.567141
* core charge reduced due to ECP

--------------------------------
INTERNAL COORDINATES (ANGSTROEM)
--------------------------------
 C      0   0   0     0.000000000000     0.00000000     0.00000000
 C      1   0   0     1.525849082287     0.00000000     0.00000000
 C      2   1   0     1.516374682226   110.81995748     0.00000000
 C      3   2   1     1.398817242000   116.47858567   271.71047326
 C      4   3   2     1.390350883500   127.71002077   179.62231633
 C      5   4   3     1.392576852792   123.92078486   179.53239037
 C      6   5   4     1.377990094172   109.19214740   180.80614628
 C      7   6   5     1.376080828566   108.83038753   359.90920097
 C      8   7   6     1.392539215549   109.55484485     0.00000000
 C      9   8   7     1.401994667768   124.60579960   180.73631892
 C     10   9   8     1.401509174889   124.68395228   178.71616615
 C     11  10   9     1.396492098472   130.48994012     1.88203234
 C     10   9   8     1.514560675318   118.38352753   359.53441439
 C      6   5   4     1.499776809071   126.65183024     0.48079348
 H      1   2   3     1.110949355340   110.30278197   299.62092849
 H      1   2   3     1.110351878715   109.59299179   180.01316013
 H      1   2   3     1.110980517608   110.30534249    60.41106292
 H      2   1   3     1.112293810646   109.11982263   122.29269240
 H      2   1   3     1.112377647530   109.11170774   237.76137537
 H      4   3   2     1.083637220936   116.14152919   359.54380491
 H      7   6   5     1.082290236132   125.87181104   179.94110191
 H      8   7   6     1.081913341075   123.83709395   180.26747975
 H     11  10   9     1.084440458882   116.33653787   181.45292945
 H     12  11  10     1.085093267761   113.25119461   179.85846036
 H     13  10   9     1.110761305703   112.92573555   181.35823798
 H     13  10   9     1.110635844015   109.82439759   301.06934706
 H     13  10   9     1.110617984430   109.75857600    61.35512022
 H     14   6   5     1.110040111678   109.70366426   299.23695638
 H     14   6   5     1.110061215783   109.72215436    59.55215376
 H     14   6   5     1.110667848966   110.72548284   179.37643840

---------------------------
INTERNAL COORDINATES (A.U.)
---------------------------
 C      0   0   0     0.000000000000     0.00000000     0.00000000
 C      1   0   0     2.883436887217     0.00000000     0.00000000
 C      2   1   0     2.865532865820   110.81995748     0.00000000
 C      3   2   1     2.643381498787   116.47858567   271.71047326
 C      4   3   2     2.627382399870   127.71002077   179.62231633
 C      5   4   3     2.631588872215   123.92078486   179.53239037
 C      6   5   4     2.604023893241   109.19214740   180.80614628
 C      7   6   5     2.600415904129   108.83038753   359.90920097
 C      8   7   6     2.631517748133   109.55484485     0.00000000
 C      9   8   7     2.649385963299   124.60579960   180.73631892
 C     10   9   8     2.648468514718   124.68395228   178.71616615
 C     11  10   9     2.638987614297   130.48994012     1.88203234
 C     10   9   8     2.862104889559   118.38352753   359.53441439
 C      6   5   4     2.834167431150   126.65183024     0.48079348
 H      1   2   3     2.099390030250   110.30278197   299.62092849
 H      1   2   3     2.098260963056   109.59299179   180.01316013
 H      1   2   3     2.099448918402   110.30534249    60.41106292
 H      2   1   3     2.101930682577   109.11982263   122.29269240
 H      2   1   3     2.102089111328   109.11170774   237.76137537
 H      4   3   2     2.047777576093   116.14152919   359.54380491
 H      7   6   5     2.045232143706   125.87181104   179.94110191
 H      8   7   6     2.044519915267   123.83709395   180.26747975
 H     11  10   9     2.049295475832   116.33653787   181.45292945
 H     12  11  10     2.050529105831   113.25119461   179.85846036
 H     13  10   9     2.099034667935   112.92573555   181.35823798
 H     13  10   9     2.098797579705   109.82439759   301.06934706
 H     13  10   9     2.098763829980   109.75857600    61.35512022
 H     14   6   5     2.097671808738   109.70366426   299.23695638
 H     14   6   5     2.097711689718   109.72215436    59.55215376
 H     14   6   5     2.098858060297   110.72548284   179.37643840

---------------------
BASIS SET INFORMATION
---------------------
There are 2 groups of distinct atoms

 Group   1 Type C   : 6s6p2d contracted to 2s2p1d pattern {42/42/2}
 Group   2 Type H   : 8s2p contracted to 2s1p pattern {53/2}

Atom   0C    basis set group =>   1
Atom   1C    basis set group =>   1
Atom   2C    basis set group =>   1
Atom   3C    basis set group =>   1
Atom   4C    basis set group =>   1
Atom   5C    basis set group =>   1
Atom   6C    basis set group =>   1
Atom   7C    basis set group =>   1
Atom   8C    basis set group =>   1
Atom   9C    basis set group =>   1
Atom  10C    basis set group =>   1
Atom  11C    basis set group =>   1
Atom  12C    basis set group =>   1
Atom  13C    basis set group =>   1
Atom  14H    basis set group =>   2
Atom  15H    basis set group =>   2
Atom  16H    basis set group =>   2
Atom  17H    basis set group =>   2
Atom  18H    basis set group =>   2
Atom  19H    basis set group =>   2
Atom  20H    basis set group =>   2
Atom  21H    basis set group =>   2
Atom  22H    basis set group =>   2
Atom  23H    basis set group =>   2
Atom  24H    basis set group =>   2
Atom  25H    basis set group =>   2
Atom  26H    basis set group =>   2
Atom  27H    basis set group =>   2
Atom  28H    basis set group =>   2
Atom  29H    basis set group =>   2
---------------------------------
AUXILIARY/J BASIS SET INFORMATION
---------------------------------
There are 2 groups of distinct atoms

 Group   1 Type C   : 12s5p4d2f1g contracted to 6s4p3d1f1g pattern {711111/2111/211/2/1}
 Group   2 Type H   : 5s2p1d contracted to 3s1p1d pattern {311/2/1}

Atom   0C    basis set group =>   1
Atom   1C    basis set group =>   1
Atom   2C    basis set group =>   1
Atom   3C    basis set group =>   1
Atom   4C    basis set group =>   1
Atom   5C    basis set group =>   1
Atom   6C    basis set group =>   1
Atom   7C    basis set group =>   1
Atom   8C    basis set group =>   1
Atom   9C    basis set group =>   1
Atom  10C    basis set group =>   1
Atom  11C    basis set group =>   1
Atom  12C    basis set group =>   1
Atom  13C    basis set group =>   1
Atom  14H    basis set group =>   2
Atom  15H    basis set group =>   2
Atom  16H    basis set group =>   2
Atom  17H    basis set group =>   2
Atom  18H    basis set group =>   2
Atom  19H    basis set group =>   2
Atom  20H    basis set group =>   2
Atom  21H    basis set group =>   2
Atom  22H    basis set group =>   2
Atom  23H    basis set group =>   2
Atom  24H    basis set group =>   2
Atom  25H    basis set group =>   2
Atom  26H    basis set group =>   2
Atom  27H    basis set group =>   2
Atom  28H    basis set group =>   2
Atom  29H    basis set group =>   2
-------------------------
ECP PARAMETER INFORMATION
-------------------------

 Group 1, Type C  ECP vDZP-ECP (replacing 2 core electrons, lmax=3)

Atom   0C    ECP group =>   1
Atom   1C    ECP group =>   1
Atom   2C    ECP group =>   1
Atom   3C    ECP group =>   1
Atom   4C    ECP group =>   1
Atom   5C    ECP group =>   1
Atom   6C    ECP group =>   1
Atom   7C    ECP group =>   1
Atom   8C    ECP group =>   1
Atom   9C    ECP group =>   1
Atom  10C    ECP group =>   1
Atom  11C    ECP group =>   1
Atom  12C    ECP group =>   1
Atom  13C    ECP group =>   1



           ************************************************************
           *        Program running with 40 parallel MPI-processes    *
           *              working on a common directory               *
           ************************************************************
------------------------------------------------------------------------------
                             ORCA STARTUP CALCULATIONS
                           -- RI-GTO INTEGRALS CHOSEN --
------------------------------------------------------------------------------
------------------------------------------------------------------------------
                   ___                                                        
                  /   \      - P O W E R E D   B Y -                         
                 /     \                                                     
                 |  |  |   _    _      __       _____    __    __             
                 |  |  |  | |  | |    /  \     |  _  \  |  |  /  |          
                  \  \/   | |  | |   /    \    | | | |  |  | /  /          
                 / \  \   | |__| |  /  /\  \   | |_| |  |  |/  /          
                |  |  |   |  __  | /  /__\  \  |    /   |      \           
                |  |  |   | |  | | |   __   |  |    \   |  |\   \          
                \     /   | |  | | |  |  |  |  | |\  \  |  | \   \       
                 \___/    |_|  |_| |__|  |__|  |_| \__\ |__|  \__/        
                                                                              
                      - O R C A' S   B I G   F R I E N D -                    
                                      &                                       
                       - I N T E G R A L  F E E D E R -                       
                                                                              
 v1 FN, 2020, v2 2021, v3 2022-2024                                           
------------------------------------------------------------------------------


----------------------
SHARK INTEGRAL PACKAGE
----------------------

Number of atoms                             ...     30
Number of basis functions                   ...    262
Number of shells                            ...    118
Maximum angular momentum                    ...      2
Integral batch strategy                     ... SHARK/LIBINT Hybrid
RI-J (if used) integral strategy            ... SPLIT-RIJ (Revised 2003 algorithm where possible)
Printlevel                                  ...      1
Contraction scheme used                     ... SEGMENTED contraction
Prescreening option                         ... SCHWARTZ
   Thresh                                   ... 2.500e-11
   Tcut                                     ... 2.500e-12
   Tpresel                                  ... 2.500e-12 
Coulomb Range Separation                    ... NOT USED
Exchange Range Separation                   ... Long Range
   Mu parameter                             ... 3.000e-01
   Scaling (regular/separated)              ... 1.670e-01 8.330e-01
Multipole approximations                    ... NOT USED
Finite Nucleus Model                        ... NOT USED
CABS basis                                  ... NOT available
Auxiliary Coulomb fitting basis             ... AVAILABLE
   # of basis functions in Aux-J            ...    862
   # of shells in Aux-J                     ...    290
   Maximum angular momentum in Aux-J        ...      4
Auxiliary J/K fitting basis                 ... NOT available
Auxiliary Correlation fitting basis         ... NOT available
Auxiliary 'external' fitting basis          ... NOT available

Checking pre-screening integrals            ... done (  0.0 sec) Dimension = 118
Check shell pair data                       ... done (  0.0 sec)
Shell pair information
Shell pair cut-off parameter TPreSel        ...   2.5e-12
Total number of shell pairs                 ...      7021
Shell pairs after pre-screening             ...      6974
Total number of primitive shell pairs       ...     63980
Primitive shell pairs kept                  ...     48478
          la=0 lb=0:   1824 shell pairs
          la=1 lb=0:   2618 shell pairs
          la=1 lb=1:    971 shell pairs
          la=2 lb=0:    840 shell pairs
          la=2 lb=1:    616 shell pairs
          la=2 lb=2:    105 shell pairs

Calculating one electron integrals          ... done (  0.0 sec)
Calculating ECP integrals                   ... done (  0.1 sec)
Calculating RI/J V-Matrix + Cholesky decomp.... done (  0.0 sec)
Calculating Nuclear repulsion               ... done (  0.0 sec) ENN=    427.251594303956 Eh

Diagonalization of the overlap matrix:
Smallest eigenvalue                        ... 1.246e-04
Time for diagonalization                   ...    0.009 sec
Threshold for overlap eigenvalues          ... 1.000e-07
Number of eigenvalues below threshold      ... 0
Time for construction of square roots      ...    0.006 sec
Total time needed                          ...    0.022 sec

-------------------
DFT GRID GENERATION
-------------------

General Integration Accuracy     IntAcc      ... 4.388
Radial Grid Type                 RadialGrid  ... OptM3 with GC (2021)
Angular Grid (max. ang.)         AngularGrid ... 4 (Lebedev-302)
Angular grid pruning method      GridPruning ... 4 (adaptive)
Weight generation scheme         WeightScheme... mBecke (2022)
Basis function cutoff            BFCut       ... 1.0000e-11
Integration weight cutoff        WCut        ... 1.0000e-14
Partially contracted basis set               ... off
Rotationally invariant grid construction     ... off
Angular grids for H and He will be reduced by one unit

Total number of grid points                  ...   134720
Total number of batches                      ...     2119
Average number of points per batch           ...       63
Average number of grid points per atom       ...     4491

--------------------
COSX GRID GENERATION
--------------------

GRIDX 1
-------
General Integration Accuracy     IntAcc      ... 3.816
Radial Grid Type                 RadialGrid  ... OptM3 with GC (2021)
Angular Grid (max. ang.)         AngularGrid ... 1 (Lebedev-50)
Angular grid pruning method      GridPruning ... 4 (adaptive)
Weight generation scheme         WeightScheme... mBecke (2022)
Basis function cutoff            BFCut       ... 1.0000e-11
Integration weight cutoff        WCut        ... 1.0000e-14
Partially contracted basis set               ... on
Rotationally invariant grid construction     ... off
Angular grids for H and He will be reduced by one unit

Total number of grid points                  ...    17197
Total number of batches                      ...      151
Average number of points per batch           ...      113
Average number of grid points per atom       ...      573
UseSFitting                                  ... on

GRIDX 2
-------
General Integration Accuracy     IntAcc      ... 4.020
Radial Grid Type                 RadialGrid  ... OptM3 with GC (2021)
Angular Grid (max. ang.)         AngularGrid ... 2 (Lebedev-110)
Angular grid pruning method      GridPruning ... 4 (adaptive)
Weight generation scheme         WeightScheme... mBecke (2022)
Basis function cutoff            BFCut       ... 1.0000e-11
Integration weight cutoff        WCut        ... 1.0000e-14
Partially contracted basis set               ... on
Rotationally invariant grid construction     ... off
Angular grids for H and He will be reduced by one unit

Total number of grid points                  ...    36545
Total number of batches                      ...      299
Average number of points per batch           ...      122
Average number of grid points per atom       ...     1218
UseSFitting                                  ... on

GRIDX 3
-------
General Integration Accuracy     IntAcc      ... 4.338
Radial Grid Type                 RadialGrid  ... OptM3 with GC (2021)
Angular Grid (max. ang.)         AngularGrid ... 3 (Lebedev-194)
Angular grid pruning method      GridPruning ... 4 (adaptive)
Weight generation scheme         WeightScheme... mBecke (2022)
Basis function cutoff            BFCut       ... 1.0000e-11
Integration weight cutoff        WCut        ... 1.0000e-14
Partially contracted basis set               ... on
Rotationally invariant grid construction     ... off
Angular grids for H and He will be reduced by one unit

Total number of grid points                  ...    79852
Total number of batches                      ...      640
Average number of points per batch           ...      124
Average number of grid points per atom       ...     2662
UseSFitting                                  ... on
Initializing property integral containers    ... done (  0.0 sec)

SHARK setup successfully completed in   4.1 seconds

Maximum memory used throughout the entire STARTUP-calculation: 39.5 MB


           ************************************************************
           *        Program running with 40 parallel MPI-processes    *
           *              working on a common directory               *
           ************************************************************
-------------------------------------------------------------------------------
                                 ORCA GUESS
                   Start orbitals & Density for SCF / CASSCF
-------------------------------------------------------------------------------

------------
SCF SETTINGS
------------
Hamiltonian:
 Density Functional     Method          .... DFT(GTOs)
 Exchange Functional    Exchange        .... WB97X-V
 Correlation Functional Correlation     .... WB97X-V
 Gradients option       PostSCFGGA      .... off
 Hybrid DFT is turned on
   Fraction HF Exchange ScalHFX         ....  0.167000
   Scaling of DF-GGA-X  ScalDFX         ....  0.000000
   Scaling of DF-GGA-C  ScalDFC         ....  1.000000
   Scaling of DF-LDA-C  ScalLDAC        ....  1.000000
   Perturbative correction              ....  0.000000
 Long-range corrected/Screened/Range-Separated Hybrid DFT is turned on
   Amount of maximum screened exact exchange              ....  0.833000
   Range separation parameter mu (erf(mu*r12)/r12)        ....  0.300000
   NL short-range parameter             ....  6.000000
   NL long-range parameter              ....  0.010000
 RI-approximation to the Coulomb term is turned on
   Number of AuxJ basis functions       .... 862
   RIJ-COSX (HFX calculated with COS-X)).... on


General Settings:
 Integral files         IntName         .... ./output/chamazulene/chamazulene
 Hartree-Fock type      HFTyp           .... RHF
 Total Charge           Charge          ....    0
 Multiplicity           Mult            ....    1
 Number of Electrons    NEL             ....   72
 Basis Dimension        Dim             ....  262
 Nuclear Repulsion      ENuc            ....    427.2515943040 Eh

Convergence Acceleration:
 AO-DIIS                CNVDIIS         .... on
   Start iteration      DIISMaxIt       ....    12
   Startup error        DIISStart       ....  0.200000
   # of expansion vecs  DIISMaxEq       ....     5
   Bias factor          DIISBfac        ....   1.050
   Max. coefficient     DIISMaxC        ....  10.000
 MO-DIIS                CNVKDIIS        .... off
 Trust-Rad. Augm. Hess. CNVTRAH         .... auto
   Auto Start mean grad. ratio tolernc. ....  1.125000
   Auto Start start iteration           ....    50
   Auto Start num. interpolation iter.  ....    10
   Max. Number of Micro iterations      ....    24
   Max. Number of Macro iterations      .... Maxiter - #DIIS iter
   Number of Davidson start vectors     ....     2
   Converg. threshold    (grad. norm)   ....   1.000e-05
   Grad. Scal. Fac. for Micro threshold ....   0.100
   Minimum threshold for Micro iter.    ....   1.000e-02
   NR start threshold (gradient norm)   ....   1.000e-04
   Initial trust radius                 ....   0.400
   Minimum AH scaling param. (alpha)    ....   1.000
   Maximum AH scaling param. (alpha)    .... 1000.000
   Quad. conv. algorithm                .... NR
   White noise on init. David. guess    .... on
   Maximum white noise                  ....   0.010
   Pseudo random numbers                .... off
   Inactive MOs                         .... canonical
   Orbital update algorithm             .... Taylor
   Preconditioner                       .... Diag
   Full preconditioner red. dimension   ....   250
 SOSCF                  CNVSOSCF        .... on
   Start iteration      SOSCFMaxIt      ....   150
   Startup grad/error   SOSCFStart      ....  0.003300
   Hessian update       SOSCFHessUp     .... L-BFGS
 Level Shifting         CNVShift        .... on
   Level shift para.    LevelShift      ....    0.2500
   Turn off err/grad.   ShiftErr        ....    0.0010
 Zerner damping         CNVZerner       .... off
 Static damping         CNVDamp         .... on
   Fraction old density DampFac         ....    0.7000
   Max. Damping (<1)    DampMax         ....    0.9800
   Min. Damping (>=0)   DampMin         ....    0.0000
   Turn off err/grad.   DampErr         ....    0.1000

SCF Procedure:
 Maximum # iterations   MaxIter         ....   125
 SCF integral mode      SCFMode         .... Direct
   Integral package                     .... SHARK and LIBINT hybrid scheme
 Reset frequency        DirectResetFreq ....    20
 Integral Threshold     Thresh          ....  2.500e-11 Eh
 Primitive CutOff       TCut            ....  2.500e-12 Eh

Convergence Tolerance:
 Convergence Check Mode ConvCheckMode   .... Total+1el-Energy
 Convergence forced     ConvForced      .... 0
 Energy Change          TolE            ....  1.000e-08 Eh
 1-El. energy change                    ....  1.000e-05 Eh
 Orbital Gradient       TolG            ....  1.000e-05
 Orbital Rotation angle TolX            ....  1.000e-05
 DIIS Error             TolErr          ....  5.000e-07

------------------------------
INITIAL GUESS: MODEL POTENTIAL
------------------------------
Loading Hartree-Fock densities                     ... done
Atomic calculation to generate a density for atom 0 (C  with ECP)
  Multiplicity assumed   :    1
  Atomic configuration   : 1s2 2s2 2p2 
  Number of open shells  : 1
  Command: /home/aspe232/Project/Software/ORCA/6_0_1/build/orca ./output/chamazulene/chamazulene_atom6.inp "" > ./output/chamazulene/chamazulene_atom6.out
Returned from the atomic calculation with res=0
Calculating cut-offs                               ... done
Initializing the effective Hamiltonian             ... done
Setting up the integral package (SHARK)            ... done
Starting the Coulomb interaction                   ... done (   0.1 sec)
Making the grid                                    ... done (   0.8 sec)
Mapping shells                                     ... done
Starting the XC term evaluation                    ... done (   0.1 sec)
  promolecular density results
     # of electrons  =     99.989689489
     EX              =    -50.892448037
     EC              =     -4.043960202
     EX+EC           =    -54.936408238
Transforming the Hamiltonian                       ... done (   0.0 sec)
Diagonalizing the Hamiltonian                      ... done (   0.0 sec)
Back transforming the eigenvectors                 ... done (   0.0 sec)
Now organizing SCF variables                       ... done
                      ------------------
                      INITIAL GUESS DONE (   1.6 sec)
                      ------------------
             **** ENERGY FILE WAS UPDATED (./output/chamazulene/chamazulene.en.tmp) ****
Finished Guess after   2.3 sec
Maximum memory used throughout the entire GUESS-calculation: 25.3 MB


           ************************************************************
           *        Program running with 40 parallel MPI-processes    *
           *              working on a common directory               *
           ************************************************************

-------------------------------------------------------------------------------------------
                                      ORCA LEAN-SCF
                              memory conserving SCF solver
-------------------------------------------------------------------------------------------

----------------------------------------D-I-I-S--------------------------------------------
Iteration    Energy (Eh)           Delta-E    RMSDP     MaxDP     DIISErr   Damp  Time(sec)
-------------------------------------------------------------------------------------------
               ***  Starting incremental Fock matrix formation  ***
    1    -88.7756393588591664     0.00e+00  4.59e-03  8.93e-02  1.73e-01  0.700   6.1
    2    -88.9814660650755513    -2.06e-01  3.38e-03  6.26e-02  1.06e-01  0.700   4.6
                               ***Turning on AO-DIIS***
    3    -89.0932682417409296    -1.12e-01  1.90e-03  3.65e-02  6.15e-02  0.700   4.1
    4    -89.1597282300484721    -6.65e-02  4.17e-03  8.23e-02  3.87e-02  0.000   4.1
    5    -89.2992031882074571    -1.39e-01  2.58e-04  5.35e-03  4.67e-03  0.000   4.5
                              *** Initializing SOSCF ***
---------------------------------------S-O-S-C-F--------------------------------------
Iteration    Energy (Eh)           Delta-E    RMSDP     MaxDP     MaxGrad    Time(sec)
--------------------------------------------------------------------------------------
    6    -89.2995723812933875    -3.69e-04  1.07e-04  2.02e-03  1.93e-03     4.2
               *** Restarting incremental Fock matrix formation ***
    7    -89.2996693654480396    -9.70e-05  7.02e-05  1.40e-03  7.02e-04     5.5
    8    -89.2996896785261924    -2.03e-05  6.41e-05  1.22e-03  3.32e-04     5.0
    9    -89.2996941895470400    -4.51e-06  2.19e-05  4.36e-04  2.91e-04     5.3
   10    -89.2996965362814308    -2.35e-06  9.70e-06  1.98e-04  1.05e-04     4.6
   11    -89.2996969639085592    -4.28e-07  1.10e-05  2.77e-04  6.62e-05     4.8
   12    -89.2996972075746953    -2.44e-07  3.29e-06  6.68e-05  4.29e-05     4.8
   13    -89.2996972640055446    -5.64e-08  1.58e-06  3.40e-05  1.62e-05     4.5
   14    -89.2996972877583630    -2.38e-08  8.13e-07  2.32e-05  1.11e-05     4.6
   15    -89.2996972851917690     2.57e-09  5.03e-07  1.20e-05  4.22e-06     4.3
                 **** Energy Check signals convergence ****

               *****************************************************
               *                     SUCCESS                       *
               *           SCF CONVERGED AFTER  15 CYCLES          *
               *****************************************************

Recomputing exchange energy using gridx3       ... done (    5.548 sec)
Old exchange energy                            :    -13.615006978 Eh
New exchange energy                            :    -13.614973595 Eh
Exchange energy change after final integration :      0.000033383 Eh
Total energy after final integration           :    -89.299663902 Eh
             **** ENERGY FILE WAS UPDATED (./output/chamazulene/chamazulene.en.tmp) ****

----------------
TOTAL SCF ENERGY
----------------

Total Energy       :        -89.29966390182217 Eh           -2429.96739 eV

Components:
Nuclear Repulsion  :        427.25159430395593 Eh           11626.10694 eV
Electronic Energy  :       -516.55129158914770 Eh          -14056.07524 eV
One Electron Energy:       -979.74316194164101 Eh          -26660.16681 eV
Two Electron Energy:        463.19187035249325 Eh           12604.09157 eV

Virial components:
Potential Energy   :       -158.38786945489801 Eh           -4309.95304 eV
Kinetic Energy     :         69.08820555307584 Eh            1879.98565 eV
Virial Ratio       :          2.29254571293242

DFT components:
N(Alpha)           :       35.999991819798 electrons
N(Beta)            :       35.999991819798 electrons
N(Total)           :       71.999983639597 electrons
E(X)               :      -14.006372843326 Eh       
E(C)               :       -2.712999620301 Eh       
E(XC)              :      -16.719372463627 Eh       

---------------
SCF CONVERGENCE
---------------

  Last Energy change         ...   -2.5666e-09  Tolerance :   1.0000e-08
  Last MAX-Density change    ...    1.2042e-05  Tolerance :   1.0000e-07
  Last RMS-Density change    ...    5.0289e-07  Tolerance :   5.0000e-09
  Last DIIS Error            ...    1.9343e-03  Tolerance :   5.0000e-07
  Last Orbital Gradient      ...    4.2207e-06  Tolerance :   1.0000e-05
  Last Orbital Rotation      ...    2.2138e-05  Tolerance :   1.0000e-05


----------------
ORBITAL ENERGIES
----------------

  NO   OCC          E(Eh)            E(eV) 
   0   2.0000      -1.026362       -27.9287 
   1   2.0000      -0.979834       -26.6626 
   2   2.0000      -0.955576       -26.0025 
   3   2.0000      -0.898330       -24.4448 
   4   2.0000      -0.883715       -24.0471 
   5   2.0000      -0.870475       -23.6868 
   6   2.0000      -0.827476       -22.5168 
   7   2.0000      -0.795549       -21.6480 
   8   2.0000      -0.768045       -20.8996 
   9   2.0000      -0.749598       -20.3976 
  10   2.0000      -0.715885       -19.4802 
  11   2.0000      -0.662158       -18.0182 
  12   2.0000      -0.645191       -17.5565 
  13   2.0000      -0.638274       -17.3683 
  14   2.0000      -0.596687       -16.2367 
  15   2.0000      -0.568299       -15.4642 
  16   2.0000      -0.562088       -15.2952 
  17   2.0000      -0.547459       -14.8971 
  18   2.0000      -0.545202       -14.8357 
  19   2.0000      -0.528503       -14.3813 
  20   2.0000      -0.524534       -14.2733 
  21   2.0000      -0.520473       -14.1628 
  22   2.0000      -0.508125       -13.8268 
  23   2.0000      -0.500150       -13.6098 
  24   2.0000      -0.488572       -13.2947 
  25   2.0000      -0.481751       -13.1091 
  26   2.0000      -0.473256       -12.8779 
  27   2.0000      -0.466047       -12.6818 
  28   2.0000      -0.454698       -12.3730 
  29   2.0000      -0.448195       -12.1960 
  30   2.0000      -0.439817       -11.9680 
  31   2.0000      -0.431529       -11.7425 
  32   2.0000      -0.426089       -11.5945 
  33   2.0000      -0.384593       -10.4653 
  34   2.0000      -0.312794        -8.5116 
  35   2.0000      -0.264544        -7.1986 
  36   0.0000      -0.007904        -0.2151 
  37   0.0000       0.027102         0.7375 
  38   0.0000       0.081882         2.2281 
  39   0.0000       0.088819         2.4169 
  40   0.0000       0.095143         2.5890 
  41   0.0000       0.109649         2.9837 
  42   0.0000       0.113142         3.0788 
  43   0.0000       0.114929         3.1274 
  44   0.0000       0.134296         3.6544 
  45   0.0000       0.142720         3.8836 
  46   0.0000       0.145721         3.9653 
*Only the first 10 virtual orbitals were printed.

                    ********************************
                    * MULLIKEN POPULATION ANALYSIS *
                    ********************************

-----------------------
MULLIKEN ATOMIC CHARGES
-----------------------
   0 C :   -0.083018
   1 C :   -0.078528
   2 C :   -0.053836
   3 C :    0.035814
   4 C :   -0.062179
   5 C :   -0.049571
   6 C :    0.023487
   7 C :   -0.020386
   8 C :   -0.072613
   9 C :   -0.078048
  10 C :    0.023851
  11 C :    0.032781
  12 C :   -0.099459
  13 C :   -0.113832
  14 H :    0.043534
  15 H :    0.038477
  16 H :    0.043383
  17 H :    0.045418
  18 H :    0.047326
  19 H :    0.002430
  20 H :    0.010569
  21 H :    0.011461
  22 H :    0.017442
  23 H :    0.015013
  24 H :    0.038778
  25 H :    0.067757
  26 H :    0.068196
  27 H :    0.053694
  28 H :    0.052276
  29 H :    0.039783
Sum of atomic charges:    0.0000000

--------------------------------
MULLIKEN REDUCED ORBITAL CHARGES
--------------------------------
  0 C s       :     0.976853  s :     0.976853
      pz      :     0.982217  p :     3.031473
      px      :     1.010997
      py      :     1.038260
      dz2     :     0.012266  d :     0.074692
      dxz     :     0.012609
      dyz     :     0.024427
      dx2y2   :     0.016861
      dxy     :     0.008527

  1 C s       :     0.998364  s :     0.998364
      pz      :     0.987773  p :     2.977166
      px      :     0.930052
      py      :     1.059342
      dz2     :     0.014634  d :     0.102998
      dxz     :     0.023579
      dyz     :     0.026994
      dx2y2   :     0.020742
      dxy     :     0.017049

  2 C s       :     1.035901  s :     1.035901
      pz      :     0.996743  p :     2.902107
      px      :     0.945955
      py      :     0.959410
      dz2     :     0.007597  d :     0.115827
      dxz     :     0.017622
      dyz     :     0.020294
      dx2y2   :     0.035715
      dxy     :     0.034599

  3 C s       :     1.008828  s :     1.008828
      pz      :     0.891801  p :     2.853811
      px      :     0.991273
      py      :     0.970737
      dz2     :     0.006078  d :     0.101546
      dxz     :     0.022691
      dyz     :     0.011488
      dx2y2   :     0.030821
      dxy     :     0.030467

  4 C s       :     0.991308  s :     0.991308
      pz      :     0.964372  p :     2.944078
      px      :     0.965952
      py      :     1.013753
      dz2     :     0.007544  d :     0.126794
      dxz     :     0.021343
      dyz     :     0.025190
      dx2y2   :     0.034351
      dxy     :     0.038366

  5 C s       :     1.016962  s :     1.016962
      pz      :     1.015889  p :     2.908330
      px      :     0.976237
      py      :     0.916203
      dz2     :     0.008631  d :     0.124280
      dxz     :     0.021928
      dyz     :     0.021119
      dx2y2   :     0.035119
      dxy     :     0.037481

  6 C s       :     1.006669  s :     1.006669
      pz      :     0.937736  p :     2.867970
      px      :     0.960714
      py      :     0.969520
      dz2     :     0.007630  d :     0.101874
      dxz     :     0.014537
      dyz     :     0.019606
      dx2y2   :     0.025325
      dxy     :     0.034775

  7 C s       :     0.961705  s :     0.961705
      pz      :     1.042416  p :     2.962442
      px      :     0.962390
      py      :     0.957636
      dz2     :     0.005478  d :     0.096238
      dxz     :     0.012407
      dyz     :     0.020328
      dx2y2   :     0.026095
      dxy     :     0.031930

  8 C s       :     0.982567  s :     0.982567
      pz      :     0.980853  p :     2.964077
      px      :     0.995438
      py      :     0.987787
      dz2     :     0.008359  d :     0.125969
      dxz     :     0.026168
      dyz     :     0.018863
      dx2y2   :     0.034200
      dxy     :     0.038379

  9 C s       :     1.083399  s :     1.083399
      pz      :     0.866778  p :     2.866430
      px      :     0.963362
      py      :     1.036290
      dz2     :     0.007652  d :     0.128218
      dxz     :     0.023698
      dyz     :     0.023244
      dx2y2   :     0.036251
      dxy     :     0.037373

 10 C s       :     0.975947  s :     0.975947
      pz      :     0.997867  p :     2.908240
      px      :     0.920204
      py      :     0.990169
      dz2     :     0.006476  d :     0.091963
      dxz     :     0.019266
      dyz     :     0.005824
      dx2y2   :     0.035329
      dxy     :     0.025068

 11 C s       :     1.015397  s :     1.015397
      pz      :     0.908407  p :     2.853267
      px      :     0.980616
      py      :     0.964245
      dz2     :     0.008502  d :     0.098555
      dxz     :     0.011996
      dyz     :     0.017781
      dx2y2   :     0.024282
      dxy     :     0.035992

 12 C s       :     0.956069  s :     0.956069
      pz      :     1.056159  p :     3.071649
      px      :     1.002551
      py      :     1.012939
      dz2     :     0.013569  d :     0.071741
      dxz     :     0.019775
      dyz     :     0.006305
      dx2y2   :     0.016837
      dxy     :     0.015256

 13 C s       :     0.950773  s :     0.950773
      pz      :     1.043936  p :     3.086744
      px      :     1.052785
      py      :     0.990023
      dz2     :     0.015307  d :     0.076316
      dxz     :     0.014618
      dyz     :     0.013806
      dx2y2   :     0.012534
      dxy     :     0.020051

 14 H s       :     0.913399  s :     0.913399
      pz      :     0.015610  p :     0.043066
      px      :     0.009638
      py      :     0.017818

 15 H s       :     0.918122  s :     0.918122
      pz      :     0.010930  p :     0.043401
      px      :     0.021934
      py      :     0.010537

 16 H s       :     0.913473  s :     0.913473
      pz      :     0.013168  p :     0.043143
      px      :     0.011870
      py      :     0.018106

 17 H s       :     0.911812  s :     0.911812
      pz      :     0.012966  p :     0.042771
      px      :     0.012668
      py      :     0.017136

 18 H s       :     0.909887  s :     0.909887
      pz      :     0.015375  p :     0.042787
      px      :     0.009595
      py      :     0.017817

 19 H s       :     0.947412  s :     0.947412
      pz      :     0.013646  p :     0.050158
      px      :     0.012367
      py      :     0.024144

 20 H s       :     0.938714  s :     0.938714
      pz      :     0.014169  p :     0.050717
      px      :     0.020539
      py      :     0.016009

 21 H s       :     0.935137  s :     0.935137
      pz      :     0.017502  p :     0.053402
      px      :     0.020773
      py      :     0.015128

 22 H s       :     0.931806  s :     0.931806
      pz      :     0.015616  p :     0.050753
      px      :     0.010031
      py      :     0.025106

 23 H s       :     0.935922  s :     0.935922
      pz      :     0.013641  p :     0.049065
      px      :     0.019868
      py      :     0.015556

 24 H s       :     0.917151  s :     0.917151
      pz      :     0.010443  p :     0.044070
      px      :     0.011197
      py      :     0.022430

 25 H s       :     0.887875  s :     0.887875
      pz      :     0.016840  p :     0.044368
      px      :     0.017566
      py      :     0.009962

 26 H s       :     0.887476  s :     0.887476
      pz      :     0.021347  p :     0.044329
      px      :     0.012410
      py      :     0.010572

 27 H s       :     0.902111  s :     0.902111
      pz      :     0.021831  p :     0.044196
      px      :     0.011801
      py      :     0.010564

 28 H s       :     0.903514  s :     0.903514
      pz      :     0.016024  p :     0.044210
      px      :     0.016483
      py      :     0.011703

 29 H s       :     0.916428  s :     0.916428
      pz      :     0.010345  p :     0.043789
      px      :     0.018055
      py      :     0.015390



                     *******************************
                     * LOEWDIN POPULATION ANALYSIS *
                     *******************************

----------------------
LOEWDIN ATOMIC CHARGES
----------------------
   0 C :   -0.118709
   1 C :   -0.095427
   2 C :   -0.047226
   3 C :    0.010003
   4 C :   -0.033610
   5 C :   -0.072961
   6 C :   -0.035556
   7 C :   -0.075816
   8 C :   -0.036035
   9 C :    0.001650
  10 C :   -0.059787
  11 C :   -0.017190
  12 C :   -0.101993
  13 C :   -0.123243
  14 H :    0.047899
  15 H :    0.046891
  16 H :    0.047889
  17 H :    0.052594
  18 H :    0.053051
  19 H :    0.056908
  20 H :    0.040424
  21 H :    0.030630
  22 H :    0.046679
  23 H :    0.054922
  24 H :    0.053594
  25 H :    0.059961
  26 H :    0.060008
  27 H :    0.049402
  28 H :    0.049091
  29 H :    0.055956

-------------------------------
LOEWDIN REDUCED ORBITAL CHARGES
-------------------------------
  0 C s       :     0.783356  s :     0.783356
      pz      :     0.996757  p :     3.089688
      px      :     1.034798
      py      :     1.058133
      dz2     :     0.040616  d :     0.245664
      dxz     :     0.039082
      dyz     :     0.082535
      dx2y2   :     0.055797
      dxy     :     0.027635

  1 C s       :     0.763248  s :     0.763248
      pz      :     0.998830  p :     3.009833
      px      :     0.959218
      py      :     1.051784
      dz2     :     0.044873  d :     0.322346
      dxz     :     0.069526
      dyz     :     0.089094
      dx2y2   :     0.063528
      dxy     :     0.055325

  2 C s       :     0.785082  s :     0.785082
      pz      :     0.900719  p :     2.896195
      px      :     0.975825
      py      :     1.019651
      dz2     :     0.027721  d :     0.365948
      dxz     :     0.051958
      dyz     :     0.056128
      dx2y2   :     0.118727
      dxy     :     0.111415

  3 C s       :     0.796418  s :     0.796418
      pz      :     0.830585  p :     2.877172
      px      :     1.017315
      py      :     1.029272
      dz2     :     0.022608  d :     0.316407
      dxz     :     0.061013
      dyz     :     0.029890
      dx2y2   :     0.100477
      dxy     :     0.102419

  4 C s       :     0.763692  s :     0.763692
      pz      :     0.895370  p :     2.875587
      px      :     0.996179
      py      :     0.984038
      dz2     :     0.029393  d :     0.394331
      dxz     :     0.057818
      dyz     :     0.069220
      dx2y2   :     0.111892
      dxy     :     0.126007

  5 C s       :     0.766143  s :     0.766143
      pz      :     0.932359  p :     2.912792
      px      :     1.009890
      py      :     0.970543
      dz2     :     0.032043  d :     0.394026
      dxz     :     0.061319
      dyz     :     0.060745
      dx2y2   :     0.116850
      dxy     :     0.123068

  6 C s       :     0.790502  s :     0.790502
      pz      :     0.872841  p :     2.919239
      px      :     1.020315
      py      :     1.026083
      dz2     :     0.029790  d :     0.325816
      dxz     :     0.037470
      dyz     :     0.054038
      dx2y2   :     0.082225
      dxy     :     0.122293

  7 C s       :     0.782386  s :     0.782386
      pz      :     0.955200  p :     2.980458
      px      :     1.011536
      py      :     1.013722
      dz2     :     0.021636  d :     0.312973
      dxz     :     0.034603
      dyz     :     0.055213
      dx2y2   :     0.087043
      dxy     :     0.114478

  8 C s       :     0.764587  s :     0.764587
      pz      :     0.904624  p :     2.881022
      px      :     0.995067
      py      :     0.981331
      dz2     :     0.032287  d :     0.390425
      dxz     :     0.069959
      dyz     :     0.050626
      dx2y2   :     0.114152
      dxy     :     0.123401

  9 C s       :     0.796656  s :     0.796656
      pz      :     0.805071  p :     2.814834
      px      :     0.999047
      py      :     1.010716
      dz2     :     0.028051  d :     0.386860
      dxz     :     0.063591
      dyz     :     0.063264
      dx2y2   :     0.111886
      dxy     :     0.120068

 10 C s       :     0.796023  s :     0.796023
      pz      :     0.925828  p :     2.964180
      px      :     1.008896
      py      :     1.029457
      dz2     :     0.024018  d :     0.299584
      dxz     :     0.055674
      dyz     :     0.015267
      dx2y2   :     0.124947
      dxy     :     0.079679

 11 C s       :     0.801021  s :     0.801021
      pz      :     0.853911  p :     2.902721
      px      :     1.026143
      py      :     1.022667
      dz2     :     0.028686  d :     0.313449
      dxz     :     0.032724
      dyz     :     0.051034
      dx2y2   :     0.078883
      dxy     :     0.122121

 12 C s       :     0.776061  s :     0.776061
      pz      :     1.063405  p :     3.095067
      px      :     1.013559
      py      :     1.018103
      dz2     :     0.044249  d :     0.230865
      dxz     :     0.063887
      dyz     :     0.017406
      dx2y2   :     0.059520
      dxy     :     0.045802

 13 C s       :     0.775553  s :     0.775553
      pz      :     1.060877  p :     3.105314
      px      :     1.057047
      py      :     0.987391
      dz2     :     0.049551  d :     0.242376
      dxz     :     0.046919
      dyz     :     0.040199
      dx2y2   :     0.037383
      dxy     :     0.068324

 14 H s       :     0.807528  s :     0.807528
      pz      :     0.050534  p :     0.144573
      px      :     0.038506
      py      :     0.055534

 15 H s       :     0.807364  s :     0.807364
      pz      :     0.040282  p :     0.145746
      px      :     0.064088
      py      :     0.041376

 16 H s       :     0.807529  s :     0.807529
      pz      :     0.045601  p :     0.144582
      px      :     0.043081
      py      :     0.055899

 17 H s       :     0.803112  s :     0.803112
      pz      :     0.046054  p :     0.144293
      px      :     0.042280
      py      :     0.055959

 18 H s       :     0.802736  s :     0.802736
      pz      :     0.050989  p :     0.144213
      px      :     0.035581
      py      :     0.057643

 19 H s       :     0.795458  s :     0.795458
      pz      :     0.040170  p :     0.147635
      px      :     0.039865
      py      :     0.067601

 20 H s       :     0.812505  s :     0.812505
      pz      :     0.042450  p :     0.147071
      px      :     0.056767
      py      :     0.047854

 21 H s       :     0.812192  s :     0.812192
      pz      :     0.053353  p :     0.157178
      px      :     0.056924
      py      :     0.046902

 22 H s       :     0.799043  s :     0.799043
      pz      :     0.048563  p :     0.154278
      px      :     0.034094
      py      :     0.071620

 23 H s       :     0.796625  s :     0.796625
      pz      :     0.041082  p :     0.148454
      px      :     0.059406
      py      :     0.047965

 24 H s       :     0.802663  s :     0.802663
      pz      :     0.041169  p :     0.143744
      px      :     0.040804
      py      :     0.061771

 25 H s       :     0.793242  s :     0.793242
      pz      :     0.052559  p :     0.146797
      px      :     0.055352
      py      :     0.038885

 26 H s       :     0.793106  s :     0.793106
      pz      :     0.061344  p :     0.146886
      px      :     0.045216
      py      :     0.040327

 27 H s       :     0.802758  s :     0.802758
      pz      :     0.063145  p :     0.147840
      px      :     0.044229
      py      :     0.040467

 28 H s       :     0.803131  s :     0.803131
      pz      :     0.051276  p :     0.147778
      px      :     0.053771
      py      :     0.042731

 29 H s       :     0.801687  s :     0.801687
      pz      :     0.040157  p :     0.142357
      px      :     0.055387
      py      :     0.046813



                      *****************************
                      * MAYER POPULATION ANALYSIS *
                      *****************************

  NA   - Mulliken gross atomic population
  ZA   - Total nuclear charge
  QA   - Mulliken gross atomic charge
  VA   - Mayer's total valence
  BVA  - Mayer's bonded valence
  FA   - Mayer's free valence

  ATOM       NA         ZA         QA         VA         BVA        FA
  0 C      4.0830     4.0000    -0.0830     3.9592     3.9592     0.0000
  1 C      4.0785     4.0000    -0.0785     3.9865     3.9865     0.0000
  2 C      4.0538     4.0000    -0.0538     4.0723     4.0723    -0.0000
  3 C      3.9642     4.0000     0.0358     4.0742     4.0742    -0.0000
  4 C      4.0622     4.0000    -0.0622     4.2502     4.2502     0.0000
  5 C      4.0496     4.0000    -0.0496     4.0891     4.0891    -0.0000
  6 C      3.9765     4.0000     0.0235     4.0446     4.0446    -0.0000
  7 C      4.0204     4.0000    -0.0204     4.0133     4.0133    -0.0000
  8 C      4.0726     4.0000    -0.0726     4.2898     4.2898     0.0000
  9 C      4.0780     4.0000    -0.0780     4.1763     4.1763     0.0000
 10 C      3.9761     4.0000     0.0239     4.0208     4.0208     0.0000
 11 C      3.9672     4.0000     0.0328     4.0782     4.0782    -0.0000
 12 C      4.0995     4.0000    -0.0995     3.9760     3.9760     0.0000
 13 C      4.1138     4.0000    -0.1138     3.9937     3.9937     0.0000
 14 H      0.9565     1.0000     0.0435     1.0242     1.0242     0.0000
 15 H      0.9615     1.0000     0.0385     1.0263     1.0263    -0.0000
 16 H      0.9566     1.0000     0.0434     1.0236     1.0236     0.0000
 17 H      0.9546     1.0000     0.0454     1.0193     1.0193     0.0000
 18 H      0.9527     1.0000     0.0473     1.0155     1.0155    -0.0000
[...]
 39:   1005.68   0.001263    6.38  0.000392  (-0.013097 -0.014841 -0.000138)
 40:   1007.44   0.000291    1.47  0.000090  (-0.001965 -0.003667 -0.008526)
 41:   1046.62   0.001123    5.68  0.000335  ( 0.016912  0.005591  0.004198)
 42:   1058.07   0.000809    4.09  0.000239  (-0.014422  0.005216 -0.001875)
 43:   1080.68   0.000720    3.64  0.000208  (-0.002878 -0.001922  0.013997)
 44:   1083.24   0.000163    0.82  0.000047  ( 0.001592  0.001031 -0.006585)
 45:   1104.30   0.001012    5.12  0.000286  (-0.000127 -0.016797 -0.001983)
 46:   1120.04   0.001490    7.53  0.000415  (-0.019728 -0.001379 -0.004895)
 47:   1143.74   0.002150   10.86  0.000587  (-0.017493  0.016572 -0.002419)
 48:   1174.48   0.000782    3.95  0.000208  ( 0.008873 -0.011289  0.001302)
 49:   1254.31   0.000959    4.85  0.000239  ( 0.013346 -0.007676  0.001230)
 50:   1260.43   0.001788    9.04  0.000443  ( 0.003421  0.020550  0.002954)
 51:   1283.15   0.000506    2.56  0.000123  ( 0.002636  0.010634  0.001755)
 52:   1312.04   0.000250    1.26  0.000059  (-0.000700  0.007639  0.000722)
 53:   1350.13   0.001046    5.28  0.000242  (-0.007378 -0.013452 -0.002512)
 54:   1395.20   0.000814    4.11  0.000182  (-0.012669 -0.001690 -0.004331)
 55:   1396.34   0.000451    2.28  0.000101  (-0.006900  0.007010 -0.002003)
 56:   1436.22   0.000426    2.15  0.000093  (-0.004594  0.008454 -0.000114)
 57:   1439.06   0.004826   24.39  0.001047  (-0.030142  0.011618  0.001752)
 58:   1444.71   0.001228    6.20  0.000265  (-0.008698  0.002670 -0.013505)
 59:   1447.46   0.001321    6.68  0.000285  (-0.004348 -0.016007  0.003107)
 60:   1471.62   0.000643    3.25  0.000136  (-0.010802 -0.003703 -0.002426)
 61:   1498.71   0.004172   21.08  0.000869  ( 0.003381 -0.029173 -0.002479)
 62:   1512.55   0.002232   11.28  0.000460  (-0.004086 -0.002834  0.020875)
 63:   1516.46   0.001988   10.05  0.000409  ( 0.005907  0.000322 -0.019341)
 64:   1517.94   0.006564   33.17  0.001349  (-0.024861  0.026070 -0.007193)
 65:   1524.88   0.002345   11.85  0.000480  (-0.001889  0.021351  0.004533)
 66:   1527.24   0.011274   56.98  0.002304  (-0.041074  0.024740 -0.002153)
 67:   1535.02   0.003825   19.33  0.000778  ( 0.009607 -0.026130  0.001609)
 68:   1538.36   0.004580   23.14  0.000929  (-0.026941  0.008886 -0.011144)
 69:   1539.37   0.002174   10.99  0.000441  (-0.014236  0.011350  0.010453)
 70:   1632.86   0.009589   48.46  0.001833  (-0.018319 -0.037726 -0.008587)
 71:   1647.91   0.001549    7.83  0.000293  (-0.011383  0.012778 -0.000751)
 72:   1692.66   0.010853   54.85  0.002001  (-0.033465  0.029571 -0.002569)
 73:   1736.25   0.005206   26.31  0.000936  ( 0.026494 -0.014485  0.004890)
 74:   3095.72   0.009942   50.24  0.001002  (-0.001974 -0.031273 -0.004501)
 75:   3102.00   0.006520   32.95  0.000656  ( 0.017644  0.009101 -0.016181)
 76:   3109.05   0.007157   36.17  0.000718  (-0.018219 -0.002390 -0.019512)
 77:   3110.95   0.004270   21.58  0.000428  (-0.012658 -0.015994 -0.003505)
 78:   3161.36   0.000726    3.67  0.000072  ( 0.003857 -0.007500  0.000712)
 79:   3172.49   0.002272   11.48  0.000223  ( 0.003376  0.001640 -0.014470)
 80:   3195.80   0.004484   22.66  0.000438  (-0.018925  0.007900 -0.004159)
 81:   3196.43   0.000807    4.08  0.000079  ( 0.001839  0.001167 -0.008607)
 82:   3198.23   0.003229   16.32  0.000315  (-0.010028 -0.011551 -0.009004)
 83:   3198.81   0.001529    7.73  0.000149  ( 0.010005 -0.006894  0.001249)
 84:   3208.77   0.001826    9.23  0.000178  (-0.000309 -0.013140 -0.002201)
 85:   3210.05   0.003270   16.53  0.000318  ( 0.017189  0.001427  0.004522)
 86:   3218.52   0.000752    3.80  0.000073  ( 0.001646  0.008217  0.001650)
 87:   3236.13   0.004131   20.87  0.000398  (-0.005021  0.019309  0.000518)
 88:   3269.44   0.002935   14.83  0.000280  (-0.011074  0.012535 -0.000597)
 89:   3310.82   0.000802    4.05  0.000076  ( 0.007398  0.004081  0.002047)

* The epsilon (eps) is given for a Dirac delta lineshape.
** The dipole moment derivative (T) already includes vibrational overlap.

The first frequency considered to be a vibration is 6
The total number of vibrations considered is 84


--------------------------
THERMOCHEMISTRY AT 298.15K
--------------------------

Temperature         ...   298.15 K
Pressure            ...     1.00 atm
Total Mass          ...   184.28 AMU
Quasi RRHO          ...     True
Cut-Off Frequency   ...     1.00 cm^-1

Throughout the following assumptions are being made:
  (1) The electronic state is orbitally nondegenerate
  (2) There are no thermally accessible electronically excited states
  (3) Hindered rotations indicated by low frequency modes are not
      treated as such but are treated as vibrations and this may
      cause some error
  (4) All equations used are the standard statistical mechanics
      equations for an ideal gas
  (5) All vibrations are strictly harmonic

freq.      47.03  E(vib)   ...       0.53 
freq.      70.01  E(vib)   ...       0.50 
freq.     109.58  E(vib)   ...       0.45 
freq.     132.98  E(vib)   ...       0.42 
freq.     147.31  E(vib)   ...       0.41 
freq.     170.01  E(vib)   ...       0.38 
freq.     197.55  E(vib)   ...       0.35 
freq.     220.19  E(vib)   ...       0.33 
freq.     234.85  E(vib)   ...       0.32 
freq.     273.59  E(vib)   ...       0.29 
freq.     323.10  E(vib)   ...       0.25 
freq.     343.63  E(vib)   ...       0.23 
freq.     369.11  E(vib)   ...       0.21 
freq.     381.45  E(vib)   ...       0.21 
freq.     399.62  E(vib)   ...       0.19 
freq.     429.73  E(vib)   ...       0.18 
freq.     528.81  E(vib)   ...       0.13 
freq.     552.94  E(vib)   ...       0.12 
freq.     564.51  E(vib)   ...       0.11 
freq.     630.37  E(vib)   ...       0.09 
freq.     667.90  E(vib)   ...       0.08 
freq.     689.20  E(vib)   ...       0.07 
freq.     749.67  E(vib)   ...       0.06 
freq.     753.35  E(vib)   ...       0.06 
freq.     756.39  E(vib)   ...       0.06 
freq.     808.36  E(vib)   ...       0.05 
freq.     819.42  E(vib)   ...       0.05 
freq.     862.15  E(vib)   ...       0.04 
freq.     896.94  E(vib)   ...       0.03 
freq.     925.71  E(vib)   ...       0.03 
freq.     945.24  E(vib)   ...       0.03 
freq.     976.31  E(vib)   ...       0.03 
freq.     998.45  E(vib)   ...       0.02 
freq.    1005.68  E(vib)   ...       0.02 
freq.    1007.44  E(vib)   ...       0.02 
freq.    1046.62  E(vib)   ...       0.02 
freq.    1058.07  E(vib)   ...       0.02 
freq.    1080.68  E(vib)   ...       0.02 
freq.    1083.24  E(vib)   ...       0.02 
freq.    1104.30  E(vib)   ...       0.02 
freq.    1120.04  E(vib)   ...       0.01 
freq.    1143.74  E(vib)   ...       0.01 
freq.    1174.48  E(vib)   ...       0.01 
freq.    1254.31  E(vib)   ...       0.01 
freq.    1260.43  E(vib)   ...       0.01 
freq.    1283.15  E(vib)   ...       0.01 
freq.    1312.04  E(vib)   ...       0.01 
freq.    1350.13  E(vib)   ...       0.01 
freq.    1395.20  E(vib)   ...       0.00 
freq.    1396.34  E(vib)   ...       0.00 
freq.    1436.22  E(vib)   ...       0.00 
freq.    1439.06  E(vib)   ...       0.00 
freq.    1444.71  E(vib)   ...       0.00 
freq.    1447.46  E(vib)   ...       0.00 
freq.    1471.62  E(vib)   ...       0.00 
freq.    1498.71  E(vib)   ...       0.00 
freq.    1512.55  E(vib)   ...       0.00 
freq.    1516.46  E(vib)   ...       0.00 
freq.    1517.94  E(vib)   ...       0.00 
freq.    1524.88  E(vib)   ...       0.00 
freq.    1527.24  E(vib)   ...       0.00 
freq.    1535.02  E(vib)   ...       0.00 
freq.    1538.36  E(vib)   ...       0.00 
freq.    1539.37  E(vib)   ...       0.00 
freq.    1632.86  E(vib)   ...       0.00 
freq.    1647.91  E(vib)   ...       0.00 
freq.    1692.66  E(vib)   ...       0.00 
freq.    1736.25  E(vib)   ...       0.00 
freq.    3095.72  E(vib)   ...       0.00 
freq.    3102.00  E(vib)   ...       0.00 
freq.    3109.05  E(vib)   ...       0.00 
freq.    3110.95  E(vib)   ...       0.00 
freq.    3161.36  E(vib)   ...       0.00 
freq.    3172.49  E(vib)   ...       0.00 
freq.    3195.80  E(vib)   ...       0.00 
freq.    3196.43  E(vib)   ...       0.00 
freq.    3198.23  E(vib)   ...       0.00 
freq.    3198.81  E(vib)   ...       0.00 
freq.    3208.77  E(vib)   ...       0.00 
freq.    3210.05  E(vib)   ...       0.00 
freq.    3218.52  E(vib)   ...       0.00 
freq.    3236.13  E(vib)   ...       0.00 
freq.    3269.44  E(vib)   ...       0.00 
freq.    3310.82  E(vib)   ...       0.00 

------------
INNER ENERGY
------------

The inner energy is: U= E(el) + E(ZPE) + E(vib) + E(rot) + E(trans)
    E(el)   - is the total energy from the electronic structure calculation
              = E(kin-el) + E(nuc-el) + E(el-el) + E(nuc-nuc)
    E(ZPE)  - the the zero temperature vibrational energy from the frequency calculation
    E(vib)  - the the finite temperature correction to E(ZPE) due to population
              of excited vibrational states
    E(rot)  - is the rotational thermal energy
    E(trans)- is the translational thermal energy

Summary of contributions to the inner energy U:
Electronic energy                ...    -89.34902169 Eh
Zero point energy                ...      0.26359586 Eh     165.41 kcal/mol
Thermal vibrational correction   ...      0.01046190 Eh       6.56 kcal/mol
Thermal rotational correction    ...      0.00141627 Eh       0.89 kcal/mol
Thermal translational correction ...      0.00141627 Eh       0.89 kcal/mol
-----------------------------------------------------------------------
Total thermal energy                    -89.07213139 Eh


Summary of corrections to the electronic energy:
(perhaps to be used in another calculation)
Total thermal correction                  0.01329445 Eh       8.34 kcal/mol
Non-thermal (ZPE) correction              0.26359586 Eh     165.41 kcal/mol
-----------------------------------------------------------------------
Total correction                          0.27689031 Eh     173.75 kcal/mol


--------
ENTHALPY
--------

The enthalpy is H = U + kB*T
                kB is Boltzmann's constant
Total thermal energy              ...    -89.07213139 Eh 
Thermal Enthalpy correction       ...      0.00094421 Eh       0.59 kcal/mol
-----------------------------------------------------------------------
Total Enthalpy                    ...    -89.07118718 Eh


Note: Only C1 symmetry has been detected, increase convergence thresholds 
      if your molecule has a higher symmetry. Symmetry factor of 1.0 is   
      used for the rotational entropy correction. 
 

Note: Rotational entropy computed according to Herzberg 
Infrared and Raman Spectra, Chapter V,1, Van Nostrand Reinhold, 1945 
Point Group:  C1, Symmetry Number:   1  
Rotational constants in cm-1:     0.029442     0.020458     0.012547 

Vibrational entropy computed according to the QRRHO of S. Grimme
Chem.Eur.J. 2012 18 9955 using a reference frequency of 100.0 cm-1


-------
ENTROPY
-------

The entropy contributions are T*S = T*(S(el)+S(vib)+S(rot)+S(trans))
     S(el)   - electronic entropy
     S(vib)  - vibrational entropy
     S(rot)  - rotational entropy
     S(trans)- translational entropy
The entropies will be listed as multiplied by the temperature to get
units of energy

Electronic entropy                ...      0.00000000 Eh      0.00 kcal/mol
Vibrational entropy               ...      0.01790278 Eh     11.23 kcal/mol
Rotational entropy                ...      0.01507814 Eh      9.46 kcal/mol
Translational entropy             ...      0.01973700 Eh     12.39 kcal/mol
-----------------------------------------------------------------------
Final entropy term                ...      0.05271793 Eh     33.08 kcal/mol

In case the symmetry of your molecule has not been determined correctly
or in case you have a reason to use a different symmetry number we print 
out the resulting rotational entropy values for sn=1,12:

 non-linear molecules -----------------------------------
|  sn= 1 | S(rot)=       0.01507814 Eh      9.46 kcal/mol|
|  sn= 2 | S(rot)=       0.01442369 Eh      9.05 kcal/mol|
|  sn= 3 | S(rot)=       0.01404086 Eh      8.81 kcal/mol|
|  sn= 4 | S(rot)=       0.01376923 Eh      8.64 kcal/mol|
|  sn= 5 | S(rot)=       0.01355854 Eh      8.51 kcal/mol|
|  sn= 6 | S(rot)=       0.01338640 Eh      8.40 kcal/mol|
|  sn= 7 | S(rot)=       0.01324085 Eh      8.31 kcal/mol|
|  sn= 8 | S(rot)=       0.01311478 Eh      8.23 kcal/mol|
|  sn= 9 | S(rot)=       0.01300357 Eh      8.16 kcal/mol|
|  sn=10 | S(rot)=       0.01290409 Eh      8.10 kcal/mol|
|  sn=11 | S(rot)=       0.01281410 Eh      8.04 kcal/mol|
|  sn=12 | S(rot)=       0.01273194 Eh      7.99 kcal/mol|
 linear molecules ---------------------------------------
|  Dinfh | S(rot)=       0.00945966 Eh      5.94 kcal/mol|
|  Cinfv | S(rot)=       0.01011412 Eh      6.35 kcal/mol|
 --------------------------------------------------------


-------------------
GIBBS FREE ENERGY
-------------------

The Gibbs free energy is G = H - T*S

Total enthalpy                    ...    -89.07118718 Eh 
Total entropy correction          ...     -0.05271793 Eh    -33.08 kcal/mol
-----------------------------------------------------------------------
Final Gibbs free energy         ...    -89.12390510 Eh

For completeness - the Gibbs free energy minus the electronic energy
G-E(el)                           ...      0.22511659 Eh    141.26 kcal/mol


Maximum memory used throughout the entire PROP-calculation: 161.9 MB

--------------------------------
SUGGESTED CITATIONS FOR THIS RUN
--------------------------------

Below you find a list of papers that are relevant to this ORCA run
We neither can nor want to force you to cite these papers, but we appreciate if you do
You receive ORCA, which is the product of decades of hard work by many enthusiastic individuals, for free
The only thing we kindly ask in return is that you cite our papers,
We deeply appreciate it, if you show your appreciation for ORCA by not just citing the generic ORCA reference.

Please note that relegating all ORCA citations to the supporting information does *not* help us.
SI sections are not indexed - citations you put there will not count into any citation statistics
But we need these citations in order to attract the funding resources that allow us to do what we are doing

Therefore, if you are a happy ORCA user, please consider citing a few of the papers listed below in the main body of your paper

In addition to the list printed below, the program has created the file ./output/chamazulene/chamazulene.bibtex that contains the list in bibtex format
You can import this file easily into all common literature databanks and citation aid programs


List of essential papers. We consider these as the minimum necessary citations

  1. Neese,F.
     Software update: the ORCA program system, version 5.0
     WIRES Comput. Molec. Sci., 2022 12(1)e1606
     doi.org/10.1002/wcms.1606
  2. Mueller,M.; Hansen,A.; Grimme,S.
     wB97X-3c: A composite range-separated hybrid DFT method with a molecule-optimized polarized valence double-zeta basis set
     J. Chem. Phys., 2023 158 014103
     doi.org/10.1063/5.0133026

List of papers to cite with high priority. The work reported in these papers was absolutely
necessary for this run to complete.
Our perspective: the developers of density functionals and basis sets usually get cited in chemistry papers
Good! But without the algorithms to do something with them, the functionals or basis sets would not do anything.
Hence, in our opinion, the algorithm design and method developments papers are equally worthy of getting cited

  1. Neese,F.
     An improvement of the resolution of the identity approximation for the formation of the Coulomb matrix
     J. Comp. Chem., 2003 24(14)1740-1747
     doi.org/10.1002/jcc.10318
  2. Neese,F.; Wennmohs,F.; Hansen,A.; Becker,U.
     Efficient, approximate and parallel Hartree-Fock and hybrid DFT calculations. A 'chain-of-spheres' algorithm for the Hartree-Fock exchange
     Chem. Phys., 2009 356(1-3)98-109
     doi.org/10.1016/j.chemphys.2008.10.036
  3. Bykov,D.; Petrenko,T.; Izsak,R.; Kossmann,S.; Becker,U.; Valeev,E.; Neese,F.
     Efficient implementation of the analytic second derivatives of Hartree-Fock and hybrid DFT energies: a detailed analysis of different approximations
     Molec. Phys., 2015 113 1961-1977
     doi.org/10.1080/00268976.2015.1025114
  4. Helmich-Paris,B.; de Souza,B.; Neese,F.; Izsák,R.
     An improved chain of spheres for exchange algorithm
     J. Chem. Phys., 2021 155 104109
     doi.org/doi: 10.1063/5.0058766.
  5. Neese,F.
     The SHARK Integral Generation and Digestion System
     J. Comp. Chem., 2022  1-16
     doi.org/10.1002/jcc.26942
  6. Caldeweyher,E.; Bannwarth,C.; Grimme,S.
     Extension of the D3 dispersion coefficient model
     J. Chem. Phys., 2017 147 034112
     doi.org/10.1063/1.4993215
  7. Caldeweyher,E.; Ehlert,S.; Hansen,A.; Neugebauer,H.; Spicher,S.; Bannwarth,C.; Grimme,S.
     A generally applicable atomic-charge dependent London dispersion correction
     J. Chem. Phys., 2019 150 154122
     doi.org/10.1063/1.5090222
  8. Caldeweyher,E.; Mewes,J.; Ehlert,S.; Grimme,S.
     Extension and evaluation of the D4 London-dispersion model for periodic systems
     Phys. Chem. Chem. Phys., 2020 22(16)8499-8512
     doi.org/10.1039/D0CP00502A
  9. Wittmann,L.; Gordiy,I.; Friede,M.; Helmich-Paris,B.; Grimme,S.; Hansen,A.; Bursch,M.
     Extension of the D3 and D4 London Dispersion Corrections to the full Actinides Series
     Phys. Chem. Chem. Phys., 2024 26(32)21379-21394
     doi.org/https://doi.org/10.1039/D4CP01514B 

List of suggested additional citations. These are papers that are important in the 'surrounding' of 
of this run, or papers that preceded the highly important papers. If you like your results we are grateful for a citation.

  1. Izsak,R.; Neese,F.
     An overlap fitted chain of spheres exchange method
     J. Chem. Phys., 2011 135 144105
     doi.org/10.1063/1.3646921
  2. Izsak,R.; Hansen,A.; Neese,F.
     The resolution of identity and chain of spheres approximations for the LPNO-CCSD singles Fock term
     Molec. Phys., 2012 110 2413-2417
     doi.org/10.1080/00268976.2012.687466
  3. Neese,F.
     The ORCA program system
     WIRES Comput. Molec. Sci., 2012 2(1)73-78
     doi.org/10.1002/wcms.81
  4. Izsak,R.; Neese,F.; Klopper,W.
     Robust fitting techniques in the chain of spheres approximation to the Fock exchange: The role of the complementary space
     J. Chem. Phys., 2013 139 
     doi.org/10.1063/1.4819264
  5. Neese,F.
     Software update: the ORCA program system, version 4.0
     WIRES Comput. Molec. Sci., 2018 8(1)1-6
     doi.org/10.1002/wcms.1327
  6. Neese,F.; Wennmohs,F.; Becker,U.; Riplinger,C.
     The ORCA quantum chemistry program package
     J. Chem. Phys., 2020 152 Art. No. L224108
     doi.org/10.1063/5.0004608

List of optional additional citations

  1. Neese,F.
     Approximate second-order SCF convergence for spin unrestricted wavefunctions
     Chem. Phys. Lett., 2000 325(1-3)93-98
     doi.org/10.1016/s0009-2614(00)00662-x

Timings for individual modules:

Sum of individual times          ...     1253.291 sec (=  20.888 min)
Startup calculation              ...       57.299 sec (=   0.955 min)   4.6 %
SCF iterations                   ...      762.081 sec (=  12.701 min)  60.8 %
Property integrals               ...       76.169 sec (=   1.269 min)   6.1 %
SCF Response                     ...       67.895 sec (=   1.132 min)   5.4 %
Property calculations            ...      138.381 sec (=   2.306 min)  11.0 %
SCF Gradient evaluation          ...      151.231 sec (=   2.521 min)  12.1 %
Geometry relaxation              ...        0.234 sec (=   0.004 min)   0.0 %
                             ****ORCA TERMINATED NORMALLY****
TOTAL RUN TIME: 0 days 0 hours 20 minutes 59 seconds 766 msec
