
                                 *****************
                                 * O   R   C   A *
                                 *****************

                                            #,                                       
                                            ###                                      
                                            ####                                     
                                            #####                                    
                                            ######                                   
                                           ########,                                 
                                     ,,################,,,,,                         
                               ,,#################################,,                 
                          ,,##########################################,,             
                       ,#########################################, ''#####,          
                    ,#############################################,,   '####,        
                  ,##################################################,,,,####,       
                ,###########''''           ''''###############################       
              ,#####''   ,,,,##########,,,,          '''####'''          '####       
            ,##' ,,,,###########################,,,                        '##       
           ' ,,###''''                  '''############,,,                           
         ,,##''                                '''############,,,,        ,,,,,,###''
      ,#''                                            '''#######################'''  
     '                                                          ''''####''''         
             ,#######,   #######,   ,#######,      ##                                
            ,#'     '#,  ##    ##  ,#'     '#,    #''#        ,####,   ,####,        
            ##       ##  ##   ,#'  ##            #'  '#       #'       #'  '#        
            ##       ##  #######   ##           ,######,      #####,   #    #        
            '#,     ,#'  ##    ##  '#,     ,#' ,#      #,     #,   #   #,  ,#        
             '#######'   ##     ##  '#######'  #'      '#     '####' # '####'        



                #########################################################
                #                        -***-                          #
                #          Department of theory and spectroscopy        #
                #                                                       #
                #                      Frank Neese                      #
                #                                                       #
                #     Directorship, Architecture, Infrastructure        #
                #                    SHARK, DRIVERS                     #
                #        Core code/Algorithms in most modules           #
                #                                                       #
                #        Max Planck Institute fuer Kohlenforschung      #
                #                Kaiser Wilhelm Platz 1                 #
                #                 D-45470 Muelheim/Ruhr                 #
                #                      Germany                          #
                #                                                       #
                #                  All rights reserved                  #
                #                        -***-                          #
                #########################################################


                         Program Version 6.0.1  -  RELEASE   -


 With contributions from (in alphabetic order):
[Max-Planck-Institut fuer Kohlenforschung]                               
  Daniel Aravena         : Magnetic Suceptibility                        
  Michael Atanasov       : Ab Initio Ligand Field Theory (pilot matlab implementation)
  Alexander A. Auer      : GIAO ZORA, VPT2 properties, NMR spectrum      
  Ute Becker             : All parallelization in ORCA, NUMFREQ, NUMCALC 
  Giovanni Bistoni       : ED, misc. LED, open-shell LED, HFLD           
  Martin Brehm           : Molecular dynamics                            
  Dmytro Bykov           : pre 5.0 version of the SCF Hessian            
  Marcos Casanova-Páez   : Triplet and SCS-CIS(D). UHF-(DLPNO)-IP/EA/STEOM-CCSD. UHF-CVS-IP/STEOM-CCSD   
  Vijay G. Chilkuri      : MRCI spin determinant printing, contributions to CSF-ICE 
  Pauline Colinet        : FMM embedding                                 
  Dipayan Datta          : RHF DLPNO-CCSD density                        
  Achintya Kumar Dutta   : EOM-CC, STEOM-CC                              
  Nicolas Foglia         : Exact transition moments, OPA infrastructure, MCD improvements    
  Dmitry Ganyushin       : Spin-Orbit,Spin-Spin,Magnetic field MRCI      
  Miquel Garcia-Rates    : C-PCM and meta-GGA Hessian, CCSD/C-PCM, Gaussian charge scheme 
  Tiago L. C. Gouveia    : GS-ROHF, GS-ROCIS                             
  Yang Guo               : DLPNO-NEVPT2, F12-NEVPT2, CIM, IAO-localization        
  Andreas Hansen         : Spin unrestricted coupled pair/coupled cluster methods 
  Ingolf Harden          : AUTO-CI MPn and infrastructure                
  Benjamin Helmich-Paris : MC-RPA, TRAH-(SCF,CASSCF), AVAS, COSX integrals, SCF dyn. polar. 
  Lee Huntington         : MR-EOM, pCC                                   
  Robert Izsak           : Overlap fitted RIJCOSX, COSX-SCS-MP3, EOM     
  Riya Kayal             : Wick's Theorem for AUTO-CI, AUTO-CI UHF-CCSDT 
  Emily Kempfer          : AUTO-CI, RHF CISDT and CCSDT                  
  Christian Kollmar      : KDIIS, OOCD, Brueckner-CCSD(T), CCSD density, CASPT2, CASPT2-K, improved NEVPT2 
  Axel Koslowski         : Symmetry handling                             
  Simone Kossmann        : meta-GGA functionals, TD-DFT gradient, OOMP2, (MP2 Hessian; deprecated post 5.0) 
  Lucas Lang             : DCDCAS                                        
  Marvin Lechner         : AUTO-CI (C++ implementation), FIC-MRCC        
  Spencer Leger          : CASSCF response                               
  Dagmar Lenk            : GEPOL surface, SMD, ORCA-2-JSON               
  Dimitrios Liakos       : Extrapolation schemes; Compound Job, initial MDCI parallelization 
  Dimitrios Manganas     : Further ROCIS development; embedding schemes. LFT, Crystal Embedding 
  Dimitrios Pantazis     : SARC Basis sets                               
  Anastasios Papadopoulos: AUTO-CI, single reference methods and gradients 
  Taras Petrenko         : pre 6.0 DFT Hessian and TD-DFT gradient, (ASA, deprecated), ECA, 1-Electron XAS/XES, NRVS 
  Peter Pinski           : DLPNO-MP2, DLPNO-MP2 Gradient                 
  Christoph Reimann      : Effective Core Potentials                     
  Marius Retegan         : Local ZFS, SOC                                
  Christoph Riplinger    : Optimizer, TS searches, QM/MM, DLPNO-CCSD(T), (RO)-DLPNO pert. Triples 
  Michael Roemelt        : Original ROCIS implementation                 
  Masaaki Saitow         : Open-shell DLPNO-CCSD energy and density      
  Barbara Sandhoefer     : DKH picture change effects                    
  Kantharuban Sivalingam : CASSCF convergence/infrastructure, NEVPT2 and variants, FIC-MRCI 
  Bernardo de Souza      : ESD, SOC TD-DFT                               
  Georgi L. Stoychev     : AutoAux, RI-MP2 NMR, DLPNO-MP2 response, X2C  
  Van Anh Tran           : RI-MP2 g-tensors                              
  Willem Van den Heuvel  : Paramagnetic NMR                              
  Zikuan Wang            : NOTCH, Electric field optimization            
  Frank Wennmohs         : Technical directorship and infrastructure     
  Hang Xu                : AUTO-CI-Response properties                   
                                                                         
[FACCTs GmbH]                                                            
  Markus Bursch, Miquel Garcia-Rates, Christoph Riplinger, Bernardo de Souza, Georgi L. Stoychev 
                                                                 
  APM, Basis sets (HGBS, AHGBS, def-TZVP (Ac-Lr), def2-XVPD (La-Lu)), CI-OPT, improved COSX, DLPNO-Multilevel,           
  DOCKER, DRACO, updates on ESD, GOAT, IRC, LR-CPCM, MBIS, meta-GGA TD-DFT gradient, ML-optimized integration grids, 
  MM, NACMEs, nearIR, NEB, NEB-TS, NL-DFT gradient (VV10), 2- and 3-layer-ONIOM, interface openCOSMO-RS, QMMM,   
  Crystal-QMMM, SF, symmetry and pop. for TD-DFT, r2SCAN hybrids, SOLVATOR                                   
                                                                         
[Other institutions]                                                     
  V. Asgeirsson          : NEB                                           
  Christoph Bannwarth    : sTDA-DFT, sTD-DFT, PBEh-3c, B97-3c, D3        
  Sebastian Ehlert       : rSCAN, r2SCAN, r2SCAN-3c, D4, dhf basis sets  
  Marvin Friede          : D4 for Fr, Ra, Ac-Lr                          
  Lars Goerigk           : TD-DFT with DH, B97 family of functionals     
  Stefan Grimme          : VdW corrections, initial TS optimization, DFT functionals, gCP, sTDA/sTD-DF 
  Waldemar Hujo          : DFT-NL                                        
  H. Jonsson             : NEB                                           
  Holger Kruse           : gCP                                           
  Marcel Mueller         : wB97X-3c, vDZP basis set                      
  Hagen Neugebauer       : wr2SCAN                                       
  Tobias Risthaus        : range-separated hybrid DFT                    
  Lukas Wittmann         : regularized MP2, r2SCAN double-hybrids, wr2SCAN        
                                                                         
We gratefully acknowledge several colleagues who have allowed us to      
interface, adapt or use parts of their codes:                            
  Ed Valeev, F. Pavosevic, A. Kumar             : LibInt (2-el integral package), F12 methods 
  Garnet Chan, S. Sharma, J. Yang, R. Olivares  : DMRG                   
  Ulf Ekstrom                                   : XCFun DFT Library      
  Mihaly Kallay                                 : mrcc  (arbitrary order and MRCC methods)
  Frank Weinhold                                : gennbo (NPA and NBO analysis)           
  Simon Mueller                                 : openCOSMO-RS                            
  Christopher J. Cramer and Donald G. Truhlar   : smd solvation model                     
  S Lehtola, MJT Oliveira, MAL Marques          : LibXC Library                           
  Liviu Ungur et al                             : ANISO software                          


 Your calculation uses the libint2 library for the computation of 2-el integrals
 For citations please refer to: http://libint.valeyev.net

 Your ORCA version has been built with support for libXC version: 6.2.2
 For citations please refer to: https://libxc.gitlab.io

 This ORCA versions uses:
   CBLAS   interface :  Fast vector & matrix operations
   LAPACKE interface :  Fast linear algebra routines
   SCALAPACK package :  Parallel linear algebra routines
   Shared memory     :  Shared parallel matrices
   BLAS/LAPACK       :  OpenBLAS 0.3.27  USE64BITINT DYNAMIC_ARCH NO_AFFINITY SkylakeX SINGLE_THREADED
        Core in use  :  SkylakeX
   Copyright (c) 2011-2014, The OpenBLAS Project


Your calculation utilizes the atom-pairwise dispersion correction
based on EEQ partial charges (D4)


================================================================================

cite the ECPs for C  [vDZP-ECP] as follows:
   B-Ne (ecp-2-mwb), Al-Ar (ecp-10-mwb), Ga-Kr (ecp-28-mwb), Y-Cd (ecp-28-mwb), In-Xe (ecp-46-mwb):
     A. Bergner, M. Dolg, W. Küchle, H. Stoll, and H. Preuß, Mol. Phys. 80, 1431 (1993)., T. Leininger, A. Berning, A. Nicklass, H. Stoll, H.-J. Werner, and H.-J.Flad, Chem. Phys. 217, 19 (1997).
   Na-Mg, K-Ca, Rb-Sr, Cs-Ba (CRENBL):
     L. Fernandez Pacios and P. A. Christiansen, J. Chem. Phys. 82, 2664 (1985)., M. M. Hurley, L. F. Pacios, P. A. Christiansen, R. B. Ross, and W. C. Ermler, J. Chem. Phys. 84, 6840 (1986)., L. A. LaJohn, P. A. Christiansen, R. B. Ross, T. Atashroo, and W. C. Ermler, J. Chem. Phys. 87, 2812 (1987)., R. B. Ross, J. M. Powers, T. Atashroo, W. C. Ermler, L. A. LaJohn, and P. A. Christiansen, J. Chem. Phys. 93, 6654 (1990). 
   Sc-Zn (ecp-10-mdf):
     M. Dolg, U. Wedig, H. Stoll, and H. Preuss, J. Chem. Phys. 86, 866 (1986). 
   Y-Cd (ecp-28-mwb), Hf-Hg (ecp-60-mwb):
     D. Andrae, U. Häußermann, M. Dolg, H. Stoll, and H. Preuß, Theor. Chim. Acta 77, 123 (1990). 
   La (ecp-46-mwb):
     M. Dolg, H. Stoll, and H. Preuss, J. Chem. Phys. 90, 1730 (1989)., M. Dolg, H. Stoll, and H. Preuss, Theor. Chim. Acta 85, 441 (1993).
   Ce-Lu (SBKJC-ecp):
     T. R. Cundari and W. J. Stevens, J. Chem. Phys. 98, 5555 (1993).
   Tl-Rn (ecp-78-mwb):
     W. Küchle, M. Dolg, H. Stoll, and H. Preuss, Mol. Phys. 74, 1245 (1991).

ECP parameters for C  [vDZP-ECP] have been obtained from:
MM, AH, SG, J. Chem. Phys. 158, 014103 (2023), 10.1063/5.0133026

----- Orbital basis set information -----
Your calculation utilizes the basis: vDZP
   Marcel Mueller, Andreas Hansen, Stefan Grimme 
   J. Chem. Phys. 158, 014103 (2023). DOI: 10.1063/5.0133026

----- AuxJ basis set information -----
Your calculation utilizes the auxiliary basis: def2/J
   F. Weigend, Phys. Chem. Chem. Phys. 8, 1057 (2006).

================================================================================
                                        WARNINGS
                       Please study these warnings very carefully!
================================================================================

WARNING: Frozen-Core approximation turned on, but there are no core electrons.
  ===> : Turning off frozen-core approximation


WARNING: Geometry Optimization
  ===> : Switching off AutoStart
         For restart on a previous wavefunction, please use MOREAD

================================================================================
                                       INPUT FILE
================================================================================
NAME = ./output/delta_elemene/delta_elemene.inp
|  1> ! wB97X-3c OPT FREQ TightSCF
|  2> %pal
|  3>   nprocs 40
|  4> end
|  5> * xyz 0 1
|  6> C      3.714100    -0.990425    -0.113561
|  7> C      2.882926     0.239143     0.273950
|  8> C      3.179573     0.669012     1.714220
|  9> C      1.390137    -0.002910     0.087434
| 10> C      0.654085     0.918633    -0.575900
| 11> C     -0.854033     0.848401    -0.710890
| 12> C     -1.393962    -0.618109    -0.568906
| 13> C     -0.765225    -1.263480     0.689045
| 14> C      0.768846    -1.288504     0.615219
| 15> C     -2.936375    -0.627623    -0.442709
| 16> C     -1.007749    -1.413109    -1.820742
| 17> C     -1.286492    -2.713423    -1.984825
| 18> C     -1.513012     1.864054     0.228311
| 19> C     -1.118987     2.020580     1.505227
| 20> C     -2.636681     2.731354    -0.281061
| 21> H      3.463587    -1.308877    -1.148103
| 22> H      3.526809    -1.836553     0.581472
| 23> H      4.796547    -0.742631    -0.079281
| 24> H      3.216904     1.067715    -0.390784
| 25> H      2.941286    -0.143968     2.432052
| 26> H      2.578025     1.566070     1.975346
| 27> H      4.254312     0.929757     1.819823
| 28> H      1.133056     1.821624    -0.945431
| 29> H     -1.077152     1.183707    -1.748280
| 30> H     -1.133075    -2.303786     0.822410
| 31> H     -1.078942    -0.714513     1.600643
| 32> H      1.163256    -1.509244     1.629106
| 33> H      1.078980    -2.123534    -0.048860
| 34> H     -3.268097    -0.111526     0.482837
| 35> H     -3.329825    -1.664431    -0.389415
| 36> H     -3.399649    -0.123359    -1.317911
| 37> H     -0.467330    -0.916180    -2.622271
| 38> H     -1.813835    -3.283143    -1.227739
| 39> H     -0.978826    -3.221288    -2.893059
| 40> H     -1.604577     2.747521     2.149650
| 41> H     -0.300283     1.446800     1.924598
| 42> H     -2.894897     2.490699    -1.333242
| 43> H     -3.544033     2.575484     0.340278
| 44> H     -2.339389     3.800060    -0.228652
| 45> *
| 46> 
| 47>                          ****END OF INPUT****
================================================================================

                       *****************************
                       * Geometry Optimization Run *
                       *****************************

Geometry optimization settings:
Update method            Update   .... BFGS
Choice of coordinates    CoordSys .... (2022) Redundant Internals
Initial Hessian          InHess   .... Almloef's Model
Max. no of cycles        MaxIter  .... 117

Convergence Tolerances:
Energy Change            TolE     ....  5.0000e-06 Eh
Max. Gradient            TolMAXG  ....  3.0000e-04 Eh/bohr
RMS Gradient             TolRMSG  ....  1.0000e-04 Eh/bohr
Max. Displacement        TolMAXD  ....  4.0000e-03 bohr
RMS Displacement         TolRMSD  ....  2.0000e-03 bohr
Strict Convergence                .... False

------------------------------------------------------------------------------
                        ORCA OPTIMIZATION COORDINATE SETUP
------------------------------------------------------------------------------

The optimization will be done in redundant internal coordinates (2022)
Making redundant internal coordinates   ...  (2022 redundants) done
Evaluating the initial hessian          ...  (Almloef) done
Evaluating the coordinates              ...  done
Calculating the B-matrix                .... done
Calculating the G-matrix                .... done
Diagonalizing the G-matrix              .... done
Small eigenvalue found = 1.072e-02
Small eigenvalue found = 1.653e-02
Small eigenvalue found = 1.941e-02
Small eigenvalue found = 2.294e-02
Small eigenvalue found = 2.528e-02
The first mode is                       ....   78
The number of degrees of freedom        ....  111

    -----------------------------------------------------------------
                    Redundant Internal Coordinates


    -----------------------------------------------------------------
         Definition                    Initial Value    Approx d2E/dq
    -----------------------------------------------------------------
      1. B(C   1,C   0)                  1.5339         0.368259   
      2. B(C   2,C   1)                  1.5320         0.370778   
      3. B(C   3,C   1)                  1.5237         0.382259   
      4. B(C   4,C   3)                  1.3532         0.715359   
      5. B(C   5,C   4)                  1.5158         0.393615   
      6. B(C   6,C   5)                  1.5692         0.323492   
      7. B(C   7,C   6)                  1.5473         0.350523   
      8. B(C   8,C   7)                  1.5361         0.365363   
      9. B(C   8,C   3)                  1.5223         0.384333   
     10. B(C   9,C   6)                  1.5476         0.350190   
     11. B(C  10,C   6)                  1.5324         0.370283   
     12. B(C  11,C  10)                  1.3399         0.750943   
     13. B(C  12,C   5)                  1.5323         0.370450   
     14. B(C  13,C  12)                  1.3455         0.735859   
     15. B(C  14,C  12)                  1.5081         0.404904   
     16. B(H  15,C   0)                  1.1111         0.333296   
     17. B(H  16,C   0)                  1.1109         0.333496   
     18. B(H  17,C   0)                  1.1110         0.333393   
     19. B(H  18,C   1)                  1.1135         0.330283   
     20. B(H  19,C   2)                  1.1104         0.334093   
     21. B(H  20,C   2)                  1.1112         0.333122   
     22. B(H  21,C   2)                  1.1109         0.333429   
     23. B(H  22,C   4)                  1.0869         0.364220   
     24. B(H  23,C   5)                  1.1128         0.331131   
     25. B(H  24,C   7)                  1.1115         0.332805   
     26. B(H  25,C   7)                  1.1094         0.335315   
     27. B(H  26,C   8)                  1.1101         0.334507   
     28. B(H  27,C   8)                  1.1111         0.333288   
     29. B(H  28,C   9)                  1.1104         0.334076   
     30. B(H  29,C   9)                  1.1102         0.334307   
     31. B(H  30,C   9)                  1.1113         0.333054   
     32. B(H  31,C  10)                  1.0869         0.364170   
     33. B(H  32,C  11)                  1.0844         0.367630   
     34. B(H  33,C  11)                  1.0851         0.366621   
     35. B(H  34,C  13)                  1.0861         0.365353   
     36. B(H  35,C  13)                  1.0841         0.367928   
     37. B(H  36,C  14)                  1.1098         0.334826   
     38. B(H  37,C  14)                  1.1107         0.333737   
     39. B(H  38,C  14)                  1.1105         0.333949   
     40. A(H  15,C   0,H  17)          108.2004         0.283907   
     41. A(C   1,C   0,H  17)          109.9604         0.319501   
     42. A(C   1,C   0,H  15)          110.0482         0.319486   
     43. A(H  16,C   0,H  17)          108.3514         0.283934   
     44. A(H  15,C   0,H  16)          109.0409         0.283921   
     45. A(C   1,C   0,H  16)          111.1697         0.319517   
     46. A(C   2,C   1,H  18)          107.1183         0.319368   
     47. A(C   0,C   1,C   3)          111.8761         0.363889   
     48. A(C   0,C   1,C   2)          110.9462         0.361998   
     49. A(C   2,C   1,C   3)          110.4470         0.364313   
     50. A(C   3,C   1,H  18)          109.8139         0.320963   
     51. A(C   0,C   1,H  18)          106.4472         0.319013   
     52. A(C   1,C   2,H  20)          110.0360         0.319815   
     53. A(H  19,C   2,H  20)          108.8426         0.283977   
     54. A(C   1,C   2,H  21)          110.0314         0.319863   
     55. A(C   1,C   2,H  19)          111.1464         0.319967   
     56. A(H  20,C   2,H  21)          108.1734         0.283889   
     57. A(H  19,C   2,H  21)          108.5413         0.284017   
     58. A(C   4,C   3,C   8)          121.5407         0.408859   
     59. A(C   1,C   3,C   4)          118.9943         0.408467   
     60. A(C   1,C   3,C   8)          119.4431         0.366560   
     61. A(C   3,C   4,H  22)          119.5219         0.362297   
     62. A(C   3,C   4,C   5)          123.5942         0.410591   
     63. A(C   5,C   4,H  22)          116.5299         0.327732   
     64. A(C   4,C   5,C   6)          112.1844         0.357717   
     65. A(C   6,C   5,H  23)          107.2748         0.312493   
     66. A(C  12,C   5,H  23)          106.5854         0.319455   
     67. A(C   4,C   5,H  23)          105.5776         0.322641   
     68. A(C   6,C   5,C  12)          114.5840         0.354053   
     69. A(C   4,C   5,C  12)          110.0348         0.366088   
     70. A(C   5,C   6,C   7)          108.8773         0.350756   
     71. A(C   7,C   6,C  10)          110.2025         0.358884   
     72. A(C   7,C   6,C   9)          109.6404         0.355497   
     73. A(C   5,C   6,C   9)          110.8581         0.350700   
     74. A(C   5,C   6,C  10)          108.9178         0.354026   
     75. A(C   9,C   6,C  10)          108.3373         0.358826   
     76. A(H  24,C   7,H  25)          105.7217         0.284096   
     77. A(C   8,C   7,H  25)          109.2668         0.319389   
     78. A(C   6,C   7,H  25)          110.2876         0.317237   
     79. A(C   8,C   7,H  24)          108.7267         0.318998   
     80. A(C   6,C   7,H  24)          110.6987         0.316849   
     81. A(C   6,C   7,C   8)          111.9336         0.358068   
     82. A(C   7,C   8,H  27)          108.6474         0.319073   
     83. A(H  26,C   8,H  27)          107.2945         0.284053   
     84. A(C   3,C   8,H  27)          108.2739         0.321724   
     85. A(C   7,C   8,H  26)          108.3117         0.319263   
     86. A(C   3,C   8,H  26)          109.8521         0.321917   
     87. A(C   3,C   8,C   7)          114.2371         0.363735   
     88. A(H  29,C   9,H  30)          108.2905         0.283996   
     89. A(H  28,C   9,H  30)          108.7240         0.283966   
     90. A(C   6,C   9,H  30)          110.3947         0.316839   
     91. A(H  28,C   9,H  29)          106.7479         0.284131   
     92. A(C   6,C   9,H  29)          111.2756         0.317033   
     93. A(C   6,C   9,H  28)          111.2751         0.316997   
     94. A(C  11,C  10,H  31)          117.1802         0.365308   
     95. A(C   6,C  10,H  31)          119.3753         0.324446   
     96. A(C   6,C  10,C  11)          123.4394         0.409678   
     97. A(H  32,C  11,H  33)          118.4480         0.292612   
     98. A(C  10,C  11,H  33)          119.8480         0.365728   
     99. A(C  10,C  11,H  32)          121.7037         0.365900   
    100. A(C  13,C  12,C  14)          118.1548         0.414732   
    101. A(C   5,C  12,C  14)          119.6440         0.367867   
    102. A(C   5,C  12,C  13)          122.2002         0.408241   
    103. A(H  34,C  13,H  35)          117.5397         0.292490   
    104. A(C  12,C  13,H  35)          121.7825         0.364682   
    105. A(C  12,C  13,H  34)          120.6678         0.364244   
    106. A(H  37,C  14,H  38)          109.1077         0.284039   
    107. A(H  36,C  14,H  38)          108.4035         0.284183   
    108. A(C  12,C  14,H  38)          109.7575         0.324593   
    109. A(H  36,C  14,H  37)          108.0511         0.284155   
    110. A(C  12,C  14,H  37)          109.8179         0.324559   
    111. A(C  12,C  14,H  36)          111.6463         0.324733   
    112. D(C   3,C   1,C   0,H  16)    -66.5669         0.010847   
    113. D(C   3,C   1,C   0,H  15)     54.3466         0.010847   
    114. D(C   2,C   1,C   0,H  16)     57.2665         0.010847   
    115. D(C   3,C   1,C   0,H  17)    173.4426         0.010847   
    116. D(C   2,C   1,C   0,H  15)    178.1800         0.010847   
    117. D(C   2,C   1,C   0,H  17)    -62.7240         0.010847   
    118. D(H  20,C   2,C   1,H  18)     63.6229         0.010987   
    119. D(H  19,C   2,C   1,C   0)    -59.9438         0.010987   
    120. D(H  20,C   2,C   1,C   0)    179.4154         0.010987   
    121. D(H  20,C   2,C   1,C   3)    -55.9384         0.010987   
    122. D(H  19,C   2,C   1,C   3)     64.7024         0.010987   
    123. D(H  19,C   2,C   1,H  18)   -175.7363         0.010987   
    124. D(C   4,C   3,C   1,H  18)    -13.3800         0.010896   
    125. D(C   4,C   3,C   1,C   2)    104.5397         0.010896   
    126. D(C   4,C   3,C   1,C   0)   -131.3470         0.010896   
    127. D(C   8,C   3,C   1,C   2)    -77.1355         0.010896   
    128. D(C   8,C   3,C   1,C   0)     46.9778         0.010896   
    129. D(H  22,C   4,C   3,C   8)   -179.5235         0.036177   
    130. D(H  22,C   4,C   3,C   1)     -1.2352         0.036177   
    131. D(C   5,C   4,C   3,C   8)      7.5522         0.036177   
    132. D(C   5,C   4,C   3,C   1)   -174.1595         0.036177   
    133. D(H  23,C   5,C   4,C   3)   -140.8969         0.011516   
    134. D(C  12,C   5,C   4,H  22)    -68.6664         0.011516   
    135. D(C  12,C   5,C   4,C   3)    104.4529         0.011516   
    136. D(C   6,C   5,C   4,H  22)    162.5099         0.011516   
    137. D(C   6,C   5,C   4,C   3)    -24.3708         0.011516   
    138. D(C   9,C   6,C   5,C   4)    169.2828         0.008558   
    139. D(C   7,C   6,C   5,H  23)    164.0918         0.008558   
    140. D(C   7,C   6,C   5,C  12)    -77.8089         0.008558   
    141. D(C   9,C   6,C   5,C  12)     42.8829         0.008558   
    142. D(C   7,C   6,C   5,C   4)     48.5910         0.008558   
    143. D(C   9,C   6,C   5,H  23)    -75.2165         0.008558   
    144. D(H  24,C   7,C   6,C  10)    -60.9558         0.009897   
    145. D(H  24,C   7,C   6,C   9)     58.2053         0.009897   
    146. D(H  24,C   7,C   6,C   5)    179.6428         0.009897   
    147. D(C   8,C   7,C   6,C  10)     60.5200         0.009897   
    148. D(C   8,C   7,C   6,C   9)    179.6811         0.009897   
    149. D(C   8,C   7,C   6,C   5)    -58.8815         0.009897   
    150. D(H  26,C   8,C   7,H  25)     43.0122         0.010688   
    151. D(H  26,C   8,C   7,H  24)    -71.9224         0.010688   
    152. D(C   3,C   8,C   7,H  25)    -79.7582         0.010688   
    153. D(C   3,C   8,C   7,H  24)    165.3072         0.010688   
    154. D(C   3,C   8,C   7,C   6)     42.7024         0.010688   
    155. D(H  27,C   8,C   3,C   1)    -73.4866         0.011007   
    156. D(H  26,C   8,C   3,C   4)   -138.3289         0.011007   
    157. D(H  26,C   8,C   7,C   6)    165.4728         0.010688   
    158. D(H  26,C   8,C   3,C   1)     43.3903         0.011007   
    159. D(C   7,C   8,C   3,C   4)    -16.3997         0.011007   
    160. D(C   7,C   8,C   3,C   1)    165.3195         0.011007   
    161. D(H  29,C   9,C   6,C   7)    -62.4085         0.009879   
    162. D(H  29,C   9,C   6,C   5)    177.3531         0.009879   
    163. D(H  28,C   9,C   6,C  10)    176.8071         0.009879   
    164. D(H  28,C   9,C   6,C   7)     56.5042         0.009879   
    165. D(H  29,C   9,C   6,C  10)     57.8944         0.009879   
    166. D(H  28,C   9,C   6,C   5)    -63.7343         0.009879   
    167. D(H  31,C  10,C   6,C   7)   -120.8005         0.010266   
    168. D(H  31,C  10,C   6,C   5)     -1.4237         0.010266   
    169. D(C  11,C  10,C   6,C   9)    -61.6051         0.010266   
    170. D(C  11,C  10,C   6,C   7)     58.3468         0.010266   
    171. D(C  11,C  10,C   6,C   5)    177.7236         0.010266   
    172. D(H  33,C  11,C  10,C   6)   -179.5488         0.040226   
    173. D(H  32,C  11,C  10,H  31)    179.4086         0.040226   
    174. D(H  32,C  11,C  10,C   6)      0.2439         0.040226   
    175. D(H  33,C  11,C  10,H  31)     -0.3841         0.040226   
    176. D(C  14,C  12,C   5,C   6)    -97.6996         0.010275   
    177. D(C  14,C  12,C   5,C   4)    134.7972         0.010275   
    178. D(C  13,C  12,C   5,H  23)   -158.8334         0.010275   
    179. D(C  13,C  12,C   5,C   6)     82.6774         0.010275   
    180. D(C  13,C  12,C   5,C   4)    -44.8258         0.010275   
    181. D(H  35,C  13,C  12,C  14)   -178.3743         0.038477   
    182. D(H  35,C  13,C  12,C   5)      1.2540         0.038477   
    183. D(H  34,C  13,C  12,C  14)      0.4430         0.038477   
    184. D(H  34,C  13,C  12,C   5)   -179.9286         0.038477   
    185. D(H  38,C  14,C  12,C   5)   -118.0372         0.012154   
    186. D(H  37,C  14,C  12,C  13)    -58.3434         0.012154   
    187. D(H  37,C  14,C  12,C   5)    122.0185         0.012154   
    188. D(H  36,C  14,C  12,C  13)   -178.1703         0.012154   
    189. D(H  36,C  14,C  12,C   5)      2.1915         0.012154   
    -----------------------------------------------------------------

Number of atoms                         .... 39
Number of degrees of freedom            .... 189


         *************************************************************
         *                GEOMETRY OPTIMIZATION CYCLE   1            *
         *************************************************************
---------------------------------
CARTESIAN COORDINATES (ANGSTROEM)
---------------------------------
  C      3.714100   -0.990425   -0.113561
  C      2.882926    0.239143    0.273950
  C      3.179573    0.669012    1.714220
  C      1.390137   -0.002910    0.087434
  C      0.654085    0.918633   -0.575900
  C     -0.854033    0.848401   -0.710890
  C     -1.393962   -0.618109   -0.568906
  C     -0.765225   -1.263480    0.689045
  C      0.768846   -1.288504    0.615219
  C     -2.936375   -0.627623   -0.442709
  C     -1.007749   -1.413109   -1.820742
  C     -1.286492   -2.713423   -1.984825
  C     -1.513012    1.864054    0.228311
  C     -1.118987    2.020580    1.505227
  C     -2.636681    2.731354   -0.281061
  H      3.463587   -1.308877   -1.148103
  H      3.526809   -1.836553    0.581472
  H      4.796547   -0.742631   -0.079281
  H      3.216904    1.067715   -0.390784
  H      2.941286   -0.143968    2.432052
  H      2.578025    1.566070    1.975346
  H      4.254312    0.929757    1.819823
  H      1.133056    1.821624   -0.945431
  H     -1.077152    1.183707   -1.748280
  H     -1.133075   -2.303786    0.822410
  H     -1.078942   -0.714513    1.600643
  H      1.163256   -1.509244    1.629106
  H      1.078980   -2.123534   -0.048860
  H     -3.268097   -0.111526    0.482837
  H     -3.329825   -1.664431   -0.389415
  H     -3.399649   -0.123359   -1.317911
  H     -0.467330   -0.916180   -2.622271
  H     -1.813835   -3.283143   -1.227739
  H     -0.978826   -3.221288   -2.893059
  H     -1.604577    2.747521    2.149650
  H     -0.300283    1.446800    1.924598
  H     -2.894897    2.490699   -1.333242
  H     -3.544033    2.575484    0.340278
  H     -2.339389    3.800060   -0.228652

----------------------------
CARTESIAN COORDINATES (A.U.)
----------------------------
  NO LB      ZA    FRAG     MASS         X           Y           Z
   0 C     4.0000*   0    12.011    7.018632   -1.871632   -0.214599
   1 C     4.0000*   0    12.011    5.447941    0.451915    0.517690
   2 C     4.0000*   0    12.011    6.008522    1.264249    3.239406
   3 C     4.0000*   0    12.011    2.626978   -0.005499    0.165226
   4 C     4.0000*   0    12.011    1.236042    1.735965   -1.088293
   5 C     4.0000*   0    12.011   -1.613888    1.603246   -1.343387
   6 C     4.0000*   0    12.011   -2.634206   -1.168057   -1.075077
   7 C     4.0000*   0    12.011   -1.446066   -2.387631    1.302106
   8 C     4.0000*   0    12.011    1.452908   -2.434920    1.162595
   9 C     4.0000*   0    12.011   -5.548945   -1.186036   -0.836599
  10 C     4.0000*   0    12.011   -1.904370   -2.670389   -3.440704
  11 C     4.0000*   0    12.011   -2.431118   -5.127626   -3.750776
  12 C     4.0000*   0    12.011   -2.859178    3.522552    0.431445
  13 C     4.0000*   0    12.011   -2.114579    3.818343    2.844467
  14 C     4.0000*   0    12.011   -4.982605    5.161511   -0.531128
  15 H     1.0000    0     1.008    6.545231   -2.473419   -2.169600
  16 H     1.0000    0     1.008    6.664703   -3.470582    1.098823
  17 H     1.0000    0     1.008    9.064160   -1.403369   -0.149819
  18 H     1.0000    0     1.008    6.079068    2.017689   -0.738475
  19 H     1.0000    0     1.008    5.558225   -0.272060    4.595912
  20 H     1.0000    0     1.008    4.871761    2.959443    3.732863
  21 H     1.0000    0     1.008    8.039485    1.756986    3.438967
  22 H     1.0000    0     1.008    2.141166    3.442370   -1.786606
  23 H     1.0000    0     1.008   -2.035522    2.236882   -3.303770
  24 H     1.0000    0     1.008   -2.141201   -4.353525    1.554130
  25 H     1.0000    0     1.008   -2.038905   -1.350234    3.024777
  26 H     1.0000    0     1.008    2.198235   -2.852058    3.078564
  27 H     1.0000    0     1.008    2.038977   -4.012898   -0.092332
  28 H     1.0000    0     1.008   -6.175808   -0.210754    0.912430
  29 H     1.0000    0     1.008   -6.292457   -3.145319   -0.735888
  30 H     1.0000    0     1.008   -6.424406   -0.233115   -2.490491
  31 H     1.0000    0     1.008   -0.883126   -1.731329   -4.955374
  32 H     1.0000    0     1.008   -3.427651   -6.204241   -2.320090
  33 H     1.0000    0     1.008   -1.849713   -6.087352   -5.467089
  34 H     1.0000    0     1.008   -3.032211    5.192062    4.062250
  35 H     1.0000    0     1.008   -0.567453    2.734056    3.636963
  36 H     1.0000    0     1.008   -5.470563    4.706739   -2.519462
  37 H     1.0000    0     1.008   -6.697252    4.866959    0.643032
  38 H     1.0000    0     1.008   -4.420805    7.181073   -0.432090
* core charge reduced due to ECP

--------------------------------
INTERNAL COORDINATES (ANGSTROEM)
--------------------------------
 C      0   0   0     0.000000000000     0.00000000     0.00000000
 C      1   0   0     1.533901059398     0.00000000     0.00000000
 C      2   1   0     1.532045845486   110.94624428     0.00000000
 C      2   1   3     1.523744359001   111.87610392   236.16664841
 C      4   2   1     1.353154109150   118.99429601   228.65298112
 C      5   4   2     1.515775292003   123.59416216   185.84049934
 C      6   5   4     1.569182704913   112.18441961   335.62919997
 C      7   6   5     1.547337927284   108.87727919    48.59101039
 C      4   2   1     1.522271804160   119.44312210    46.97778758
 C      7   6   5     1.547596220457   110.85806824   169.28278559
 C      7   6   5     1.532409492357   108.91776839   288.39252058
 C     11   7   6     1.339939323079   123.43940518   177.72360710
 C      6   5   4     1.532286806460   110.03484478   104.45286442
 C     13   6   5     1.345462953915   122.20020471   315.17422847
 C     13   6   5     1.508078627242   119.64398517   134.79719802
 H      1   2   3     1.111056069349   110.04820054   178.17997731
 H      1   2   3     1.110892155951   111.16970086    57.26649359
 H      1   2   3     1.110976369076   109.96037229   297.27597357
 H      2   1   3     1.113527796880   106.44718142   116.20746786
 H      3   2   1     1.110405311133   111.14644067   300.05623459
 H      3   2   1     1.111197479994   110.03599866   179.41542948
 H      3   2   1     1.110947283518   110.03135822    60.31622832
 H      5   4   2     1.086903457020   119.52189178   358.76477267
 H      6   5   4     1.112829822523   105.57756855   219.10308542
 H      8   7   6     1.111456890464   110.69869041   179.64275690
 H      8   7   6     1.109411572313   110.28758072    62.99555022
 H      9   4   2     1.110068576471   109.85207482    43.39034853
 H      9   4   2     1.111062157171   108.27386958   286.51338347
 H     10   7   6     1.110419288741   111.27506255   296.26570453
 H     10   7   6     1.110231499193   111.27557333   177.35306859
 H     10   7   6     1.111253131188   110.39467742    57.08248203
 H     11   7   6     1.086940598397   119.37525287   358.57629855
 H     12  11   7     1.084366510662   121.70373201     0.24388053
 H     12  11   7     1.085114843939   119.84795557   180.45117240
 H     14  13   6     1.086057948965   120.66778337   180.07138906
 H     14  13   6     1.084145637660   121.78249378     1.25402180
 H     15  13   6     1.109808626945   111.64634640     2.19153364
 H     15  13   6     1.110695845731   109.81792104   122.01845994
 H     15  13   6     1.110523187953   109.75752765   241.96276223

---------------------------
INTERNAL COORDINATES (A.U.)
---------------------------
 C      0   0   0     0.000000000000     0.00000000     0.00000000
 C      1   0   0     2.898652918793     0.00000000     0.00000000
 C      2   1   0     2.895147072580   110.94624428     0.00000000
 C      2   1   3     2.879459536618   111.87610392   236.16664841
 C      4   2   1     2.557090683283   118.99429601   228.65298112
 C      5   4   2     2.864400182451   123.59416216   185.84049934
 C      6   5   4     2.965325566371   112.18441961   335.62919997
 C      7   6   5     2.924044919196   108.87727919    48.59101039
 C      4   2   1     2.876676811254   119.44312210    46.97778758
 C      7   6   5     2.924533022556   110.85806824   169.28278559
 C      7   6   5     2.895834265576   108.91776839   288.39252058
 C     11   7   6     2.532118356692   123.43940518   177.72360710
 C      6   5   4     2.895602422830   110.03484478   104.45286442
 C     13   6   5     2.542556506236   122.20020471   315.17422847
 C     13   6   5     2.849855593908   119.64398517   134.79719802
 H      1   2   3     2.099591690500   110.04820054   178.17997731
 H      1   2   3     2.099281939069   111.16970086    57.26649359
 H      1   2   3     2.099441078812   109.96037229   297.27597357
 H      2   1   3     2.104262578612   106.44718142   116.20746786
 H      3   2   1     2.098361935694   111.14644067   300.05623459
 H      3   2   1     2.099858917891   110.03599866   179.41542948
 H      3   2   1     2.099386115072   110.03135822    60.31622832
 H      5   4   2     2.053949867781   119.52189178   358.76477267
 H      6   5   4     2.102943598229   105.57756855   219.10308542
 H      8   7   6     2.100349132638   110.69869041   179.64275690
 H      8   7   6     2.096484041475   110.28758072    62.99555022
 H      9   4   2     2.097725599403   109.85207482    43.39034853
 H      9   4   2     2.099603194817   108.27386958   286.51338347
 H     10   7   6     2.098388349545   111.27506255   296.26570453
 H     10   7   6     2.098033478727   111.27557333   177.35306859
 H     10   7   6     2.099964083409   110.39467742    57.08248203
 H     11   7   6     2.054020054810   119.37525287   358.57629855
 H     12  11   7     2.049155733947   121.70373201     0.24388053
 H     12  11   7     2.050569878898   119.84795557   180.45117240
 H     14  13   6     2.052352089112   120.66778337   180.07138906
 H     14  13   6     2.048738344463   121.78249378     1.25402180
 H     15  13   6     2.097234365990   111.64634640     2.19153364
 H     15  13   6     2.098910966516   109.81792104   122.01845994
 H     15  13   6     2.098584690600   109.75752765   241.96276223

---------------------
BASIS SET INFORMATION
---------------------
There are 2 groups of distinct atoms

 Group   1 Type C   : 6s6p2d contracted to 2s2p1d pattern {42/42/2}
 Group   2 Type H   : 8s2p contracted to 2s1p pattern {53/2}

Atom   0C    basis set group =>   1
Atom   1C    basis set group =>   1
Atom   2C    basis set group =>   1
Atom   3C    basis set group =>   1
Atom   4C    basis set group =>   1
Atom   5C    basis set group =>   1
Atom   6C    basis set group =>   1
Atom   7C    basis set group =>   1
Atom   8C    basis set group =>   1
Atom   9C    basis set group =>   1
Atom  10C    basis set group =>   1
Atom  11C    basis set group =>   1
Atom  12C    basis set group =>   1
Atom  13C    basis set group =>   1
Atom  14C    basis set group =>   1
Atom  15H    basis set group =>   2
Atom  16H    basis set group =>   2
Atom  17H    basis set group =>   2
Atom  18H    basis set group =>   2
Atom  19H    basis set group =>   2
Atom  20H    basis set group =>   2
Atom  21H    basis set group =>   2
Atom  22H    basis set group =>   2
Atom  23H    basis set group =>   2
Atom  24H    basis set group =>   2
Atom  25H    basis set group =>   2
Atom  26H    basis set group =>   2
Atom  27H    basis set group =>   2
Atom  28H    basis set group =>   2
Atom  29H    basis set group =>   2
Atom  30H    basis set group =>   2
Atom  31H    basis set group =>   2
Atom  32H    basis set group =>   2
Atom  33H    basis set group =>   2
Atom  34H    basis set group =>   2
Atom  35H    basis set group =>   2
Atom  36H    basis set group =>   2
Atom  37H    basis set group =>   2
Atom  38H    basis set group =>   2
---------------------------------
AUXILIARY/J BASIS SET INFORMATION
---------------------------------
There are 2 groups of distinct atoms

 Group   1 Type C   : 12s5p4d2f1g contracted to 6s4p3d1f1g pattern {711111/2111/211/2/1}
 Group   2 Type H   : 5s2p1d contracted to 3s1p1d pattern {311/2/1}

Atom   0C    basis set group =>   1
Atom   1C    basis set group =>   1
Atom   2C    basis set group =>   1
Atom   3C    basis set group =>   1
Atom   4C    basis set group =>   1
Atom   5C    basis set group =>   1
Atom   6C    basis set group =>   1
Atom   7C    basis set group =>   1
Atom   8C    basis set group =>   1
Atom   9C    basis set group =>   1
Atom  10C    basis set group =>   1
Atom  11C    basis set group =>   1
Atom  12C    basis set group =>   1
Atom  13C    basis set group =>   1
Atom  14C    basis set group =>   1
Atom  15H    basis set group =>   2
Atom  16H    basis set group =>   2
Atom  17H    basis set group =>   2
Atom  18H    basis set group =>   2
Atom  19H    basis set group =>   2
Atom  20H    basis set group =>   2
Atom  21H    basis set group =>   2
Atom  22H    basis set group =>   2
Atom  23H    basis set group =>   2
Atom  24H    basis set group =>   2
Atom  25H    basis set group =>   2
Atom  26H    basis set group =>   2
Atom  27H    basis set group =>   2
Atom  28H    basis set group =>   2
Atom  29H    basis set group =>   2
Atom  30H    basis set group =>   2
Atom  31H    basis set group =>   2
Atom  32H    basis set group =>   2
Atom  33H    basis set group =>   2
Atom  34H    basis set group =>   2
Atom  35H    basis set group =>   2
Atom  36H    basis set group =>   2
Atom  37H    basis set group =>   2
Atom  38H    basis set group =>   2
-------------------------
ECP PARAMETER INFORMATION
-------------------------

 Group 1, Type C  ECP vDZP-ECP (replacing 2 core electrons, lmax=3)

Atom   0C    ECP group =>   1
Atom   1C    ECP group =>   1
Atom   2C    ECP group =>   1
Atom   3C    ECP group =>   1
Atom   4C    ECP group =>   1
Atom   5C    ECP group =>   1
Atom   6C    ECP group =>   1
Atom   7C    ECP group =>   1
Atom   8C    ECP group =>   1
Atom   9C    ECP group =>   1
Atom  10C    ECP group =>   1
Atom  11C    ECP group =>   1
Atom  12C    ECP group =>   1
Atom  13C    ECP group =>   1
Atom  14C    ECP group =>   1



           ************************************************************
           *        Program running with 40 parallel MPI-processes    *
           *              working on a common directory               *
           ************************************************************
------------------------------------------------------------------------------
                             ORCA STARTUP CALCULATIONS
                           -- RI-GTO INTEGRALS CHOSEN --
------------------------------------------------------------------------------
------------------------------------------------------------------------------
                   ___                                                        
                  /   \      - P O W E R E D   B Y -                         
                 /     \                                                     
                 |  |  |   _    _      __       _____    __    __             
                 |  |  |  | |  | |    /  \     |  _  \  |  |  /  |          
                  \  \/   | |  | |   /    \    | | | |  |  | /  /          
                 / \  \   | |__| |  /  /\  \   | |_| |  |  |/  /          
                |  |  |   |  __  | /  /__\  \  |    /   |      \           
                |  |  |   | |  | | |   __   |  |    \   |  |\   \          
                \     /   | |  | | |  |  |  |  | |\  \  |  | \   \       
                 \___/    |_|  |_| |__|  |__|  |_| \__\ |__|  \__/        
                                                                              
                      - O R C A' S   B I G   F R I E N D -                    
                                      &                                       
                       - I N T E G R A L  F E E D E R -                       
                                                                              
 v1 FN, 2020, v2 2021, v3 2022-2024                                           
------------------------------------------------------------------------------


----------------------
SHARK INTEGRAL PACKAGE
----------------------

Number of atoms                             ...     39
Number of basis functions                   ...    315
Number of shells                            ...    147
Maximum angular momentum                    ...      2
Integral batch strategy                     ... SHARK/LIBINT Hybrid
RI-J (if used) integral strategy            ... SPLIT-RIJ (Revised 2003 algorithm where possible)
Printlevel                                  ...      1
Contraction scheme used                     ... SEGMENTED contraction
Prescreening option                         ... SCHWARTZ
   Thresh                                   ... 2.500e-11
   Tcut                                     ... 2.500e-12
   Tpresel                                  ... 2.500e-12 
Coulomb Range Separation                    ... NOT USED
Exchange Range Separation                   ... Long Range
   Mu parameter                             ... 3.000e-01
   Scaling (regular/separated)              ... 1.670e-01 8.330e-01
Multipole approximations                    ... NOT USED
Finite Nucleus Model                        ... NOT USED
CABS basis                                  ... NOT available
Auxiliary Coulomb fitting basis             ... AVAILABLE
   # of basis functions in Aux-J            ...    999
   # of shells in Aux-J                     ...    345
   Maximum angular momentum in Aux-J        ...      4
Auxiliary J/K fitting basis                 ... NOT available
Auxiliary Correlation fitting basis         ... NOT available
Auxiliary 'external' fitting basis          ... NOT available

Checking pre-screening integrals            ... done (  0.0 sec) Dimension = 147
Check shell pair data                       ... done (  0.0 sec)
Shell pair information
Shell pair cut-off parameter TPreSel        ...   2.5e-12
Total number of shell pairs                 ...     10878
Shell pairs after pre-screening             ...     10778
Total number of primitive shell pairs       ...    102036
Primitive shell pairs kept                  ...     77182
          la=0 lb=0:   3065 shell pairs
          la=1 lb=0:   4168 shell pairs
          la=1 lb=1:   1448 shell pairs
          la=2 lb=0:   1169 shell pairs
          la=2 lb=1:    808 shell pairs
          la=2 lb=2:    120 shell pairs

Calculating one electron integrals          ... done (  0.0 sec)
Calculating ECP integrals                   ... done (  0.2 sec)
Calculating RI/J V-Matrix + Cholesky decomp.... done (  0.1 sec)
Calculating Nuclear repulsion               ... done (  0.0 sec) ENN=    563.794493350471 Eh

Diagonalization of the overlap matrix:
Smallest eigenvalue                        ... 9.056e-04
Time for diagonalization                   ...    0.014 sec
Threshold for overlap eigenvalues          ... 1.000e-07
Number of eigenvalues below threshold      ... 0
Time for construction of square roots      ...    0.007 sec
Total time needed                          ...    0.024 sec

-------------------
DFT GRID GENERATION
-------------------

General Integration Accuracy     IntAcc      ... 4.388
Radial Grid Type                 RadialGrid  ... OptM3 with GC (2021)
Angular Grid (max. ang.)         AngularGrid ... 4 (Lebedev-302)
Angular grid pruning method      GridPruning ... 4 (adaptive)
Weight generation scheme         WeightScheme... mBecke (2022)
Basis function cutoff            BFCut       ... 1.0000e-11
Integration weight cutoff        WCut        ... 1.0000e-14
Partially contracted basis set               ... off
Rotationally invariant grid construction     ... off
Angular grids for H and He will be reduced by one unit

Total number of grid points                  ...   164995
Total number of batches                      ...     2597
Average number of points per batch           ...       63
Average number of grid points per atom       ...     4231

--------------------
COSX GRID GENERATION
--------------------

GRIDX 1
-------
General Integration Accuracy     IntAcc      ... 3.816
Radial Grid Type                 RadialGrid  ... OptM3 with GC (2021)
Angular Grid (max. ang.)         AngularGrid ... 1 (Lebedev-50)
Angular grid pruning method      GridPruning ... 4 (adaptive)
Weight generation scheme         WeightScheme... mBecke (2022)
Basis function cutoff            BFCut       ... 1.0000e-11
Integration weight cutoff        WCut        ... 1.0000e-14
Partially contracted basis set               ... on
Rotationally invariant grid construction     ... off
Angular grids for H and He will be reduced by one unit

Total number of grid points                  ...    21078
Total number of batches                      ...      189
Average number of points per batch           ...      111
Average number of grid points per atom       ...      540
UseSFitting                                  ... on

GRIDX 2
-------
General Integration Accuracy     IntAcc      ... 4.020
Radial Grid Type                 RadialGrid  ... OptM3 with GC (2021)
Angular Grid (max. ang.)         AngularGrid ... 2 (Lebedev-110)
Angular grid pruning method      GridPruning ... 4 (adaptive)
Weight generation scheme         WeightScheme... mBecke (2022)
Basis function cutoff            BFCut       ... 1.0000e-11
Integration weight cutoff        WCut        ... 1.0000e-14
Partially contracted basis set               ... on
Rotationally invariant grid construction     ... off
Angular grids for H and He will be reduced by one unit

Total number of grid points                  ...    43531
Total number of batches                      ...      360
Average number of points per batch           ...      120
Average number of grid points per atom       ...     1116
UseSFitting                                  ... on

GRIDX 3
-------
General Integration Accuracy     IntAcc      ... 4.338
Radial Grid Type                 RadialGrid  ... OptM3 with GC (2021)
Angular Grid (max. ang.)         AngularGrid ... 3 (Lebedev-194)
Angular grid pruning method      GridPruning ... 4 (adaptive)
Weight generation scheme         WeightScheme... mBecke (2022)
Basis function cutoff            BFCut       ... 1.0000e-11
Integration weight cutoff        WCut        ... 1.0000e-14
Partially contracted basis set               ... on
Rotationally invariant grid construction     ... off
Angular grids for H and He will be reduced by one unit

Total number of grid points                  ...    94404
Total number of batches                      ...      759
Average number of points per batch           ...      124
Average number of grid points per atom       ...     2421
UseSFitting                                  ... on
Initializing property integral containers    ... done (  0.0 sec)

SHARK setup successfully completed in   5.1 seconds

Maximum memory used throughout the entire STARTUP-calculation: 51.8 MB


           ************************************************************
           *        Program running with 40 parallel MPI-processes    *
           *              working on a common directory               *
           ************************************************************
-------------------------------------------------------------------------------
                                 ORCA GUESS
                   Start orbitals & Density for SCF / CASSCF
-------------------------------------------------------------------------------

------------
SCF SETTINGS
------------
Hamiltonian:
 Density Functional     Method          .... DFT(GTOs)
 Exchange Functional    Exchange        .... WB97X-V
 Correlation Functional Correlation     .... WB97X-V
 Gradients option       PostSCFGGA      .... off
 Hybrid DFT is turned on
   Fraction HF Exchange ScalHFX         ....  0.167000
   Scaling of DF-GGA-X  ScalDFX         ....  0.000000
   Scaling of DF-GGA-C  ScalDFC         ....  1.000000
   Scaling of DF-LDA-C  ScalLDAC        ....  1.000000
   Perturbative correction              ....  0.000000
 Long-range corrected/Screened/Range-Separated Hybrid DFT is turned on
   Amount of maximum screened exact exchange              ....  0.833000
   Range separation parameter mu (erf(mu*r12)/r12)        ....  0.300000
   NL short-range parameter             ....  6.000000
   NL long-range parameter              ....  0.010000
 RI-approximation to the Coulomb term is turned on
   Number of AuxJ basis functions       .... 999
   RIJ-COSX (HFX calculated with COS-X)).... on


General Settings:
 Integral files         IntName         .... ./output/delta_elemene/delta_elemene
 Hartree-Fock type      HFTyp           .... RHF
 Total Charge           Charge          ....    0
 Multiplicity           Mult            ....    1
 Number of Electrons    NEL             ....   84
 Basis Dimension        Dim             ....  315
 Nuclear Repulsion      ENuc            ....    563.7944933505 Eh

Convergence Acceleration:
 AO-DIIS                CNVDIIS         .... on
   Start iteration      DIISMaxIt       ....    12
   Startup error        DIISStart       ....  0.200000
   # of expansion vecs  DIISMaxEq       ....     5
   Bias factor          DIISBfac        ....   1.050
   Max. coefficient     DIISMaxC        ....  10.000
 MO-DIIS                CNVKDIIS        .... off
 Trust-Rad. Augm. Hess. CNVTRAH         .... auto
   Auto Start mean grad. ratio tolernc. ....  1.125000
   Auto Start start iteration           ....    50
   Auto Start num. interpolation iter.  ....    10
   Max. Number of Micro iterations      ....    24
   Max. Number of Macro iterations      .... Maxiter - #DIIS iter
   Number of Davidson start vectors     ....     2
   Converg. threshold    (grad. norm)   ....   1.000e-05
   Grad. Scal. Fac. for Micro threshold ....   0.100
   Minimum threshold for Micro iter.    ....   1.000e-02
   NR start threshold (gradient norm)   ....   1.000e-04
   Initial trust radius                 ....   0.400
   Minimum AH scaling param. (alpha)    ....   1.000
   Maximum AH scaling param. (alpha)    .... 1000.000
   Quad. conv. algorithm                .... NR
   White noise on init. David. guess    .... on
   Maximum white noise                  ....   0.010
   Pseudo random numbers                .... off
   Inactive MOs                         .... canonical
   Orbital update algorithm             .... Taylor
   Preconditioner                       .... Diag
   Full preconditioner red. dimension   ....   250
 SOSCF                  CNVSOSCF        .... on
   Start iteration      SOSCFMaxIt      ....   150
   Startup grad/error   SOSCFStart      ....  0.003300
   Hessian update       SOSCFHessUp     .... L-BFGS
 Level Shifting         CNVShift        .... on
   Level shift para.    LevelShift      ....    0.2500
   Turn off err/grad.   ShiftErr        ....    0.0010
 Zerner damping         CNVZerner       .... off
 Static damping         CNVDamp         .... on
   Fraction old density DampFac         ....    0.7000
   Max. Damping (<1)    DampMax         ....    0.9800
   Min. Damping (>=0)   DampMin         ....    0.0000
   Turn off err/grad.   DampErr         ....    0.1000

SCF Procedure:
 Maximum # iterations   MaxIter         ....   125
 SCF integral mode      SCFMode         .... Direct
   Integral package                     .... SHARK and LIBINT hybrid scheme
 Reset frequency        DirectResetFreq ....    20
 Integral Threshold     Thresh          ....  2.500e-11 Eh
 Primitive CutOff       TCut            ....  2.500e-12 Eh

Convergence Tolerance:
 Convergence Check Mode ConvCheckMode   .... Total+1el-Energy
 Convergence forced     ConvForced      .... 0
 Energy Change          TolE            ....  1.000e-08 Eh
 1-El. energy change                    ....  1.000e-05 Eh
 Orbital Gradient       TolG            ....  1.000e-05
 Orbital Rotation angle TolX            ....  1.000e-05
 DIIS Error             TolErr          ....  5.000e-07

------------------------------
INITIAL GUESS: MODEL POTENTIAL
------------------------------
Loading Hartree-Fock densities                     ... done
Atomic calculation to generate a density for atom 0 (C  with ECP)
  Multiplicity assumed   :    1
  Atomic configuration   : 1s2 2s2 2p2 
  Number of open shells  : 1
  Command: /home/aspe232/Project/Software/ORCA/6_0_1/build/orca ./output/delta_elemene/delta_elemene_atom6.inp "" > ./output/delta_elemene/delta_elemene_atom6.out
Returned from the atomic calculation with res=0
Calculating cut-offs                               ... done
Initializing the effective Hamiltonian             ... done
Setting up the integral package (SHARK)            ... done
Starting the Coulomb interaction                   ... done (   0.1 sec)
Making the grid                                    ... done (   1.0 sec)
Mapping shells                                     ... done
Starting the XC term evaluation                    ... done (   0.1 sec)
  promolecular density results
     # of electrons  =    113.990445196
     EX              =    -55.333589694
     EC              =     -4.544754013
     EX+EC           =    -59.878343707
Transforming the Hamiltonian                       ... done (   0.0 sec)
Diagonalizing the Hamiltonian                      ... done (   0.0 sec)
Back transforming the eigenvectors                 ... done (   0.0 sec)
Now organizing SCF variables                       ... done
                      ------------------
                      INITIAL GUESS DONE (   2.0 sec)
                      ------------------
             **** ENERGY FILE WAS UPDATED (./output/delta_elemene/delta_elemene.en.tmp) ****
Finished Guess after   3.0 sec
Maximum memory used throughout the entire GUESS-calculation: 34.5 MB


           ************************************************************
           *        Program running with 40 parallel MPI-processes    *
           *              working on a common directory               *
           ************************************************************

-------------------------------------------------------------------------------------------
                                      ORCA LEAN-SCF
                              memory conserving SCF solver
-------------------------------------------------------------------------------------------

----------------------------------------D-I-I-S--------------------------------------------
Iteration    Energy (Eh)           Delta-E    RMSDP     MaxDP     DIISErr   Damp  Time(sec)
-------------------------------------------------------------------------------------------
               ***  Starting incremental Fock matrix formation  ***
    1    -99.1830362134674033     0.00e+00  3.38e-03  7.83e-02  1.84e-01  0.700   8.2
    2    -99.4452799955721503    -2.62e-01  2.49e-03  5.80e-02  1.11e-01  0.700   6.2
                               ***Turning on AO-DIIS***
    3    -99.5833209647757940    -1.38e-01  1.31e-03  3.20e-02  5.84e-02  0.700   5.8
    4    -99.6646825270513546    -8.14e-02  2.85e-03  6.64e-02  3.68e-02  0.000   5.9
    5    -99.8351416290905718    -1.70e-01  2.18e-04  5.42e-03  5.18e-03  0.000   6.1
                              *** Initializing SOSCF ***
---------------------------------------S-O-S-C-F--------------------------------------
Iteration    Energy (Eh)           Delta-E    RMSDP     MaxDP     MaxGrad    Time(sec)
--------------------------------------------------------------------------------------
    6    -99.8356017410151253    -4.60e-04  9.88e-05  1.72e-03  1.42e-03     5.9
               *** Restarting incremental Fock matrix formation ***
    7    -99.8356517374330679    -5.00e-05  6.07e-05  1.11e-03  2.91e-04     8.0
    8    -99.8356667586458570    -1.50e-05  3.73e-05  7.21e-04  3.25e-04     7.5
    9    -99.8356704453742623    -3.69e-06  1.21e-05  1.97e-04  9.85e-05     7.5
   10    -99.8356709096586883    -4.64e-07  2.56e-06  7.26e-05  1.93e-05     7.1
   11    -99.8356709164922904    -6.83e-09  8.41e-07  3.67e-05  1.19e-05     6.3
                 **** Energy Check signals convergence ****

               *****************************************************
               *                     SUCCESS                       *
               *           SCF CONVERGED AFTER  11 CYCLES          *
               *****************************************************

Recomputing exchange energy using gridx3       ... done (    9.557 sec)
Old exchange energy                            :    -15.865119145 Eh
New exchange energy                            :    -15.865143419 Eh
Exchange energy change after final integration :     -0.000024274 Eh
Total energy after final integration           :    -99.835695191 Eh
             **** ENERGY FILE WAS UPDATED (./output/delta_elemene/delta_elemene.en.tmp) ****

----------------
TOTAL SCF ENERGY
----------------

Total Energy       :        -99.83569519074965 Eh           -2716.66738 eV

Components:
Nuclear Repulsion  :        563.79449335047070 Eh           15341.62812 eV
Electronic Energy  :       -663.63016426696299 Eh          -18058.29484 eV
One Electron Energy:      -1266.41236897470435 Eh          -34460.83251 eV
Two Electron Energy:        602.78220470774136 Eh           16402.53768 eV

Virial components:
Potential Energy   :       -177.50093036447430 Eh           -4830.04587 eV
Kinetic Energy     :         77.66523517372467 Eh            2113.37849 eV
Virial Ratio       :          2.28546182815816

DFT components:
N(Alpha)           :       41.999991082042 electrons
N(Beta)            :       41.999991082042 electrons
N(Total)           :       83.999982164084 electrons
E(X)               :      -16.032282040057 Eh       
E(C)               :       -3.122435531805 Eh       
E(XC)              :      -19.154717571862 Eh       

---------------
SCF CONVERGENCE
---------------

  Last Energy change         ...    6.8336e-09  Tolerance :   1.0000e-08
  Last MAX-Density change    ...    3.6662e-05  Tolerance :   1.0000e-07
  Last RMS-Density change    ...    8.4101e-07  Tolerance :   5.0000e-09
  Last DIIS Error            ...    1.4249e-03  Tolerance :   5.0000e-07
  Last Orbital Gradient      ...    1.1861e-05  Tolerance :   1.0000e-05
  Last Orbital Rotation      ...    2.9723e-05  Tolerance :   1.0000e-05


----------------
ORBITAL ENERGIES
----------------

  NO   OCC          E(Eh)            E(eV) 
   0   2.0000      -0.997700       -27.1488 
   1   2.0000      -0.952052       -25.9066 
   2   2.0000      -0.935227       -25.4488 
   3   2.0000      -0.896180       -24.3863 
   4   2.0000      -0.868955       -23.6455 
   5   2.0000      -0.862714       -23.4756 
   6   2.0000      -0.812510       -22.1095 
   7   2.0000      -0.810935       -22.0667 
   8   2.0000      -0.802754       -21.8441 
   9   2.0000      -0.751345       -20.4451 
  10   2.0000      -0.734670       -19.9914 
  11   2.0000      -0.704488       -19.1701 
  12   2.0000      -0.660997       -17.9866 
  13   2.0000      -0.639949       -17.4139 
  14   2.0000      -0.622021       -16.9260 
  15   2.0000      -0.597544       -16.2600 
  16   2.0000      -0.576309       -15.6822 
  17   2.0000      -0.569580       -15.4991 
  18   2.0000      -0.566916       -15.4266 
  19   2.0000      -0.554510       -15.0890 
  20   2.0000      -0.537765       -14.6333 
  21   2.0000      -0.533059       -14.5053 
  22   2.0000      -0.530657       -14.4399 
  23   2.0000      -0.517582       -14.0841 
  24   2.0000      -0.509011       -13.8509 
  25   2.0000      -0.507126       -13.7996 
  26   2.0000      -0.498367       -13.5613 
  27   2.0000      -0.492467       -13.4007 
  28   2.0000      -0.484713       -13.1897 
  29   2.0000      -0.473113       -12.8741 
  30   2.0000      -0.465959       -12.6794 
  31   2.0000      -0.461393       -12.5551 
  32   2.0000      -0.457022       -12.4362 
  33   2.0000      -0.445855       -12.1323 
  34   2.0000      -0.439533       -11.9603 
  35   2.0000      -0.429515       -11.6877 
  36   2.0000      -0.416501       -11.3336 
  37   2.0000      -0.403648       -10.9838 
  38   2.0000      -0.400024       -10.8852 
  39   2.0000      -0.355661        -9.6780 
  40   2.0000      -0.347333        -9.4514 
  41   2.0000      -0.322484        -8.7752 
  42   0.0000       0.074458         2.0261 
  43   0.0000       0.082808         2.2533 
  44   0.0000       0.086474         2.3531 
  45   0.0000       0.096290         2.6202 
  46   0.0000       0.099780         2.7152 
  47   0.0000       0.100945         2.7468 
  48   0.0000       0.105716         2.8767 
  49   0.0000       0.115231         3.1356 
  50   0.0000       0.121296         3.3006 
  51   0.0000       0.122643         3.3373 
  52   0.0000       0.126603         3.4450 
*Only the first 10 virtual orbitals were printed.

                    ********************************
                    * MULLIKEN POPULATION ANALYSIS *
                    ********************************

-----------------------
MULLIKEN ATOMIC CHARGES
-----------------------
   0 C :   -0.075867
   1 C :   -0.100568
   2 C :   -0.068177
   3 C :   -0.037549
   4 C :    0.017118
   5 C :   -0.100116
   6 C :   -0.206736
   7 C :    0.006838
   8 C :   -0.063025
   9 C :   -0.017430
  10 C :    0.024426
  11 C :   -0.048717
  12 C :   -0.089567
  13 C :    0.000035
  14 C :   -0.079146
  15 H :    0.043320
  16 H :    0.031802
  17 H :    0.036695
  18 H :    0.036991
  19 H :    0.027589
  20 H :    0.041809
  21 H :    0.036237
  22 H :    0.018371
  23 H :    0.045397
  24 H :    0.037234
  25 H :    0.033533
  26 H :    0.040548
  27 H :    0.058077
  28 H :    0.037510
  29 H :    0.035144
  30 H :    0.038444
  31 H :    0.014618
  32 H :    0.016644
  33 H :    0.031127
  34 H :    0.019404
  35 H :    0.016356
  36 H :    0.032586
  37 H :    0.050662
  38 H :    0.058383
Sum of atomic charges:    0.0000000

--------------------------------
MULLIKEN REDUCED ORBITAL CHARGES
--------------------------------
  0 C s       :     0.964774  s :     0.964774
      pz      :     1.035020  p :     3.036964
      px      :     1.016941
      py      :     0.985003
      dz2     :     0.016735  d :     0.074129
      dxz     :     0.004318
      dyz     :     0.020328
      dx2y2   :     0.021533
      dxy     :     0.011214

  1 C s       :     1.049188  s :     1.049188
      pz      :     0.971488  p :     2.924369
      px      :     0.955921
      py      :     0.996961
      dz2     :     0.024670  d :     0.127011
      dxz     :     0.022847
      dyz     :     0.028692
      dx2y2   :     0.026841
      dxy     :     0.023961

  2 C s       :     0.967538  s :     0.967538
      pz      :     0.961452  p :     3.026396
      px      :     1.033615
      py      :     1.031329
      dz2     :     0.017582  d :     0.074243
      dxz     :     0.010191
      dyz     :     0.021392
      dx2y2   :     0.013416
      dxy     :     0.011663

  3 C s       :     1.059351  s :     1.059351
      pz      :     0.965786  p :     2.861025
      px      :     0.923543
      py      :     0.971696
      dz2     :     0.019489  d :     0.117173
      dxz     :     0.018916
      dyz     :     0.016017
      dx2y2   :     0.032830
      dxy     :     0.029922

  4 C s       :     1.012757  s :     1.012757
      pz      :     0.985907  p :     2.877940
      px      :     0.917024
      py      :     0.975009
      dz2     :     0.012895  d :     0.092185
      dxz     :     0.017537
      dyz     :     0.009648
      dx2y2   :     0.026430
      dxy     :     0.025675

  5 C s       :     1.004934  s :     1.004934
      pz      :     1.038380  p :     2.972150
      px      :     0.979190
      py      :     0.954580
      dz2     :     0.026005  d :     0.123031
      dxz     :     0.020648
      dyz     :     0.022389
      dx2y2   :     0.028916
      dxy     :     0.025073

  6 C s       :     1.071690  s :     1.071690
      pz      :     1.003656  p :     2.992229
      px      :     1.019165
      py      :     0.969407
      dz2     :     0.030632  d :     0.142817
      dxz     :     0.025954
      dyz     :     0.029414
      dx2y2   :     0.031255
      dxy     :     0.025562

  7 C s       :     0.980478  s :     0.980478
      pz      :     0.969706  p :     2.914761
      px      :     0.922522
      py      :     1.022533
      dz2     :     0.021247  d :     0.097923
      dxz     :     0.020085
      dyz     :     0.016820
      dx2y2   :     0.022624
      dxy     :     0.017148

  8 C s       :     0.988089  s :     0.988089
      pz      :     1.036128  p :     2.976034
      px      :     0.947894
      py      :     0.992012
      dz2     :     0.017580  d :     0.098902
      dxz     :     0.018412
      dyz     :     0.018948
      dx2y2   :     0.022238
      dxy     :     0.021723

  9 C s       :     0.946069  s :     0.946069
      pz      :     1.033278  p :     2.997779
      px      :     0.931410
      py      :     1.033092
      dz2     :     0.013350  d :     0.073581
      dxz     :     0.016683
      dyz     :     0.012315
      dx2y2   :     0.015656
      dxy     :     0.015578

 10 C s       :     1.036965  s :     1.036965
      pz      :     0.943259  p :     2.845996
      px      :     0.938081
      py      :     0.964656
      dz2     :     0.015562  d :     0.092613
      dxz     :     0.011490
      dyz     :     0.030947
      dx2y2   :     0.013544
      dxy     :     0.021070

 11 C s       :     1.005943  s :     1.005943
      pz      :     0.990949  p :     2.977767
      px      :     0.995592
      py      :     0.991226
      dz2     :     0.008030  d :     0.065006
      dxz     :     0.005430
      dyz     :     0.026915
      dx2y2   :     0.008166
      dxy     :     0.016465

 12 C s       :     1.087978  s :     1.087978
      pz      :     1.013224  p :     2.882478
      px      :     0.946219
      py      :     0.923036
      dz2     :     0.028885  d :     0.119111
      dxz     :     0.028071
      dyz     :     0.029127
      dx2y2   :     0.017166
      dxy     :     0.015862

 13 C s       :     0.978581  s :     0.978581
      pz      :     0.979172  p :     2.957426
      px      :     0.987139
      py      :     0.991115
      dz2     :     0.012815  d :     0.063958
      dxz     :     0.018800
      dyz     :     0.020794
      dx2y2   :     0.003430
      dxy     :     0.008120

 14 C s       :     0.953884  s :     0.953884
      pz      :     1.033294  p :     3.052225
      px      :     0.995587
      py      :     1.023343
      dz2     :     0.017824  d :     0.073037
      dxz     :     0.016353
      dyz     :     0.006548
      dx2y2   :     0.020472
      dxy     :     0.011840

 15 H s       :     0.913971  s :     0.913971
      pz      :     0.021625  p :     0.042709
      px      :     0.010014
      py      :     0.011069

 16 H s       :     0.924425  s :     0.924425
      pz      :     0.015087  p :     0.043773
      px      :     0.010642
      py      :     0.018044

 17 H s       :     0.919985  s :     0.919985
      pz      :     0.010000  p :     0.043320
      px      :     0.022818
      py      :     0.010502

 18 H s       :     0.922348  s :     0.922348
      pz      :     0.014112  p :     0.040660
      px      :     0.009859
      py      :     0.016690

 19 H s       :     0.928650  s :     0.928650
      pz      :     0.015825  p :     0.043761
      px      :     0.010902
      py      :     0.017033

 20 H s       :     0.915270  s :     0.915270
      pz      :     0.010375  p :     0.042921
      px      :     0.013709
      py      :     0.018837

 21 H s       :     0.920403  s :     0.920403
      pz      :     0.010282  p :     0.043360
      px      :     0.022353
      py      :     0.010725

 22 H s       :     0.933315  s :     0.933315
      pz      :     0.014408  p :     0.048314
      px      :     0.012816
      py      :     0.021091

 23 H s       :     0.913117  s :     0.913117
      pz      :     0.021457  p :     0.041486
      px      :     0.010218
      py      :     0.009812

 24 H s       :     0.920064  s :     0.920064
      pz      :     0.009662  p :     0.042701
      px      :     0.011182
      py      :     0.021857

 25 H s       :     0.922648  s :     0.922648
      pz      :     0.018720  p :     0.043819
      px      :     0.010590
      py      :     0.014509

 26 H s       :     0.915975  s :     0.915975
      pz      :     0.021153  p :     0.043477
      px      :     0.011740
      py      :     0.010584

 27 H s       :     0.898423  s :     0.898423
      pz      :     0.015449  p :     0.043500
      px      :     0.010453
      py      :     0.017598

 28 H s       :     0.918324  s :     0.918324
      pz      :     0.019963  p :     0.044166
      px      :     0.010764
      py      :     0.013439

 29 H s       :     0.920959  s :     0.920959
      pz      :     0.010422  p :     0.043896
      px      :     0.011545
      py      :     0.021929

 30 H s       :     0.918640  s :     0.918640
      pz      :     0.018539  p :     0.042916
      px      :     0.011836
      py      :     0.012541

 31 H s       :     0.937303  s :     0.937303
      pz      :     0.018643  p :     0.048080
      px      :     0.016321
      py      :     0.013115

 32 H s       :     0.932381  s :     0.932381
      pz      :     0.019093  p :     0.050976
      px      :     0.017239
      py      :     0.014643

 33 H s       :     0.919017  s :     0.919017
      pz      :     0.021931  p :     0.049856
      px      :     0.014683
      py      :     0.013242

 34 H s       :     0.930540  s :     0.930540
      pz      :     0.015476  p :     0.050056
      px      :     0.015309
      py      :     0.019271

 35 H s       :     0.930647  s :     0.930647
      pz      :     0.012564  p :     0.052997
      px      :     0.022495
      py      :     0.017937

 36 H s       :     0.923280  s :     0.923280
      pz      :     0.022572  p :     0.044134
      px      :     0.011140
      py      :     0.010422

 37 H s       :     0.905328  s :     0.905328
      pz      :     0.014216  p :     0.044011
      px      :     0.019570
      py      :     0.010225

 38 H s       :     0.897552  s :     0.897552
      pz      :     0.010138  p :     0.044066
      px      :     0.011023
      py      :     0.022905



                     *******************************
                     * LOEWDIN POPULATION ANALYSIS *
                     *******************************

----------------------
LOEWDIN ATOMIC CHARGES
----------------------
   0 C :   -0.116271
   1 C :   -0.088798
   2 C :   -0.114725
   3 C :   -0.026280
   4 C :   -0.037085
   5 C :   -0.066230
   6 C :   -0.059657
   7 C :   -0.068345
   8 C :   -0.080891
   9 C :   -0.103578
  10 C :   -0.023423
  11 C :   -0.071992
  12 C :   -0.036421
  13 C :   -0.073580
  14 C :   -0.118119
  15 H :    0.049400
  16 H :    0.044421
  17 H :    0.047050
  18 H :    0.055620
  19 H :    0.042247
  20 H :    0.048670
  21 H :    0.047219
  22 H :    0.037072
  23 H :    0.052680
  24 H :    0.049066
  25 H :    0.047041
  26 H :    0.048807
  27 H :    0.052703
  28 H :    0.047289
  29 H :    0.047103
  30 H :    0.047642
  31 H :    0.039666
  32 H :    0.029383
  33 H :    0.035129
  34 H :    0.032703
  35 H :    0.027835
  36 H :    0.046696
  37 H :    0.053670
  38 H :    0.056284

-------------------------------
LOEWDIN REDUCED ORBITAL CHARGES
-------------------------------
  0 C s       :     0.779369  s :     0.779369
      pz      :     1.055788  p :     3.092991
      px      :     1.033458
      py      :     1.003745
      dz2     :     0.054302  d :     0.243911
      dxz     :     0.013719
      dyz     :     0.067441
      dx2y2   :     0.073194
      dxy     :     0.035254

  1 C s       :     0.754870  s :     0.754870
      pz      :     0.984609  p :     2.944012
      px      :     0.962552
      py      :     0.996851
      dz2     :     0.072975  d :     0.389916
      dxz     :     0.069644
      dyz     :     0.091193
      dx2y2   :     0.083017
      dxy     :     0.073087

  2 C s       :     0.780080  s :     0.780080
      pz      :     0.979236  p :     3.089796
[...]
 81:   1509.23   0.001234    6.24  0.000255  (-0.013158 -0.008661  0.002660)
 82:   1515.81   0.000200    1.01  0.000041  ( 0.000330  0.003046  0.005632)
 83:   1519.87   0.001616    8.17  0.000332  (-0.003622  0.005535  0.016971)
 84:   1523.19   0.001276    6.45  0.000261  ( 0.006374 -0.008172 -0.012407)
 85:   1529.95   0.001596    8.06  0.000326  ( 0.008757  0.012422 -0.009722)
 86:   1532.67   0.002081   10.52  0.000424  (-0.002819  0.003265 -0.020128)
 87:   1533.74   0.002309   11.67  0.000470  ( 0.004465  0.021204  0.000445)
 88:   1538.34   0.004157   21.01  0.000843  ( 0.005479  0.022606 -0.017382)
 89:   1540.43   0.002318   11.72  0.000470  ( 0.021138  0.004728  0.000706)
 90:   1762.12   0.002537   12.82  0.000449  (-0.003940  0.019696  0.006766)
 91:   1770.36   0.003556   17.97  0.000627  ( 0.006918  0.007299  0.022929)
 92:   1796.52   0.000505    2.55  0.000088  (-0.003389  0.005133 -0.007068)
 93:   3077.71   0.005318   26.88  0.000539  (-0.007933  0.007027 -0.020663)
 94:   3095.16   0.005715   28.88  0.000576  (-0.003166  0.014572  0.018811)
 95:   3095.72   0.004500   22.74  0.000454  (-0.021173  0.002100  0.000947)
 96:   3097.43   0.001782    9.01  0.000180  (-0.008307  0.007601 -0.007265)
 97:   3102.20   0.004525   22.87  0.000455  (-0.014768  0.012107 -0.009513)
 98:   3102.37   0.009534   48.18  0.000959  (-0.021104  0.017344 -0.014587)
 99:   3104.26   0.006573   33.22  0.000661  (-0.024958 -0.005957  0.001550)
100:   3113.37   0.006238   31.52  0.000625  (-0.006857 -0.017605  0.016379)
101:   3144.46   0.001826    9.23  0.000181  ( 0.000487  0.003276 -0.013049)
102:   3161.48   0.003774   19.07  0.000373  ( 0.001139  0.015429  0.011543)
103:   3183.69   0.000129    0.65  0.000013  (-0.002921  0.001196  0.001646)
104:   3184.01   0.002581   13.04  0.000253  (-0.011639 -0.005914  0.009082)
105:   3186.64   0.008702   43.98  0.000852  ( 0.026187  0.011109 -0.006560)
106:   3188.83   0.002255   11.40  0.000221  (-0.004802  0.011706 -0.007782)
107:   3191.43   0.001955    9.88  0.000191  ( 0.003856  0.006198  0.011743)
108:   3193.11   0.005216   26.36  0.000510  (-0.009032  0.017775 -0.010596)
109:   3196.02   0.003665   18.52  0.000358  (-0.000898 -0.012944 -0.013766)
110:   3198.32   0.002766   13.98  0.000270  ( 0.001398 -0.012088  0.011035)
111:   3209.77   0.000470    2.38  0.000046  ( 0.002156 -0.001213 -0.006293)
112:   3210.60   0.003855   19.48  0.000375  ( 0.011410  0.013093 -0.008551)
113:   3212.29   0.003582   18.10  0.000348  ( 0.000886  0.013846  0.012469)
114:   3215.12   0.000900    4.55  0.000087  ( 0.000473 -0.005331 -0.007660)
115:   3303.32   0.001024    5.17  0.000097  (-0.000801  0.000075  0.009802)
116:   3305.60   0.001091    5.51  0.000103  (-0.006197  0.007846  0.001740)

* The epsilon (eps) is given for a Dirac delta lineshape.
** The dipole moment derivative (T) already includes vibrational overlap.

The first frequency considered to be a vibration is 6
The total number of vibrations considered is 111


--------------------------
THERMOCHEMISTRY AT 298.15K
--------------------------

Temperature         ...   298.15 K
Pressure            ...     1.00 atm
Total Mass          ...   204.36 AMU
Quasi RRHO          ...     True
Cut-Off Frequency   ...     1.00 cm^-1

Throughout the following assumptions are being made:
  (1) The electronic state is orbitally nondegenerate
  (2) There are no thermally accessible electronically excited states
  (3) Hindered rotations indicated by low frequency modes are not
      treated as such but are treated as vibrations and this may
      cause some error
  (4) All equations used are the standard statistical mechanics
      equations for an ideal gas
  (5) All vibrations are strictly harmonic

freq.      37.16  E(vib)   ...       0.54 
freq.      59.64  E(vib)   ...       0.51 
freq.      88.03  E(vib)   ...       0.48 
freq.      93.15  E(vib)   ...       0.47 
freq.     103.31  E(vib)   ...       0.46 
freq.     164.02  E(vib)   ...       0.39 
freq.     177.53  E(vib)   ...       0.37 
freq.     185.89  E(vib)   ...       0.37 
freq.     210.21  E(vib)   ...       0.34 
freq.     217.45  E(vib)   ...       0.34 
freq.     247.06  E(vib)   ...       0.31 
freq.     262.06  E(vib)   ...       0.29 
freq.     282.82  E(vib)   ...       0.28 
freq.     298.28  E(vib)   ...       0.27 
freq.     312.37  E(vib)   ...       0.25 
freq.     332.78  E(vib)   ...       0.24 
freq.     339.94  E(vib)   ...       0.23 
freq.     341.78  E(vib)   ...       0.23 
freq.     382.32  E(vib)   ...       0.21 
freq.     393.02  E(vib)   ...       0.20 
freq.     433.81  E(vib)   ...       0.17 
freq.     463.45  E(vib)   ...       0.16 
freq.     507.06  E(vib)   ...       0.14 
freq.     531.12  E(vib)   ...       0.13 
freq.     554.56  E(vib)   ...       0.12 
freq.     591.70  E(vib)   ...       0.10 
freq.     624.45  E(vib)   ...       0.09 
freq.     674.80  E(vib)   ...       0.08 
freq.     716.93  E(vib)   ...       0.07 
freq.     735.78  E(vib)   ...       0.06 
freq.     776.98  E(vib)   ...       0.05 
freq.     799.00  E(vib)   ...       0.05 
freq.     868.73  E(vib)   ...       0.04 
freq.     914.33  E(vib)   ...       0.03 
freq.     926.88  E(vib)   ...       0.03 
freq.     947.40  E(vib)   ...       0.03 
freq.     950.03  E(vib)   ...       0.03 
freq.     953.00  E(vib)   ...       0.03 
freq.     957.30  E(vib)   ...       0.03 
freq.     962.22  E(vib)   ...       0.03 
freq.     974.61  E(vib)   ...       0.03 
freq.     993.08  E(vib)   ...       0.02 
freq.    1023.90  E(vib)   ...       0.02 
freq.    1036.66  E(vib)   ...       0.02 
freq.    1044.11  E(vib)   ...       0.02 
freq.    1051.21  E(vib)   ...       0.02 
freq.    1054.15  E(vib)   ...       0.02 
freq.    1088.87  E(vib)   ...       0.02 
freq.    1091.17  E(vib)   ...       0.02 
freq.    1102.46  E(vib)   ...       0.02 
freq.    1114.32  E(vib)   ...       0.01 
freq.    1162.33  E(vib)   ...       0.01 
freq.    1176.35  E(vib)   ...       0.01 
freq.    1187.71  E(vib)   ...       0.01 
freq.    1205.27  E(vib)   ...       0.01 
freq.    1254.95  E(vib)   ...       0.01 
freq.    1272.60  E(vib)   ...       0.01 
freq.    1276.25  E(vib)   ...       0.01 
freq.    1292.39  E(vib)   ...       0.01 
freq.    1321.29  E(vib)   ...       0.01 
freq.    1355.29  E(vib)   ...       0.01 
freq.    1366.42  E(vib)   ...       0.01 
freq.    1378.22  E(vib)   ...       0.01 
freq.    1384.96  E(vib)   ...       0.00 
freq.    1408.83  E(vib)   ...       0.00 
freq.    1413.01  E(vib)   ...       0.00 
freq.    1425.36  E(vib)   ...       0.00 
freq.    1432.31  E(vib)   ...       0.00 
freq.    1436.49  E(vib)   ...       0.00 
freq.    1439.74  E(vib)   ...       0.00 
freq.    1449.40  E(vib)   ...       0.00 
freq.    1459.42  E(vib)   ...       0.00 
freq.    1472.69  E(vib)   ...       0.00 
freq.    1473.12  E(vib)   ...       0.00 
freq.    1502.98  E(vib)   ...       0.00 
freq.    1509.23  E(vib)   ...       0.00 
freq.    1515.81  E(vib)   ...       0.00 
freq.    1519.87  E(vib)   ...       0.00 
freq.    1523.19  E(vib)   ...       0.00 
freq.    1529.95  E(vib)   ...       0.00 
freq.    1532.67  E(vib)   ...       0.00 
freq.    1533.74  E(vib)   ...       0.00 
freq.    1538.34  E(vib)   ...       0.00 
freq.    1540.43  E(vib)   ...       0.00 
freq.    1762.12  E(vib)   ...       0.00 
freq.    1770.36  E(vib)   ...       0.00 
freq.    1796.52  E(vib)   ...       0.00 
freq.    3077.71  E(vib)   ...       0.00 
freq.    3095.16  E(vib)   ...       0.00 
freq.    3095.72  E(vib)   ...       0.00 
freq.    3097.43  E(vib)   ...       0.00 
freq.    3102.20  E(vib)   ...       0.00 
freq.    3102.37  E(vib)   ...       0.00 
freq.    3104.26  E(vib)   ...       0.00 
freq.    3113.37  E(vib)   ...       0.00 
freq.    3144.46  E(vib)   ...       0.00 
freq.    3161.48  E(vib)   ...       0.00 
freq.    3183.69  E(vib)   ...       0.00 
freq.    3184.01  E(vib)   ...       0.00 
freq.    3186.64  E(vib)   ...       0.00 
freq.    3188.83  E(vib)   ...       0.00 
freq.    3191.43  E(vib)   ...       0.00 
freq.    3193.11  E(vib)   ...       0.00 
freq.    3196.02  E(vib)   ...       0.00 
freq.    3198.32  E(vib)   ...       0.00 
freq.    3209.77  E(vib)   ...       0.00 
freq.    3210.60  E(vib)   ...       0.00 
freq.    3212.29  E(vib)   ...       0.00 
freq.    3215.12  E(vib)   ...       0.00 
freq.    3303.32  E(vib)   ...       0.00 
freq.    3305.60  E(vib)   ...       0.00 

------------
INNER ENERGY
------------

The inner energy is: U= E(el) + E(ZPE) + E(vib) + E(rot) + E(trans)
    E(el)   - is the total energy from the electronic structure calculation
              = E(kin-el) + E(nuc-el) + E(el-el) + E(nuc-nuc)
    E(ZPE)  - the the zero temperature vibrational energy from the frequency calculation
    E(vib)  - the the finite temperature correction to E(ZPE) due to population
              of excited vibrational states
    E(rot)  - is the rotational thermal energy
    E(trans)- is the translational thermal energy

Summary of contributions to the inner energy U:
Electronic energy                ...    -99.90309618 Eh
Zero point energy                ...      0.36151200 Eh     226.85 kcal/mol
Thermal vibrational correction   ...      0.01372171 Eh       8.61 kcal/mol
Thermal rotational correction    ...      0.00141627 Eh       0.89 kcal/mol
Thermal translational correction ...      0.00141627 Eh       0.89 kcal/mol
-----------------------------------------------------------------------
Total thermal energy                    -99.52502992 Eh


Summary of corrections to the electronic energy:
(perhaps to be used in another calculation)
Total thermal correction                  0.01655425 Eh      10.39 kcal/mol
Non-thermal (ZPE) correction              0.36151200 Eh     226.85 kcal/mol
-----------------------------------------------------------------------
Total correction                          0.37806626 Eh     237.24 kcal/mol


--------
ENTHALPY
--------

The enthalpy is H = U + kB*T
                kB is Boltzmann's constant
Total thermal energy              ...    -99.52502992 Eh 
Thermal Enthalpy correction       ...      0.00094421 Eh       0.59 kcal/mol
-----------------------------------------------------------------------
Total Enthalpy                    ...    -99.52408571 Eh


Note: Only C1 symmetry has been detected, increase convergence thresholds 
      if your molecule has a higher symmetry. Symmetry factor of 1.0 is   
      used for the rotational entropy correction. 
 

Note: Rotational entropy computed according to Herzberg 
Infrared and Raman Spectra, Chapter V,1, Van Nostrand Reinhold, 1945 
Point Group:  C1, Symmetry Number:   1  
Rotational constants in cm-1:     0.026975     0.016077     0.011906 

Vibrational entropy computed according to the QRRHO of S. Grimme
Chem.Eur.J. 2012 18 9955 using a reference frequency of 100.0 cm-1


-------
ENTROPY
-------

The entropy contributions are T*S = T*(S(el)+S(vib)+S(rot)+S(trans))
     S(el)   - electronic entropy
     S(vib)  - vibrational entropy
     S(rot)  - rotational entropy
     S(trans)- translational entropy
The entropies will be listed as multiplied by the temperature to get
units of energy

Electronic entropy                ...      0.00000000 Eh      0.00 kcal/mol
Vibrational entropy               ...      0.02354763 Eh     14.78 kcal/mol
Rotational entropy                ...      0.01525802 Eh      9.57 kcal/mol
Translational entropy             ...      0.01988345 Eh     12.48 kcal/mol
-----------------------------------------------------------------------
Final entropy term                ...      0.05868911 Eh     36.83 kcal/mol

In case the symmetry of your molecule has not been determined correctly
or in case you have a reason to use a different symmetry number we print 
out the resulting rotational entropy values for sn=1,12:

 non-linear molecules -----------------------------------
|  sn= 1 | S(rot)=       0.01525802 Eh      9.57 kcal/mol|
|  sn= 2 | S(rot)=       0.01460357 Eh      9.16 kcal/mol|
|  sn= 3 | S(rot)=       0.01422074 Eh      8.92 kcal/mol|
|  sn= 4 | S(rot)=       0.01394911 Eh      8.75 kcal/mol|
|  sn= 5 | S(rot)=       0.01373842 Eh      8.62 kcal/mol|
|  sn= 6 | S(rot)=       0.01356628 Eh      8.51 kcal/mol|
|  sn= 7 | S(rot)=       0.01342073 Eh      8.42 kcal/mol|
|  sn= 8 | S(rot)=       0.01329466 Eh      8.34 kcal/mol|
|  sn= 9 | S(rot)=       0.01318345 Eh      8.27 kcal/mol|
|  sn=10 | S(rot)=       0.01308397 Eh      8.21 kcal/mol|
|  sn=11 | S(rot)=       0.01299398 Eh      8.15 kcal/mol|
|  sn=12 | S(rot)=       0.01291182 Eh      8.10 kcal/mol|
 linear molecules ---------------------------------------
|  Dinfh | S(rot)=       0.00950921 Eh      5.97 kcal/mol|
|  Cinfv | S(rot)=       0.01016366 Eh      6.38 kcal/mol|
 --------------------------------------------------------


-------------------
GIBBS FREE ENERGY
-------------------

The Gibbs free energy is G = H - T*S

Total enthalpy                    ...    -99.52408571 Eh 
Total entropy correction          ...     -0.05868911 Eh    -36.83 kcal/mol
-----------------------------------------------------------------------
Final Gibbs free energy         ...    -99.58277482 Eh

For completeness - the Gibbs free energy minus the electronic energy
G-E(el)                           ...      0.32032136 Eh    201.00 kcal/mol


Maximum memory used throughout the entire PROP-calculation: 241.2 MB

--------------------------------
SUGGESTED CITATIONS FOR THIS RUN
--------------------------------

Below you find a list of papers that are relevant to this ORCA run
We neither can nor want to force you to cite these papers, but we appreciate if you do
You receive ORCA, which is the product of decades of hard work by many enthusiastic individuals, for free
The only thing we kindly ask in return is that you cite our papers,
We deeply appreciate it, if you show your appreciation for ORCA by not just citing the generic ORCA reference.

Please note that relegating all ORCA citations to the supporting information does *not* help us.
SI sections are not indexed - citations you put there will not count into any citation statistics
But we need these citations in order to attract the funding resources that allow us to do what we are doing

Therefore, if you are a happy ORCA user, please consider citing a few of the papers listed below in the main body of your paper

In addition to the list printed below, the program has created the file ./output/delta_elemene/delta_elemene.bibtex that contains the list in bibtex format
You can import this file easily into all common literature databanks and citation aid programs


List of essential papers. We consider these as the minimum necessary citations

  1. Neese,F.
     Software update: the ORCA program system, version 5.0
     WIRES Comput. Molec. Sci., 2022 12(1)e1606
     doi.org/10.1002/wcms.1606
  2. Mueller,M.; Hansen,A.; Grimme,S.
     wB97X-3c: A composite range-separated hybrid DFT method with a molecule-optimized polarized valence double-zeta basis set
     J. Chem. Phys., 2023 158 014103
     doi.org/10.1063/5.0133026

List of papers to cite with high priority. The work reported in these papers was absolutely
necessary for this run to complete.
Our perspective: the developers of density functionals and basis sets usually get cited in chemistry papers
Good! But without the algorithms to do something with them, the functionals or basis sets would not do anything.
Hence, in our opinion, the algorithm design and method developments papers are equally worthy of getting cited

  1. Neese,F.
     An improvement of the resolution of the identity approximation for the formation of the Coulomb matrix
     J. Comp. Chem., 2003 24(14)1740-1747
     doi.org/10.1002/jcc.10318
  2. Neese,F.; Wennmohs,F.; Hansen,A.; Becker,U.
     Efficient, approximate and parallel Hartree-Fock and hybrid DFT calculations. A 'chain-of-spheres' algorithm for the Hartree-Fock exchange
     Chem. Phys., 2009 356(1-3)98-109
     doi.org/10.1016/j.chemphys.2008.10.036
  3. Bykov,D.; Petrenko,T.; Izsak,R.; Kossmann,S.; Becker,U.; Valeev,E.; Neese,F.
     Efficient implementation of the analytic second derivatives of Hartree-Fock and hybrid DFT energies: a detailed analysis of different approximations
     Molec. Phys., 2015 113 1961-1977
     doi.org/10.1080/00268976.2015.1025114
  4. Helmich-Paris,B.; de Souza,B.; Neese,F.; Izsák,R.
     An improved chain of spheres for exchange algorithm
     J. Chem. Phys., 2021 155 104109
     doi.org/doi: 10.1063/5.0058766.
  5. Neese,F.
     The SHARK Integral Generation and Digestion System
     J. Comp. Chem., 2022  1-16
     doi.org/10.1002/jcc.26942
  6. Caldeweyher,E.; Bannwarth,C.; Grimme,S.
     Extension of the D3 dispersion coefficient model
     J. Chem. Phys., 2017 147 034112
     doi.org/10.1063/1.4993215
  7. Caldeweyher,E.; Ehlert,S.; Hansen,A.; Neugebauer,H.; Spicher,S.; Bannwarth,C.; Grimme,S.
     A generally applicable atomic-charge dependent London dispersion correction
     J. Chem. Phys., 2019 150 154122
     doi.org/10.1063/1.5090222
  8. Caldeweyher,E.; Mewes,J.; Ehlert,S.; Grimme,S.
     Extension and evaluation of the D4 London-dispersion model for periodic systems
     Phys. Chem. Chem. Phys., 2020 22(16)8499-8512
     doi.org/10.1039/D0CP00502A
  9. Wittmann,L.; Gordiy,I.; Friede,M.; Helmich-Paris,B.; Grimme,S.; Hansen,A.; Bursch,M.
     Extension of the D3 and D4 London Dispersion Corrections to the full Actinides Series
     Phys. Chem. Chem. Phys., 2024 26(32)21379-21394
     doi.org/https://doi.org/10.1039/D4CP01514B 

List of suggested additional citations. These are papers that are important in the 'surrounding' of 
of this run, or papers that preceded the highly important papers. If you like your results we are grateful for a citation.

  1. Izsak,R.; Neese,F.
     An overlap fitted chain of spheres exchange method
     J. Chem. Phys., 2011 135 144105
     doi.org/10.1063/1.3646921
  2. Izsak,R.; Hansen,A.; Neese,F.
     The resolution of identity and chain of spheres approximations for the LPNO-CCSD singles Fock term
     Molec. Phys., 2012 110 2413-2417
     doi.org/10.1080/00268976.2012.687466
  3. Neese,F.
     The ORCA program system
     WIRES Comput. Molec. Sci., 2012 2(1)73-78
     doi.org/10.1002/wcms.81
  4. Izsak,R.; Neese,F.; Klopper,W.
     Robust fitting techniques in the chain of spheres approximation to the Fock exchange: The role of the complementary space
     J. Chem. Phys., 2013 139 
     doi.org/10.1063/1.4819264
  5. Neese,F.
     Software update: the ORCA program system, version 4.0
     WIRES Comput. Molec. Sci., 2018 8(1)1-6
     doi.org/10.1002/wcms.1327
  6. Neese,F.; Wennmohs,F.; Becker,U.; Riplinger,C.
     The ORCA quantum chemistry program package
     J. Chem. Phys., 2020 152 Art. No. L224108
     doi.org/10.1063/5.0004608

List of optional additional citations

  1. Neese,F.
     Approximate second-order SCF convergence for spin unrestricted wavefunctions
     Chem. Phys. Lett., 2000 325(1-3)93-98
     doi.org/10.1016/s0009-2614(00)00662-x

Timings for individual modules:

Sum of individual times          ...     2655.415 sec (=  44.257 min)
Startup calculation              ...      119.668 sec (=   1.994 min)   4.5 %
SCF iterations                   ...     1718.348 sec (=  28.639 min)  64.7 %
Property integrals               ...      146.291 sec (=   2.438 min)   5.5 %
SCF Response                     ...       89.749 sec (=   1.496 min)   3.4 %
Property calculations            ...      206.469 sec (=   3.441 min)   7.8 %
SCF Gradient evaluation          ...      374.149 sec (=   6.236 min)  14.1 %
Geometry relaxation              ...        0.739 sec (=   0.012 min)   0.0 %
                             ****ORCA TERMINATED NORMALLY****
TOTAL RUN TIME: 0 days 0 hours 44 minutes 26 seconds 715 msec
