
                                 *****************
                                 * O   R   C   A *
                                 *****************

                                            #,                                       
                                            ###                                      
                                            ####                                     
                                            #####                                    
                                            ######                                   
                                           ########,                                 
                                     ,,################,,,,,                         
                               ,,#################################,,                 
                          ,,##########################################,,             
                       ,#########################################, ''#####,          
                    ,#############################################,,   '####,        
                  ,##################################################,,,,####,       
                ,###########''''           ''''###############################       
              ,#####''   ,,,,##########,,,,          '''####'''          '####       
            ,##' ,,,,###########################,,,                        '##       
           ' ,,###''''                  '''############,,,                           
         ,,##''                                '''############,,,,        ,,,,,,###''
      ,#''                                            '''#######################'''  
     '                                                          ''''####''''         
             ,#######,   #######,   ,#######,      ##                                
            ,#'     '#,  ##    ##  ,#'     '#,    #''#        ,####,   ,####,        
            ##       ##  ##   ,#'  ##            #'  '#       #'       #'  '#        
            ##       ##  #######   ##           ,######,      #####,   #    #        
            '#,     ,#'  ##    ##  '#,     ,#' ,#      #,     #,   #   #,  ,#        
             '#######'   ##     ##  '#######'  #'      '#     '####' # '####'        



                #########################################################
                #                        -***-                          #
                #          Department of theory and spectroscopy        #
                #                                                       #
                #                      Frank Neese                      #
                #                                                       #
                #     Directorship, Architecture, Infrastructure        #
                #                    SHARK, DRIVERS                     #
                #        Core code/Algorithms in most modules           #
                #                                                       #
                #        Max Planck Institute fuer Kohlenforschung      #
                #                Kaiser Wilhelm Platz 1                 #
                #                 D-45470 Muelheim/Ruhr                 #
                #                      Germany                          #
                #                                                       #
                #                  All rights reserved                  #
                #                        -***-                          #
                #########################################################


                         Program Version 6.0.1  -  RELEASE   -


 With contributions from (in alphabetic order):
[Max-Planck-Institut fuer Kohlenforschung]                               
  Daniel Aravena         : Magnetic Suceptibility                        
  Michael Atanasov       : Ab Initio Ligand Field Theory (pilot matlab implementation)
  Alexander A. Auer      : GIAO ZORA, VPT2 properties, NMR spectrum      
  Ute Becker             : All parallelization in ORCA, NUMFREQ, NUMCALC 
  Giovanni Bistoni       : ED, misc. LED, open-shell LED, HFLD           
  Martin Brehm           : Molecular dynamics                            
  Dmytro Bykov           : pre 5.0 version of the SCF Hessian            
  Marcos Casanova-Páez   : Triplet and SCS-CIS(D). UHF-(DLPNO)-IP/EA/STEOM-CCSD. UHF-CVS-IP/STEOM-CCSD   
  Vijay G. Chilkuri      : MRCI spin determinant printing, contributions to CSF-ICE 
  Pauline Colinet        : FMM embedding                                 
  Dipayan Datta          : RHF DLPNO-CCSD density                        
  Achintya Kumar Dutta   : EOM-CC, STEOM-CC                              
  Nicolas Foglia         : Exact transition moments, OPA infrastructure, MCD improvements    
  Dmitry Ganyushin       : Spin-Orbit,Spin-Spin,Magnetic field MRCI      
  Miquel Garcia-Rates    : C-PCM and meta-GGA Hessian, CCSD/C-PCM, Gaussian charge scheme 
  Tiago L. C. Gouveia    : GS-ROHF, GS-ROCIS                             
  Yang Guo               : DLPNO-NEVPT2, F12-NEVPT2, CIM, IAO-localization        
  Andreas Hansen         : Spin unrestricted coupled pair/coupled cluster methods 
  Ingolf Harden          : AUTO-CI MPn and infrastructure                
  Benjamin Helmich-Paris : MC-RPA, TRAH-(SCF,CASSCF), AVAS, COSX integrals, SCF dyn. polar. 
  Lee Huntington         : MR-EOM, pCC                                   
  Robert Izsak           : Overlap fitted RIJCOSX, COSX-SCS-MP3, EOM     
  Riya Kayal             : Wick's Theorem for AUTO-CI, AUTO-CI UHF-CCSDT 
  Emily Kempfer          : AUTO-CI, RHF CISDT and CCSDT                  
  Christian Kollmar      : KDIIS, OOCD, Brueckner-CCSD(T), CCSD density, CASPT2, CASPT2-K, improved NEVPT2 
  Axel Koslowski         : Symmetry handling                             
  Simone Kossmann        : meta-GGA functionals, TD-DFT gradient, OOMP2, (MP2 Hessian; deprecated post 5.0) 
  Lucas Lang             : DCDCAS                                        
  Marvin Lechner         : AUTO-CI (C++ implementation), FIC-MRCC        
  Spencer Leger          : CASSCF response                               
  Dagmar Lenk            : GEPOL surface, SMD, ORCA-2-JSON               
  Dimitrios Liakos       : Extrapolation schemes; Compound Job, initial MDCI parallelization 
  Dimitrios Manganas     : Further ROCIS development; embedding schemes. LFT, Crystal Embedding 
  Dimitrios Pantazis     : SARC Basis sets                               
  Anastasios Papadopoulos: AUTO-CI, single reference methods and gradients 
  Taras Petrenko         : pre 6.0 DFT Hessian and TD-DFT gradient, (ASA, deprecated), ECA, 1-Electron XAS/XES, NRVS 
  Peter Pinski           : DLPNO-MP2, DLPNO-MP2 Gradient                 
  Christoph Reimann      : Effective Core Potentials                     
  Marius Retegan         : Local ZFS, SOC                                
  Christoph Riplinger    : Optimizer, TS searches, QM/MM, DLPNO-CCSD(T), (RO)-DLPNO pert. Triples 
  Michael Roemelt        : Original ROCIS implementation                 
  Masaaki Saitow         : Open-shell DLPNO-CCSD energy and density      
  Barbara Sandhoefer     : DKH picture change effects                    
  Kantharuban Sivalingam : CASSCF convergence/infrastructure, NEVPT2 and variants, FIC-MRCI 
  Bernardo de Souza      : ESD, SOC TD-DFT                               
  Georgi L. Stoychev     : AutoAux, RI-MP2 NMR, DLPNO-MP2 response, X2C  
  Van Anh Tran           : RI-MP2 g-tensors                              
  Willem Van den Heuvel  : Paramagnetic NMR                              
  Zikuan Wang            : NOTCH, Electric field optimization            
  Frank Wennmohs         : Technical directorship and infrastructure     
  Hang Xu                : AUTO-CI-Response properties                   
                                                                         
[FACCTs GmbH]                                                            
  Markus Bursch, Miquel Garcia-Rates, Christoph Riplinger, Bernardo de Souza, Georgi L. Stoychev 
                                                                 
  APM, Basis sets (HGBS, AHGBS, def-TZVP (Ac-Lr), def2-XVPD (La-Lu)), CI-OPT, improved COSX, DLPNO-Multilevel,           
  DOCKER, DRACO, updates on ESD, GOAT, IRC, LR-CPCM, MBIS, meta-GGA TD-DFT gradient, ML-optimized integration grids, 
  MM, NACMEs, nearIR, NEB, NEB-TS, NL-DFT gradient (VV10), 2- and 3-layer-ONIOM, interface openCOSMO-RS, QMMM,   
  Crystal-QMMM, SF, symmetry and pop. for TD-DFT, r2SCAN hybrids, SOLVATOR                                   
                                                                         
[Other institutions]                                                     
  V. Asgeirsson          : NEB                                           
  Christoph Bannwarth    : sTDA-DFT, sTD-DFT, PBEh-3c, B97-3c, D3        
  Sebastian Ehlert       : rSCAN, r2SCAN, r2SCAN-3c, D4, dhf basis sets  
  Marvin Friede          : D4 for Fr, Ra, Ac-Lr                          
  Lars Goerigk           : TD-DFT with DH, B97 family of functionals     
  Stefan Grimme          : VdW corrections, initial TS optimization, DFT functionals, gCP, sTDA/sTD-DF 
  Waldemar Hujo          : DFT-NL                                        
  H. Jonsson             : NEB                                           
  Holger Kruse           : gCP                                           
  Marcel Mueller         : wB97X-3c, vDZP basis set                      
  Hagen Neugebauer       : wr2SCAN                                       
  Tobias Risthaus        : range-separated hybrid DFT                    
  Lukas Wittmann         : regularized MP2, r2SCAN double-hybrids, wr2SCAN        
                                                                         
We gratefully acknowledge several colleagues who have allowed us to      
interface, adapt or use parts of their codes:                            
  Ed Valeev, F. Pavosevic, A. Kumar             : LibInt (2-el integral package), F12 methods 
  Garnet Chan, S. Sharma, J. Yang, R. Olivares  : DMRG                   
  Ulf Ekstrom                                   : XCFun DFT Library      
  Mihaly Kallay                                 : mrcc  (arbitrary order and MRCC methods)
  Frank Weinhold                                : gennbo (NPA and NBO analysis)           
  Simon Mueller                                 : openCOSMO-RS                            
  Christopher J. Cramer and Donald G. Truhlar   : smd solvation model                     
  S Lehtola, MJT Oliveira, MAL Marques          : LibXC Library                           
  Liviu Ungur et al                             : ANISO software                          


 Your calculation uses the libint2 library for the computation of 2-el integrals
 For citations please refer to: http://libint.valeyev.net

 Your ORCA version has been built with support for libXC version: 6.2.2
 For citations please refer to: https://libxc.gitlab.io

 This ORCA versions uses:
   CBLAS   interface :  Fast vector & matrix operations
   LAPACKE interface :  Fast linear algebra routines
   SCALAPACK package :  Parallel linear algebra routines
   Shared memory     :  Shared parallel matrices
   BLAS/LAPACK       :  OpenBLAS 0.3.27  USE64BITINT DYNAMIC_ARCH NO_AFFINITY SkylakeX SINGLE_THREADED
        Core in use  :  SkylakeX
   Copyright (c) 2011-2014, The OpenBLAS Project


Your calculation utilizes the atom-pairwise dispersion correction
based on EEQ partial charges (D4)


================================================================================

cite the ECPs for C  [vDZP-ECP] as follows:
   B-Ne (ecp-2-mwb), Al-Ar (ecp-10-mwb), Ga-Kr (ecp-28-mwb), Y-Cd (ecp-28-mwb), In-Xe (ecp-46-mwb):
     A. Bergner, M. Dolg, W. Küchle, H. Stoll, and H. Preuß, Mol. Phys. 80, 1431 (1993)., T. Leininger, A. Berning, A. Nicklass, H. Stoll, H.-J. Werner, and H.-J.Flad, Chem. Phys. 217, 19 (1997).
   Na-Mg, K-Ca, Rb-Sr, Cs-Ba (CRENBL):
     L. Fernandez Pacios and P. A. Christiansen, J. Chem. Phys. 82, 2664 (1985)., M. M. Hurley, L. F. Pacios, P. A. Christiansen, R. B. Ross, and W. C. Ermler, J. Chem. Phys. 84, 6840 (1986)., L. A. LaJohn, P. A. Christiansen, R. B. Ross, T. Atashroo, and W. C. Ermler, J. Chem. Phys. 87, 2812 (1987)., R. B. Ross, J. M. Powers, T. Atashroo, W. C. Ermler, L. A. LaJohn, and P. A. Christiansen, J. Chem. Phys. 93, 6654 (1990). 
   Sc-Zn (ecp-10-mdf):
     M. Dolg, U. Wedig, H. Stoll, and H. Preuss, J. Chem. Phys. 86, 866 (1986). 
   Y-Cd (ecp-28-mwb), Hf-Hg (ecp-60-mwb):
     D. Andrae, U. Häußermann, M. Dolg, H. Stoll, and H. Preuß, Theor. Chim. Acta 77, 123 (1990). 
   La (ecp-46-mwb):
     M. Dolg, H. Stoll, and H. Preuss, J. Chem. Phys. 90, 1730 (1989)., M. Dolg, H. Stoll, and H. Preuss, Theor. Chim. Acta 85, 441 (1993).
   Ce-Lu (SBKJC-ecp):
     T. R. Cundari and W. J. Stevens, J. Chem. Phys. 98, 5555 (1993).
   Tl-Rn (ecp-78-mwb):
     W. Küchle, M. Dolg, H. Stoll, and H. Preuss, Mol. Phys. 74, 1245 (1991).

ECP parameters for C  [vDZP-ECP] have been obtained from:
MM, AH, SG, J. Chem. Phys. 158, 014103 (2023), 10.1063/5.0133026

----- Orbital basis set information -----
Your calculation utilizes the basis: vDZP
   Marcel Mueller, Andreas Hansen, Stefan Grimme 
   J. Chem. Phys. 158, 014103 (2023). DOI: 10.1063/5.0133026

----- AuxJ basis set information -----
Your calculation utilizes the auxiliary basis: def2/J
   F. Weigend, Phys. Chem. Chem. Phys. 8, 1057 (2006).

================================================================================
                                        WARNINGS
                       Please study these warnings very carefully!
================================================================================

WARNING: Frozen-Core approximation turned on, but there are no core electrons.
  ===> : Turning off frozen-core approximation


WARNING: Geometry Optimization
  ===> : Switching off AutoStart
         For restart on a previous wavefunction, please use MOREAD

================================================================================
                                       INPUT FILE
================================================================================
NAME = ./output/bicyclogermacrene/bicyclogermacrene.inp
|  1> ! wB97X-3c OPT FREQ TightSCF
|  2> %pal
|  3>   nprocs 40
|  4> end
|  5> * xyz 0 1
|  6> C      2.181313    -0.005247     1.544426
|  7> C      2.088756    -0.141415     0.043493
|  8> C      2.395479     0.888432    -0.780602
|  9> C      2.232445     2.334620    -0.391305
| 10> C      0.838870     2.833053    -0.817843
| 11> C     -0.260660     2.033653    -0.144277
| 12> C     -0.636210     0.837779    -0.667252
| 13> C     -1.474961    -0.144680     0.113259
| 14> C     -0.764231    -1.442558     0.577750
| 15> C     -1.921096    -1.489661    -0.455972
| 16> C     -3.271761    -1.984950     0.078937
| 17> C     -1.686380    -1.714853    -1.961377
| 18> C      0.511396    -2.199861     0.080889
| 19> C      1.695638    -1.460406    -0.583543
| 20> C     -0.833387     2.550204     1.155654
| 21> H      1.381902     0.660794     1.921947
| 22> H      3.171241     0.413110     1.823833
| 23> H      2.082054    -0.988451     2.046442
| 24> H      2.441534     0.707679    -1.851921
| 25> H      2.381150     2.498615     0.696583
| 26> H      3.004172     2.931285    -0.922392
| 27> H      0.748466     3.907978    -0.551425
| 28> H      0.734421     2.772519    -1.923961
| 29> H     -0.232438     0.548114    -1.629218
| 30> H     -2.170309     0.273526     0.872146
| 31> H     -1.095726    -1.767675     1.588102
| 32> H     -4.095549    -1.505207    -0.490253
| 33> H     -3.411471    -1.754808     1.157167
| 34> H     -3.338911    -3.085040    -0.053059
| 35> H     -2.370556    -1.060818    -2.541517
| 36> H     -1.916071    -2.771225    -2.213442
| 37> H     -0.653297    -1.517650    -2.290832
| 38> H      0.214766    -3.044641    -0.577342
| 39> H      0.924991    -2.711369     0.976320
| 40> H      1.466489    -1.329810    -1.660941
| 41> H      2.584261    -2.126982    -0.549305
| 42> H     -0.673703     1.817186     1.972857
| 43> H     -0.351207     3.503133     1.458430
| 44> H     -1.921423     2.735627     1.036121
| 45> *
| 46> 
| 47>                          ****END OF INPUT****
================================================================================

                       *****************************
                       * Geometry Optimization Run *
                       *****************************

Geometry optimization settings:
Update method            Update   .... BFGS
Choice of coordinates    CoordSys .... (2022) Redundant Internals
Initial Hessian          InHess   .... Almloef's Model
Max. no of cycles        MaxIter  .... 117

Convergence Tolerances:
Energy Change            TolE     ....  5.0000e-06 Eh
Max. Gradient            TolMAXG  ....  3.0000e-04 Eh/bohr
RMS Gradient             TolRMSG  ....  1.0000e-04 Eh/bohr
Max. Displacement        TolMAXD  ....  4.0000e-03 bohr
RMS Displacement         TolRMSD  ....  2.0000e-03 bohr
Strict Convergence                .... False

------------------------------------------------------------------------------
                        ORCA OPTIMIZATION COORDINATE SETUP
------------------------------------------------------------------------------

The optimization will be done in redundant internal coordinates (2022)
Making redundant internal coordinates   ...  (2022 redundants) done
Evaluating the initial hessian          ...  (Almloef) done
Evaluating the coordinates              ...  done
Calculating the B-matrix                .... done
Calculating the G-matrix                .... done
Diagonalizing the G-matrix              .... done
Small eigenvalue found = 1.501e-02
Small eigenvalue found = 1.952e-02
Small eigenvalue found = 2.986e-02
The first mode is                       ....   93
The number of degrees of freedom        ....  111

    -----------------------------------------------------------------
                    Redundant Internal Coordinates


    -----------------------------------------------------------------
         Definition                    Initial Value    Approx d2E/dq
    -----------------------------------------------------------------
      1. B(C   1,C   0)                  1.5099         0.402149   
      2. B(C   2,C   1)                  1.3542         0.712675   
      3. B(C   3,C   2)                  1.5065         0.407234   
      4. B(C   4,C   3)                  1.5403         0.359747   
      5. B(C   5,C   4)                  1.5171         0.391655   
      6. B(C   6,C   5)                  1.3582         0.702270   
      7. B(C   7,C   6)                  1.5093         0.403120   
      8. B(C   8,C   7)                  1.5509         0.345931   
      9. B(C   9,C   8)                  1.5521         0.344394   
     10. B(C   9,C   7)                  1.5271         0.377576   
     11. B(C  10,C   9)                  1.5348         0.366991   
     12. B(C  11,C   9)                  1.5401         0.359908   
     13. B(C  12,C   8)                  1.5645         0.329127   
     14. B(C  13,C  12)                  1.5462         0.352008   
     15. B(C  13,C   1)                  1.5124         0.398478   
     16. B(C  14,C   5)                  1.5115         0.399832   
     17. B(H  15,C   0)                  1.1069         0.338444   
     18. B(H  16,C   0)                  1.1104         0.334067   
     19. B(H  17,C   0)                  1.1084         0.336557   
     20. B(H  18,C   2)                  1.0874         0.363508   
     21. B(H  19,C   3)                  1.1102         0.334365   
     22. B(H  20,C   3)                  1.1107         0.333748   
     23. B(H  21,C   4)                  1.1111         0.333202   
     24. B(H  22,C   4)                  1.1127         0.331305   
     25. B(H  23,C   6)                  1.0827         0.369839   
     26. B(H  24,C   7)                  1.1110         0.333368   
     27. B(H  25,C   8)                  1.1119         0.332220   
     28. B(H  26,C  10)                  1.1103         0.334227   
     29. B(H  27,C  10)                  1.1113         0.332955   
     30. B(H  28,C  10)                  1.1100         0.334574   
     31. B(H  29,C  11)                  1.1101         0.334413   
     32. B(H  30,C  11)                  1.1101         0.334527   
     33. B(H  31,C  11)                  1.1021         0.344406   
     34. B(H  32,C  12)                  1.1113         0.333039   
     35. B(H  33,C  12)                  1.1111         0.333267   
     36. B(H  34,C  13)                  1.1092         0.335561   
     37. B(H  35,C  13)                  1.1114         0.332910   
     38. B(H  36,C  14)                  1.1093         0.335403   
     39. B(H  37,C  14)                  1.1101         0.334511   
     40. B(H  38,C  14)                  1.1102         0.334374   
     41. A(H  15,C   0,H  17)          108.3371         0.285003   
     42. A(C   1,C   0,H  15)          110.4278         0.324942   
     43. A(C   1,C   0,H  16)          109.8003         0.324248   
     44. A(C   1,C   0,H  17)          111.3911         0.324643   
     45. A(H  15,C   0,H  16)          109.3491         0.284674   
     46. A(H  16,C   0,H  17)          107.4616         0.284426   
     47. A(C   0,C   1,C  13)          120.4440         0.372071   
     48. A(C   0,C   1,C   2)          121.4976         0.411881   
     49. A(C   2,C   1,C  13)          118.0214         0.411212   
     50. A(C   3,C   2,H  18)          114.7541         0.329471   
     51. A(C   1,C   2,H  18)          118.8633         0.361944   
     52. A(C   1,C   2,C   3)          123.2487         0.412801   
     53. A(C   2,C   3,C   4)          109.6940         0.366383   
     54. A(C   4,C   3,H  19)          110.1666         0.318436   
     55. A(C   2,C   3,H  20)          108.4778         0.324867   
     56. A(C   4,C   3,H  20)          108.8076         0.318340   
     57. A(H  19,C   3,H  20)          107.2256         0.284096   
     58. A(C   2,C   3,H  19)          112.3663         0.324965   
     59. A(C   5,C   4,H  21)          110.1406         0.322707   
     60. A(H  21,C   4,H  22)          106.4602         0.283618   
     61. A(C   3,C   4,H  22)          110.0363         0.317959   
     62. A(C   3,C   4,H  21)          108.6793         0.318255   
     63. A(C   5,C   4,H  22)          110.1606         0.322405   
     64. A(C   3,C   4,C   5)          111.2391         0.363945   
     65. A(C   4,C   5,C  14)          118.4484         0.370598   
     66. A(C   4,C   5,C   6)          119.5637         0.408888   
     67. A(C   6,C   5,C  14)          121.8225         0.410388   
     68. A(C   5,C   6,C   7)          121.8496         0.410984   
     69. A(C   7,C   6,H  23)          119.5085         0.329859   
     70. A(C   5,C   6,H  23)          118.3301         0.362102   
     71. A(C   6,C   7,C   8)          116.4200         0.363304   
     72. A(C   9,C   7,H  24)          113.7847         0.320804   
     73. A(C   8,C   7,H  24)          113.4063         0.316257   
     74. A(C   6,C   7,H  24)          117.1312         0.324265   
     75. A(C   8,C   7,C   9)           60.5592         0.359270   
     76. A(C   6,C   7,C   9)          122.8815         0.368793   
     77. A(C  12,C   8,H  25)          112.9621         0.313535   
     78. A(C   9,C   8,H  25)          111.9674         0.315851   
     79. A(C   7,C   8,H  25)          112.3458         0.316080   
     80. A(C   7,C   8,C   9)           58.9608         0.353701   
     81. A(C   9,C   8,C  12)          112.4278         0.350735   
     82. A(C   7,C   8,C  12)          133.1269         0.350998   
     83. A(C   8,C   9,C  11)          122.8079         0.356085   
     84. A(C   7,C   9,C  11)          116.6539         0.361704   
     85. A(C   8,C   9,C  10)          115.6952         0.357265   
     86. A(C   7,C   9,C  10)          114.2924         0.362909   
     87. A(C   7,C   9,C   8)           60.4800         0.358998   
     88. A(C  10,C   9,C  11)          115.3140         0.359954   
     89. A(H  27,C  10,H  28)          108.2402         0.284018   
     90. A(C   9,C  10,H  28)          109.3662         0.319506   
     91. A(H  26,C  10,H  27)          108.3381         0.283972   
     92. A(C   9,C  10,H  27)          112.4534         0.319253   
     93. A(C   9,C  10,H  26)          109.5619         0.319452   
     94. A(H  26,C  10,H  28)          108.8068         0.284187   
     95. A(H  30,C  11,H  31)          107.2387         0.285510   
     96. A(H  29,C  11,H  31)          108.4246         0.285495   
     97. A(C   9,C  11,H  31)          114.1340         0.320001   
     98. A(H  29,C  11,H  30)          108.3286         0.284205   
     99. A(C   9,C  11,H  30)          109.2422         0.318484   
    100. A(C   9,C  11,H  29)          109.3130         0.318466   
    101. A(C   8,C  12,H  32)          109.7825         0.313660   
    102. A(C   8,C  12,C  13)          121.9700         0.352033   
    103. A(H  32,C  12,H  33)          103.1060         0.283857   
    104. A(C  13,C  12,H  33)          106.3426         0.317139   
    105. A(C   8,C  12,H  33)          105.6890         0.313695   
    106. A(C  13,C  12,H  32)          108.2684         0.317104   
    107. A(C   1,C  13,C  12)          115.9762         0.363667   
    108. A(H  34,C  13,H  35)          105.4098         0.284142   
    109. A(C  12,C  13,H  35)          108.1993         0.317084   
    110. A(C   1,C  13,H  35)          107.6057         0.323576   
    111. A(C  12,C  13,H  34)          108.3897         0.317494   
    112. A(C   1,C  13,H  34)          110.7147         0.323997   
    113. A(H  37,C  14,H  38)          108.1616         0.284198   
    114. A(H  36,C  14,H  38)          109.3145         0.284315   
    115. A(C   5,C  14,H  38)          109.6232         0.323989   
    116. A(H  36,C  14,H  37)          107.6849         0.284333   
    117. A(C   5,C  14,H  37)          111.3065         0.324011   
    118. A(C   5,C  14,H  36)          110.6822         0.324153   
    119. D(C  13,C   1,C   0,H  15)   -111.9195         0.011996   
    120. D(C  13,C   1,C   0,H  16)    127.4256         0.011996   
    121. D(C   2,C   1,C   0,H  17)   -169.2318         0.011996   
    122. D(C   2,C   1,C   0,H  16)    -50.3145         0.011996   
    123. D(C   2,C   1,C   0,H  15)     70.3404         0.011996   
    124. D(C   3,C   2,C   1,C   0)    -29.0692         0.035882   
    125. D(H  18,C   2,C   1,C  13)     -5.7808         0.035882   
    126. D(H  18,C   2,C   1,C   0)    172.0122         0.035882   
    127. D(C   3,C   2,C   1,C  13)    153.1379         0.035882   
    128. D(H  19,C   3,C   2,H  18)   -169.2065         0.012289   
    129. D(C   4,C   3,C   2,H  18)     67.8890         0.012289   
    130. D(H  19,C   3,C   2,C   1)     31.0904         0.012289   
    131. D(C   4,C   3,C   2,C   1)    -91.8142         0.012289   
    132. D(H  20,C   3,C   2,C   1)    149.4585         0.012289   
    133. D(C   5,C   4,C   3,C   2)     60.3042         0.010384   
    134. D(H  21,C   4,C   3,H  20)    -59.7490         0.010384   
    135. D(H  21,C   4,C   3,H  19)     57.5318         0.010384   
    136. D(H  21,C   4,C   3,C   2)   -178.2725         0.010384   
    137. D(C   5,C   4,C   3,H  20)    178.8277         0.010384   
    138. D(C   5,C   4,C   3,H  19)    -63.8915         0.010384   
    139. D(C   6,C   5,C   4,H  22)     39.8685         0.011407   
    140. D(C  14,C   5,C   4,C   3)     92.9854         0.011407   
    141. D(C  14,C   5,C   4,H  21)    -27.5807         0.011407   
    142. D(C   6,C   5,C   4,H  21)    157.0079         0.011407   
    143. D(C   6,C   5,C   4,C   3)    -82.4260         0.011407   
    144. D(H  23,C   6,C   5,C   4)     -8.1520         0.034754   
    145. D(C   7,C   6,C   5,C  14)     -9.8506         0.034754   
    146. D(H  23,C   6,C   5,C  14)    176.5966         0.034754   
    147. D(C   7,C   6,C   5,C   4)    165.4008         0.034754   
    148. D(C   8,C   7,C   6,H  23)     63.4929         0.012052   
    149. D(C   8,C   7,C   6,C   5)   -109.9859         0.012052   
    150. D(H  24,C   7,C   6,C   5)     28.8657         0.012052   
    151. D(C   9,C   7,C   6,H  23)     -7.0952         0.012052   
    152. D(C   9,C   7,C   6,C   5)    179.4261         0.012052   
    153. D(H  25,C   8,C   7,C   6)    142.4541         0.009660   
    154. D(C  12,C   8,C   7,H  24)   -162.2505         0.009660   
    155. D(C  12,C   8,C   7,C   9)     92.6608         0.009660   
    156. D(C  12,C   8,C   7,C   6)    -21.9020         0.009660   
    157. D(C   9,C   8,C   7,H  24)    105.0887         0.009660   
    158. D(C   9,C   8,C   7,C   6)   -114.5628         0.009660   
    159. D(C  11,C   9,C   8,C   7)    104.3790         0.009582   
    160. D(C  10,C   9,C   8,H  25)     -0.9730         0.009582   
    161. D(C  10,C   9,C   8,C  12)    127.4578         0.009582   
    162. D(C  10,C   9,C   8,C   7)   -104.6075         0.009582   
    163. D(C   7,C   9,C   8,H  25)    103.6345         0.009582   
    164. D(C   7,C   9,C   8,C  12)   -127.9347         0.009582   
    165. D(C  11,C   9,C   7,C   6)    -10.2661         0.011370   
    166. D(C  10,C   9,C   7,H  24)      2.4616         0.011370   
    167. D(C  10,C   9,C   7,C   8)    106.9236         0.011370   
    168. D(C  10,C   9,C   7,C   6)   -148.9820         0.011370   
    169. D(C   8,C   9,C   7,H  24)   -104.4620         0.011370   
    170. D(C   8,C   9,C   7,C   6)    104.0944         0.011370   
    171. D(H  27,C  10,C   9,C  11)   -177.2121         0.010778   
    172. D(H  27,C  10,C   9,C   8)     29.5681         0.010778   
    173. D(H  27,C  10,C   9,C   7)    -37.9284         0.010778   
    174. D(H  26,C  10,C   9,C  11)    -56.6727         0.010778   
    175. D(H  26,C  10,C   9,C   8)    150.1076         0.010778   
    176. D(H  26,C  10,C   9,C   7)     82.6110         0.010778   
    177. D(H  30,C  11,C   9,C   8)    101.3206         0.010393   
    178. D(H  30,C  11,C   9,C   7)    171.9082         0.010393   
    179. D(H  29,C  11,C   9,C  10)     68.5831         0.010393   
    180. D(H  29,C  11,C   9,C   8)   -140.3029         0.010393   
    181. D(H  29,C  11,C   9,C   7)    -69.7153         0.010393   
    182. D(H  30,C  11,C   9,C  10)    -49.7934         0.010393   
    183. D(H  32,C  12,C   8,H  25)     96.9157         0.008826   
    184. D(H  32,C  12,C   8,C   9)    -30.9919         0.008826   
    185. D(H  32,C  12,C   8,C   7)    -98.8005         0.008826   
    186. D(C  13,C  12,C   8,H  25)   -134.9739         0.008826   
    187. D(C  13,C  12,C   8,C   9)     97.1185         0.008826   
    188. D(C  13,C  12,C   8,C   7)     29.3099         0.008826   
    189. D(H  34,C  13,C  12,H  33)    154.9782         0.009974   
    190. D(H  34,C  13,C  12,H  32)     44.7574         0.009974   
    191. D(C   1,C  13,C  12,H  33)    -79.8088         0.009974   
    192. D(C   1,C  13,C  12,H  32)    169.9703         0.009974   
    193. D(C   1,C  13,C  12,C   8)     41.2021         0.009974   
    194. D(H  35,C  13,C   1,C   0)    -77.4324         0.011788   
    195. D(H  34,C  13,C   1,C   2)    -14.3266         0.011788   
    196. D(H  34,C  13,C  12,C   8)    -84.0108         0.009974   
    197. D(H  34,C  13,C   1,C   0)    167.8562         0.011788   
    198. D(C  12,C  13,C   1,C   2)   -138.3431         0.011788   
    199. D(C  12,C  13,C   1,C   0)     43.8397         0.011788   
    200. D(H  38,C  14,C   5,C   4)    120.0326         0.011865   
    201. D(H  37,C  14,C   5,C   6)    175.7148         0.011865   
    202. D(H  37,C  14,C   5,C   4)      0.4123         0.011865   
    203. D(H  36,C  14,C   5,C   6)     55.9946         0.011865   
    204. D(H  36,C  14,C   5,C   4)   -119.3079         0.011865   
    -----------------------------------------------------------------

Number of atoms                         .... 39
Number of degrees of freedom            .... 204


         *************************************************************
         *                GEOMETRY OPTIMIZATION CYCLE   1            *
         *************************************************************
---------------------------------
CARTESIAN COORDINATES (ANGSTROEM)
---------------------------------
  C      2.181313   -0.005247    1.544426
  C      2.088756   -0.141415    0.043493
  C      2.395479    0.888432   -0.780602
  C      2.232445    2.334620   -0.391305
  C      0.838870    2.833053   -0.817843
  C     -0.260660    2.033653   -0.144277
  C     -0.636210    0.837779   -0.667252
  C     -1.474961   -0.144680    0.113259
  C     -0.764231   -1.442558    0.577750
  C     -1.921096   -1.489661   -0.455972
  C     -3.271761   -1.984950    0.078937
  C     -1.686380   -1.714853   -1.961377
  C      0.511396   -2.199861    0.080889
  C      1.695638   -1.460406   -0.583543
  C     -0.833387    2.550204    1.155654
  H      1.381902    0.660794    1.921947
  H      3.171241    0.413110    1.823833
  H      2.082054   -0.988451    2.046442
  H      2.441534    0.707679   -1.851921
  H      2.381150    2.498615    0.696583
  H      3.004172    2.931285   -0.922392
  H      0.748466    3.907978   -0.551425
  H      0.734421    2.772519   -1.923961
  H     -0.232438    0.548114   -1.629218
  H     -2.170309    0.273526    0.872146
  H     -1.095726   -1.767675    1.588102
  H     -4.095549   -1.505207   -0.490253
  H     -3.411471   -1.754808    1.157167
  H     -3.338911   -3.085040   -0.053059
  H     -2.370556   -1.060818   -2.541517
  H     -1.916071   -2.771225   -2.213442
  H     -0.653297   -1.517650   -2.290832
  H      0.214766   -3.044641   -0.577342
  H      0.924991   -2.711369    0.976320
  H      1.466489   -1.329810   -1.660941
  H      2.584261   -2.126982   -0.549305
  H     -0.673703    1.817186    1.972857
  H     -0.351207    3.503133    1.458430
  H     -1.921423    2.735627    1.036121

----------------------------
CARTESIAN COORDINATES (A.U.)
----------------------------
  NO LB      ZA    FRAG     MASS         X           Y           Z
   0 C     4.0000*   0    12.011    4.122084   -0.009915    2.918542
   1 C     4.0000*   0    12.011    3.947177   -0.267236    0.082190
   2 C     4.0000*   0    12.011    4.526799    1.678893   -1.475124
   3 C     4.0000*   0    12.011    4.218710    4.411792   -0.739459
   4 C     4.0000*   0    12.011    1.585235    5.353694   -1.545499
   5 C     4.0000*   0    12.011   -0.492576    3.843047   -0.272644
   6 C     4.0000*   0    12.011   -1.202263    1.583173   -1.260924
   7 C     4.0000*   0    12.011   -2.787272   -0.273406    0.214028
   8 C     4.0000*   0    12.011   -1.444187   -2.726040    1.091789
   9 C     4.0000*   0    12.011   -3.630345   -2.815051   -0.861662
  10 C     4.0000*   0    12.011   -6.182732   -3.751012    0.149169
  11 C     4.0000*   0    12.011   -3.186796   -3.240603   -3.706465
  12 C     4.0000*   0    12.011    0.966398   -4.157135    0.152858
  13 C     4.0000*   0    12.011    3.204291   -2.759767   -1.102736
  14 C     4.0000*   0    12.011   -1.574873    4.819187    2.183870
  15 H     1.0000    0     1.008    2.611416    1.248720    3.631953
  16 H     1.0000    0     1.008    5.992777    0.780665    3.446545
  17 H     1.0000    0     1.008    3.934512   -1.867902    3.867215
  18 H     1.0000    0     1.008    4.613831    1.337320   -3.499624
  19 H     1.0000    0     1.008    4.499721    4.721698    1.316351
  20 H     1.0000    0     1.008    5.677062    5.539326   -1.743068
  21 H     1.0000    0     1.008    1.414396    7.385008   -1.042042
  22 H     1.0000    0     1.008    1.387855    5.239302   -3.635759
  23 H     1.0000    0     1.008   -0.439244    1.035785   -3.078776
  24 H     1.0000    0     1.008   -4.101290    0.516889    1.648117
  25 H     1.0000    0     1.008   -2.070622   -3.340422    3.001078
  26 H     1.0000    0     1.008   -7.739466   -2.844429   -0.926444
  27 H     1.0000    0     1.008   -6.446746   -3.316107    2.186729
  28 H     1.0000    0     1.008   -6.309627   -5.829881   -0.100267
  29 H     1.0000    0     1.008   -4.479702   -2.004655   -4.802771
  30 H     1.0000    0     1.008   -3.620849   -5.236856   -4.182799
  31 H     1.0000    0     1.008   -1.234552   -2.867943   -4.329045
  32 H     1.0000    0     1.008    0.405849   -5.753538   -1.091018
  33 H     1.0000    0     1.008    1.747980   -5.123745    1.844977
  34 H     1.0000    0     1.008    2.771263   -2.512977   -3.138724
  35 H     1.0000    0     1.008    4.883546   -4.019413   -1.038036
  36 H     1.0000    0     1.008   -1.273114    3.433984    3.728159
  37 H     1.0000    0     1.008   -0.663685    6.619962    2.756033
  38 H     1.0000    0     1.008   -3.630963    5.169586    1.957985
* core charge reduced due to ECP

--------------------------------
INTERNAL COORDINATES (ANGSTROEM)
--------------------------------
 C      0   0   0     0.000000000000     0.00000000     0.00000000
 C      1   0   0     1.509936552628     0.00000000     0.00000000
 C      2   1   0     1.354177392797   121.49755272     0.00000000
 C      3   2   1     1.506516501970   123.24867439   330.93081510
 C      4   3   2     1.540266665730   109.69395760   268.18583966
 C      5   4   3     1.517134712956   111.23911868    60.30416387
 C      6   5   4     1.358180870503   119.56365726   277.57402407
 C      7   6   5     1.509280075997   121.84963034   165.40078209
 C      8   7   6     1.550927569187   116.41999995   250.01411196
 C      8   7   6     1.527099950870   122.88145700   179.42605633
 C     10   8   7     1.534840308966   114.29239993   211.01797170
 C     10   8   7     1.540145204695   116.65389193   349.73393384
 C      9   8   7     1.564481681024   133.12690824   338.09800460
 C      2   1   3     1.512432863072   120.44396878   177.74007068
 C      6   5   4     1.511509760766   118.44843106    92.98543268
 H      1   2   3     1.106883311846   110.42777931    70.34044395
 H      1   2   3     1.110427078327   109.80034786   309.68550030
 H      1   2   3     1.108405394679   111.39112390   190.76823786
 H      3   2   1     1.087436025610   118.86330679   172.01218744
 H      4   3   2     1.110183695428   112.36632748    31.09035989
 H      4   3   2     1.110686763369   108.47782186   149.45845495
 H      5   4   3     1.111132390656   108.67934242   181.72746699
 H      5   4   3     1.112686383794   110.03633063   297.93779119
 H      7   6   5     1.082735528818   118.33008161   351.84803975
 H      8   7   6     1.110997109946   117.13120599    28.86573307
 H      9   8   7     1.111935772704   112.34575425   142.45405975
 H     11  10   8     1.110296028586   109.56193155    82.61101779
 H     11  10   8     1.111334403843   112.45341265   322.07157860
 H     11  10   8     1.110013547042   109.36623882   201.79018460
 H     12  10   8     1.110144585088   109.31303046   290.28471620
 H     12  10   8     1.110052486187   109.24223688   171.90817150
 H     12  10   8     1.102129804117   114.13399955    51.88526136
 H     13   9   8     1.111265339449   109.78249627   261.19951750
 H     13   9   8     1.111079625342   105.68903741   150.63104984
 H     14   2   1     1.109211895817   110.71469861   167.85619848
 H     14   2   1     1.111371513288   107.60570967   282.56764169
 H     15   6   5     1.109339944016   110.68217883   240.69211468
 H     15   6   5     1.110065105125   111.30648557     0.41230418
 H     15   6   5     1.110176636538   109.62324453   120.03262051

---------------------------
INTERNAL COORDINATES (A.U.)
---------------------------
 C      0   0   0     0.000000000000     0.00000000     0.00000000
 C      1   0   0     2.853366564064     0.00000000     0.00000000
 C      2   1   0     2.559024409134   121.49755272     0.00000000
 C      3   2   1     2.846903604957   123.24867439   330.93081510
 C      4   3   2     2.910682171437   109.69395760   268.18583966
 C      5   4   3     2.866969115752   111.23911868    60.30416387
 C      6   5   4     2.566589885582   119.56365726   277.57402407
 C      7   6   5     2.852126003019   121.84963034   165.40078209
 C      8   7   6     2.930828359312   116.41999995   250.01411196
 C      8   7   6     2.885800686269   122.88145700   179.42605633
 C     10   8   7     2.900427843249   114.29239993   211.01797170
 C     10   8   7     2.910452643346   116.65389193   349.73393384
 C      9   8   7     2.956441918672   133.12690824   338.09800460
 C      2   1   3     2.858083907149   120.44396878   177.74007068
 C      6   5   4     2.856339496597   118.44843106    92.98543268
 H      1   2   3     2.091706321597   110.42777931    70.34044395
 H      1   2   3     2.098403069728   109.80034786   309.68550030
 H      1   2   3     2.094582641304   111.39112390   190.76823786
 H      3   2   1     2.054956276563   118.86330679   172.01218744
 H      4   3   2     2.097943142703   112.36632748    31.09035989
 H      4   3   2     2.098893803339   108.47782186   149.45845495
 H      5   4   3     2.099735916869   108.67934242   181.72746699
 H      5   4   3     2.102672538314   110.03633063   297.93779119
 H      7   6   5     2.046073624933   118.33008161   351.84803975
 H      8   7   6     2.099480273376   117.13120599    28.86573307
 H      9   8   7     2.101254088920   112.34575425   142.45405975
 H     11  10   8     2.098155421607   109.56193155    82.61101779
 H     11  10   8     2.100117666467   112.45341265   322.07157860
 H     11  10   8     2.097621608851   109.36623882   201.79018460
 H     12  10   8     2.097869234873   109.31303046   290.28471620
 H     12  10   8     2.097695193172   109.24223688   171.90817150
 H     12  10   8     2.082723493813   114.13399955    51.88526136
 H     13   9   8     2.099987153678   109.78249627   261.19951750
 H     13   9   8     2.099636204876   105.68903741   150.63104984
 H     14   2   1     2.096106707581   110.71469861   167.85619848
 H     14   2   1     2.100187793157   107.60570967   282.56764169
 H     15   6   5     2.096348683609   110.68217883   240.69211468
 H     15   6   5     2.097719039509   111.30648557     0.41230418
 H     15   6   5     2.097929803334   109.62324453   120.03262051

---------------------
BASIS SET INFORMATION
---------------------
There are 2 groups of distinct atoms

 Group   1 Type C   : 6s6p2d contracted to 2s2p1d pattern {42/42/2}
 Group   2 Type H   : 8s2p contracted to 2s1p pattern {53/2}

Atom   0C    basis set group =>   1
Atom   1C    basis set group =>   1
Atom   2C    basis set group =>   1
Atom   3C    basis set group =>   1
Atom   4C    basis set group =>   1
Atom   5C    basis set group =>   1
Atom   6C    basis set group =>   1
Atom   7C    basis set group =>   1
Atom   8C    basis set group =>   1
Atom   9C    basis set group =>   1
Atom  10C    basis set group =>   1
Atom  11C    basis set group =>   1
Atom  12C    basis set group =>   1
Atom  13C    basis set group =>   1
Atom  14C    basis set group =>   1
Atom  15H    basis set group =>   2
Atom  16H    basis set group =>   2
Atom  17H    basis set group =>   2
Atom  18H    basis set group =>   2
Atom  19H    basis set group =>   2
Atom  20H    basis set group =>   2
Atom  21H    basis set group =>   2
Atom  22H    basis set group =>   2
Atom  23H    basis set group =>   2
Atom  24H    basis set group =>   2
Atom  25H    basis set group =>   2
Atom  26H    basis set group =>   2
Atom  27H    basis set group =>   2
Atom  28H    basis set group =>   2
Atom  29H    basis set group =>   2
Atom  30H    basis set group =>   2
Atom  31H    basis set group =>   2
Atom  32H    basis set group =>   2
Atom  33H    basis set group =>   2
Atom  34H    basis set group =>   2
Atom  35H    basis set group =>   2
Atom  36H    basis set group =>   2
Atom  37H    basis set group =>   2
Atom  38H    basis set group =>   2
---------------------------------
AUXILIARY/J BASIS SET INFORMATION
---------------------------------
There are 2 groups of distinct atoms

 Group   1 Type C   : 12s5p4d2f1g contracted to 6s4p3d1f1g pattern {711111/2111/211/2/1}
 Group   2 Type H   : 5s2p1d contracted to 3s1p1d pattern {311/2/1}

Atom   0C    basis set group =>   1
Atom   1C    basis set group =>   1
Atom   2C    basis set group =>   1
Atom   3C    basis set group =>   1
Atom   4C    basis set group =>   1
Atom   5C    basis set group =>   1
Atom   6C    basis set group =>   1
Atom   7C    basis set group =>   1
Atom   8C    basis set group =>   1
Atom   9C    basis set group =>   1
Atom  10C    basis set group =>   1
Atom  11C    basis set group =>   1
Atom  12C    basis set group =>   1
Atom  13C    basis set group =>   1
Atom  14C    basis set group =>   1
Atom  15H    basis set group =>   2
Atom  16H    basis set group =>   2
Atom  17H    basis set group =>   2
Atom  18H    basis set group =>   2
Atom  19H    basis set group =>   2
Atom  20H    basis set group =>   2
Atom  21H    basis set group =>   2
Atom  22H    basis set group =>   2
Atom  23H    basis set group =>   2
Atom  24H    basis set group =>   2
Atom  25H    basis set group =>   2
Atom  26H    basis set group =>   2
Atom  27H    basis set group =>   2
Atom  28H    basis set group =>   2
Atom  29H    basis set group =>   2
Atom  30H    basis set group =>   2
Atom  31H    basis set group =>   2
Atom  32H    basis set group =>   2
Atom  33H    basis set group =>   2
Atom  34H    basis set group =>   2
Atom  35H    basis set group =>   2
Atom  36H    basis set group =>   2
Atom  37H    basis set group =>   2
Atom  38H    basis set group =>   2
-------------------------
ECP PARAMETER INFORMATION
-------------------------

 Group 1, Type C  ECP vDZP-ECP (replacing 2 core electrons, lmax=3)

Atom   0C    ECP group =>   1
Atom   1C    ECP group =>   1
Atom   2C    ECP group =>   1
Atom   3C    ECP group =>   1
Atom   4C    ECP group =>   1
Atom   5C    ECP group =>   1
Atom   6C    ECP group =>   1
Atom   7C    ECP group =>   1
Atom   8C    ECP group =>   1
Atom   9C    ECP group =>   1
Atom  10C    ECP group =>   1
Atom  11C    ECP group =>   1
Atom  12C    ECP group =>   1
Atom  13C    ECP group =>   1
Atom  14C    ECP group =>   1



           ************************************************************
           *        Program running with 40 parallel MPI-processes    *
           *              working on a common directory               *
           ************************************************************
------------------------------------------------------------------------------
                             ORCA STARTUP CALCULATIONS
                           -- RI-GTO INTEGRALS CHOSEN --
------------------------------------------------------------------------------
------------------------------------------------------------------------------
                   ___                                                        
                  /   \      - P O W E R E D   B Y -                         
                 /     \                                                     
                 |  |  |   _    _      __       _____    __    __             
                 |  |  |  | |  | |    /  \     |  _  \  |  |  /  |          
                  \  \/   | |  | |   /    \    | | | |  |  | /  /          
                 / \  \   | |__| |  /  /\  \   | |_| |  |  |/  /          
                |  |  |   |  __  | /  /__\  \  |    /   |      \           
                |  |  |   | |  | | |   __   |  |    \   |  |\   \          
                \     /   | |  | | |  |  |  |  | |\  \  |  | \   \       
                 \___/    |_|  |_| |__|  |__|  |_| \__\ |__|  \__/        
                                                                              
                      - O R C A' S   B I G   F R I E N D -                    
                                      &                                       
                       - I N T E G R A L  F E E D E R -                       
                                                                              
 v1 FN, 2020, v2 2021, v3 2022-2024                                           
------------------------------------------------------------------------------


----------------------
SHARK INTEGRAL PACKAGE
----------------------

Number of atoms                             ...     39
Number of basis functions                   ...    315
Number of shells                            ...    147
Maximum angular momentum                    ...      2
Integral batch strategy                     ... SHARK/LIBINT Hybrid
RI-J (if used) integral strategy            ... SPLIT-RIJ (Revised 2003 algorithm where possible)
Printlevel                                  ...      1
Contraction scheme used                     ... SEGMENTED contraction
Prescreening option                         ... SCHWARTZ
   Thresh                                   ... 2.500e-11
   Tcut                                     ... 2.500e-12
   Tpresel                                  ... 2.500e-12 
Coulomb Range Separation                    ... NOT USED
Exchange Range Separation                   ... Long Range
   Mu parameter                             ... 3.000e-01
   Scaling (regular/separated)              ... 1.670e-01 8.330e-01
Multipole approximations                    ... NOT USED
Finite Nucleus Model                        ... NOT USED
CABS basis                                  ... NOT available
Auxiliary Coulomb fitting basis             ... AVAILABLE
   # of basis functions in Aux-J            ...    999
   # of shells in Aux-J                     ...    345
   Maximum angular momentum in Aux-J        ...      4
Auxiliary J/K fitting basis                 ... NOT available
Auxiliary Correlation fitting basis         ... NOT available
Auxiliary 'external' fitting basis          ... NOT available

Checking pre-screening integrals            ... done (  0.0 sec) Dimension = 147
Check shell pair data                       ... done (  0.0 sec)
Shell pair information
Shell pair cut-off parameter TPreSel        ...   2.5e-12
Total number of shell pairs                 ...     10878
Shell pairs after pre-screening             ...     10843
Total number of primitive shell pairs       ...    102036
Primitive shell pairs kept                  ...     78990
          la=0 lb=0:   3076 shell pairs
          la=1 lb=0:   4198 shell pairs
          la=1 lb=1:   1470 shell pairs
          la=2 lb=0:   1170 shell pairs
          la=2 lb=1:    809 shell pairs
          la=2 lb=2:    120 shell pairs

Calculating one electron integrals          ... done (  0.0 sec)
Calculating ECP integrals                   ... done (  0.2 sec)
Calculating RI/J V-Matrix + Cholesky decomp.... done (  0.1 sec)
Calculating Nuclear repulsion               ... done (  0.0 sec) ENN=    572.986537792993 Eh

Diagonalization of the overlap matrix:
Smallest eigenvalue                        ... 9.711e-04
Time for diagonalization                   ...    0.014 sec
Threshold for overlap eigenvalues          ... 1.000e-07
Number of eigenvalues below threshold      ... 0
Time for construction of square roots      ...    0.008 sec
Total time needed                          ...    0.025 sec

-------------------
DFT GRID GENERATION
-------------------

General Integration Accuracy     IntAcc      ... 4.388
Radial Grid Type                 RadialGrid  ... OptM3 with GC (2021)
Angular Grid (max. ang.)         AngularGrid ... 4 (Lebedev-302)
Angular grid pruning method      GridPruning ... 4 (adaptive)
Weight generation scheme         WeightScheme... mBecke (2022)
Basis function cutoff            BFCut       ... 1.0000e-11
Integration weight cutoff        WCut        ... 1.0000e-14
Partially contracted basis set               ... off
Rotationally invariant grid construction     ... off
Angular grids for H and He will be reduced by one unit

Total number of grid points                  ...   164694
Total number of batches                      ...     2593
Average number of points per batch           ...       63
Average number of grid points per atom       ...     4223

--------------------
COSX GRID GENERATION
--------------------

GRIDX 1
-------
General Integration Accuracy     IntAcc      ... 3.816
Radial Grid Type                 RadialGrid  ... OptM3 with GC (2021)
Angular Grid (max. ang.)         AngularGrid ... 1 (Lebedev-50)
Angular grid pruning method      GridPruning ... 4 (adaptive)
Weight generation scheme         WeightScheme... mBecke (2022)
Basis function cutoff            BFCut       ... 1.0000e-11
Integration weight cutoff        WCut        ... 1.0000e-14
Partially contracted basis set               ... on
Rotationally invariant grid construction     ... off
Angular grids for H and He will be reduced by one unit

Total number of grid points                  ...    20994
Total number of batches                      ...      188
Average number of points per batch           ...      111
Average number of grid points per atom       ...      538
UseSFitting                                  ... on

GRIDX 2
-------
General Integration Accuracy     IntAcc      ... 4.020
Radial Grid Type                 RadialGrid  ... OptM3 with GC (2021)
Angular Grid (max. ang.)         AngularGrid ... 2 (Lebedev-110)
Angular grid pruning method      GridPruning ... 4 (adaptive)
Weight generation scheme         WeightScheme... mBecke (2022)
Basis function cutoff            BFCut       ... 1.0000e-11
Integration weight cutoff        WCut        ... 1.0000e-14
Partially contracted basis set               ... on
Rotationally invariant grid construction     ... off
Angular grids for H and He will be reduced by one unit

Total number of grid points                  ...    43391
Total number of batches                      ...      361
Average number of points per batch           ...      120
Average number of grid points per atom       ...     1113
UseSFitting                                  ... on

GRIDX 3
-------
General Integration Accuracy     IntAcc      ... 4.338
Radial Grid Type                 RadialGrid  ... OptM3 with GC (2021)
Angular Grid (max. ang.)         AngularGrid ... 3 (Lebedev-194)
Angular grid pruning method      GridPruning ... 4 (adaptive)
Weight generation scheme         WeightScheme... mBecke (2022)
Basis function cutoff            BFCut       ... 1.0000e-11
Integration weight cutoff        WCut        ... 1.0000e-14
Partially contracted basis set               ... on
Rotationally invariant grid construction     ... off
Angular grids for H and He will be reduced by one unit

Total number of grid points                  ...    94124
Total number of batches                      ...      758
Average number of points per batch           ...      124
Average number of grid points per atom       ...     2413
UseSFitting                                  ... on
Initializing property integral containers    ... done (  0.0 sec)

SHARK setup successfully completed in   5.1 seconds

Maximum memory used throughout the entire STARTUP-calculation: 52.1 MB


           ************************************************************
           *        Program running with 40 parallel MPI-processes    *
           *              working on a common directory               *
           ************************************************************
-------------------------------------------------------------------------------
                                 ORCA GUESS
                   Start orbitals & Density for SCF / CASSCF
-------------------------------------------------------------------------------

------------
SCF SETTINGS
------------
Hamiltonian:
 Density Functional     Method          .... DFT(GTOs)
 Exchange Functional    Exchange        .... WB97X-V
 Correlation Functional Correlation     .... WB97X-V
 Gradients option       PostSCFGGA      .... off
 Hybrid DFT is turned on
   Fraction HF Exchange ScalHFX         ....  0.167000
   Scaling of DF-GGA-X  ScalDFX         ....  0.000000
   Scaling of DF-GGA-C  ScalDFC         ....  1.000000
   Scaling of DF-LDA-C  ScalLDAC        ....  1.000000
   Perturbative correction              ....  0.000000
 Long-range corrected/Screened/Range-Separated Hybrid DFT is turned on
   Amount of maximum screened exact exchange              ....  0.833000
   Range separation parameter mu (erf(mu*r12)/r12)        ....  0.300000
   NL short-range parameter             ....  6.000000
   NL long-range parameter              ....  0.010000
 RI-approximation to the Coulomb term is turned on
   Number of AuxJ basis functions       .... 999
   RIJ-COSX (HFX calculated with COS-X)).... on


General Settings:
 Integral files         IntName         .... ./output/bicyclogermacrene/bicyclogermacrene
 Hartree-Fock type      HFTyp           .... RHF
 Total Charge           Charge          ....    0
 Multiplicity           Mult            ....    1
 Number of Electrons    NEL             ....   84
 Basis Dimension        Dim             ....  315
 Nuclear Repulsion      ENuc            ....    572.9865377930 Eh

Convergence Acceleration:
 AO-DIIS                CNVDIIS         .... on
   Start iteration      DIISMaxIt       ....    12
   Startup error        DIISStart       ....  0.200000
   # of expansion vecs  DIISMaxEq       ....     5
   Bias factor          DIISBfac        ....   1.050
   Max. coefficient     DIISMaxC        ....  10.000
 MO-DIIS                CNVKDIIS        .... off
 Trust-Rad. Augm. Hess. CNVTRAH         .... auto
   Auto Start mean grad. ratio tolernc. ....  1.125000
   Auto Start start iteration           ....    50
   Auto Start num. interpolation iter.  ....    10
   Max. Number of Micro iterations      ....    24
   Max. Number of Macro iterations      .... Maxiter - #DIIS iter
   Number of Davidson start vectors     ....     2
   Converg. threshold    (grad. norm)   ....   1.000e-05
   Grad. Scal. Fac. for Micro threshold ....   0.100
   Minimum threshold for Micro iter.    ....   1.000e-02
   NR start threshold (gradient norm)   ....   1.000e-04
   Initial trust radius                 ....   0.400
   Minimum AH scaling param. (alpha)    ....   1.000
   Maximum AH scaling param. (alpha)    .... 1000.000
   Quad. conv. algorithm                .... NR
   White noise on init. David. guess    .... on
   Maximum white noise                  ....   0.010
   Pseudo random numbers                .... off
   Inactive MOs                         .... canonical
   Orbital update algorithm             .... Taylor
   Preconditioner                       .... Diag
   Full preconditioner red. dimension   ....   250
 SOSCF                  CNVSOSCF        .... on
   Start iteration      SOSCFMaxIt      ....   150
   Startup grad/error   SOSCFStart      ....  0.003300
   Hessian update       SOSCFHessUp     .... L-BFGS
 Level Shifting         CNVShift        .... on
   Level shift para.    LevelShift      ....    0.2500
   Turn off err/grad.   ShiftErr        ....    0.0010
 Zerner damping         CNVZerner       .... off
 Static damping         CNVDamp         .... on
   Fraction old density DampFac         ....    0.7000
   Max. Damping (<1)    DampMax         ....    0.9800
   Min. Damping (>=0)   DampMin         ....    0.0000
   Turn off err/grad.   DampErr         ....    0.1000

SCF Procedure:
 Maximum # iterations   MaxIter         ....   125
 SCF integral mode      SCFMode         .... Direct
   Integral package                     .... SHARK and LIBINT hybrid scheme
 Reset frequency        DirectResetFreq ....    20
 Integral Threshold     Thresh          ....  2.500e-11 Eh
 Primitive CutOff       TCut            ....  2.500e-12 Eh

Convergence Tolerance:
 Convergence Check Mode ConvCheckMode   .... Total+1el-Energy
 Convergence forced     ConvForced      .... 0
 Energy Change          TolE            ....  1.000e-08 Eh
 1-El. energy change                    ....  1.000e-05 Eh
 Orbital Gradient       TolG            ....  1.000e-05
 Orbital Rotation angle TolX            ....  1.000e-05
 DIIS Error             TolErr          ....  5.000e-07

------------------------------
INITIAL GUESS: MODEL POTENTIAL
------------------------------
Loading Hartree-Fock densities                     ... done
Atomic calculation to generate a density for atom 0 (C  with ECP)
  Multiplicity assumed   :    1
  Atomic configuration   : 1s2 2s2 2p2 
  Number of open shells  : 1
  Command: /home/aspe232/Project/Software/ORCA/6_0_1/build/orca ./output/bicyclogermacrene/bicyclogermacrene_atom6.inp "" > ./output/bicyclogermacrene/bicyclogermacrene_atom6.out
Returned from the atomic calculation with res=0
Calculating cut-offs                               ... done
Initializing the effective Hamiltonian             ... done
Setting up the integral package (SHARK)            ... done
Starting the Coulomb interaction                   ... done (   0.1 sec)
Making the grid                                    ... done (   1.1 sec)
Mapping shells                                     ... done
Starting the XC term evaluation                    ... done (   0.1 sec)
  promolecular density results
     # of electrons  =    114.002273447
     EX              =    -55.352662991
     EC              =     -4.555509306
     EX+EC           =    -59.908172298
Transforming the Hamiltonian                       ... done (   0.0 sec)
Diagonalizing the Hamiltonian                      ... done (   0.0 sec)
Back transforming the eigenvectors                 ... done (   0.0 sec)
Now organizing SCF variables                       ... done
                      ------------------
                      INITIAL GUESS DONE (   2.1 sec)
                      ------------------
             **** ENERGY FILE WAS UPDATED (./output/bicyclogermacrene/bicyclogermacrene.en.tmp) ****
Finished Guess after   3.0 sec
Maximum memory used throughout the entire GUESS-calculation: 34.9 MB


           ************************************************************
           *        Program running with 40 parallel MPI-processes    *
           *              working on a common directory               *
           ************************************************************

-------------------------------------------------------------------------------------------
                                      ORCA LEAN-SCF
                              memory conserving SCF solver
-------------------------------------------------------------------------------------------

----------------------------------------D-I-I-S--------------------------------------------
Iteration    Energy (Eh)           Delta-E    RMSDP     MaxDP     DIISErr   Damp  Time(sec)
-------------------------------------------------------------------------------------------
               ***  Starting incremental Fock matrix formation  ***
    1    -99.1389669217178380     0.00e+00  3.38e-03  7.88e-02  1.88e-01  0.700   8.7
    2    -99.4061196853990623    -2.67e-01  2.48e-03  5.73e-02  1.14e-01  0.700   6.1
                               ***Turning on AO-DIIS***
    3    -99.5451535837539723    -1.39e-01  1.28e-03  2.99e-02  5.97e-02  0.700   5.9
    4    -99.6270817602751322    -8.19e-02  2.76e-03  6.42e-02  3.73e-02  0.000   6.3
    5    -99.7992382851366528    -1.72e-01  2.10e-04  4.21e-03  4.23e-03  0.000   6.1
                              *** Initializing SOSCF ***
---------------------------------------S-O-S-C-F--------------------------------------
Iteration    Energy (Eh)           Delta-E    RMSDP     MaxDP     MaxGrad    Time(sec)
--------------------------------------------------------------------------------------
    6    -99.7997321181086363    -4.94e-04  1.07e-04  1.74e-03  1.68e-03     5.8
               *** Restarting incremental Fock matrix formation ***
    7    -99.7998796153366357    -1.47e-04  6.24e-05  1.20e-03  3.70e-04     8.9
    8    -99.7998973700891838    -1.78e-05  4.44e-05  1.19e-03  3.57e-04     7.5
    9    -99.7999018044048398    -4.43e-06  1.45e-05  2.60e-04  1.05e-04     7.6
   10    -99.7999025726976470    -7.68e-07  3.80e-06  8.74e-05  2.30e-05     7.2
   11    -99.7999026005498990    -2.79e-08  1.28e-06  3.05e-05  9.21e-06     6.6
   12    -99.7999026265910061    -2.60e-08  3.89e-07  1.08e-05  2.97e-06     6.0
   13    -99.7999026083965646     1.82e-08  1.58e-07  4.61e-06  1.27e-06     5.6
                  *** Gradient check signals convergence ***

               *****************************************************
               *                     SUCCESS                       *
               *           SCF CONVERGED AFTER  13 CYCLES          *
               *****************************************************

Recomputing exchange energy using gridx3       ... done (    9.833 sec)
Old exchange energy                            :    -15.864201699 Eh
New exchange energy                            :    -15.864128096 Eh
Exchange energy change after final integration :      0.000073604 Eh
Total energy after final integration           :    -99.799829005 Eh
             **** ENERGY FILE WAS UPDATED (./output/bicyclogermacrene/bicyclogermacrene.en.tmp) ****

----------------
TOTAL SCF ENERGY
----------------

Total Energy       :        -99.79982900483813 Eh           -2715.69141 eV

Components:
Nuclear Repulsion  :        572.98653779299275 Eh           15591.75636 eV
Electronic Energy  :       -672.78644040138931 Eh          -18307.44978 eV
One Electron Energy:      -1284.89893293094838 Eh          -34963.87749 eV
Two Electron Energy:        612.11249252955906 Eh           16656.42772 eV

Virial components:
Potential Energy   :       -177.55592009011730 Eh           -4831.54222 eV
Kinetic Energy     :         77.75609108527918 Eh            2115.85081 eV
Virial Ratio       :          2.28349853512289

DFT components:
N(Alpha)           :       42.000064516669 electrons
N(Beta)            :       42.000064516669 electrons
N(Total)           :       84.000129033338 electrons
E(X)               :      -16.033551285682 Eh       
E(C)               :       -3.132725590921 Eh       
E(XC)              :      -19.166276876603 Eh       

---------------
SCF CONVERGENCE
---------------

  Last Energy change         ...   -1.8194e-08  Tolerance :   1.0000e-08
  Last MAX-Density change    ...    4.6121e-06  Tolerance :   1.0000e-07
  Last RMS-Density change    ...    1.5831e-07  Tolerance :   5.0000e-09
  Last DIIS Error            ...    1.6773e-03  Tolerance :   5.0000e-07
  Last Orbital Gradient      ...    1.2737e-06  Tolerance :   1.0000e-05
  Last Orbital Rotation      ...    3.7973e-06  Tolerance :   1.0000e-05


----------------
ORBITAL ENERGIES
----------------

  NO   OCC          E(Eh)            E(eV) 
   0   2.0000      -1.005380       -27.3578 
   1   2.0000      -0.961978       -26.1768 
   2   2.0000      -0.938385       -25.5348 
   3   2.0000      -0.891291       -24.2533 
   4   2.0000      -0.863548       -23.4983 
   5   2.0000      -0.851024       -23.1575 
   6   2.0000      -0.824964       -22.4484 
   7   2.0000      -0.813529       -22.1373 
   8   2.0000      -0.805314       -21.9137 
   9   2.0000      -0.761562       -20.7231 
  10   2.0000      -0.737859       -20.0782 
  11   2.0000      -0.663004       -18.0413 
  12   2.0000      -0.651040       -17.7157 
  13   2.0000      -0.635263       -17.2864 
  14   2.0000      -0.630838       -17.1660 
  15   2.0000      -0.598535       -16.2870 
  16   2.0000      -0.573607       -15.6086 
  17   2.0000      -0.570207       -15.5161 
  18   2.0000      -0.560035       -15.2393 
  19   2.0000      -0.556727       -15.1493 
  20   2.0000      -0.537581       -14.6283 
  21   2.0000      -0.531747       -14.4696 
  22   2.0000      -0.522547       -14.2192 
  23   2.0000      -0.511089       -13.9074 
  24   2.0000      -0.505912       -13.7666 
  25   2.0000      -0.499843       -13.6014 
  26   2.0000      -0.494688       -13.4612 
  27   2.0000      -0.488001       -13.2792 
  28   2.0000      -0.485743       -13.2177 
  29   2.0000      -0.477994       -13.0069 
  30   2.0000      -0.472524       -12.8580 
  31   2.0000      -0.465861       -12.6767 
  32   2.0000      -0.461831       -12.5670 
  33   2.0000      -0.443774       -12.0757 
  34   2.0000      -0.436730       -11.8840 
  35   2.0000      -0.430933       -11.7263 
  36   2.0000      -0.419854       -11.4248 
  37   2.0000      -0.416948       -11.3457 
  38   2.0000      -0.395731       -10.7684 
  39   2.0000      -0.346438        -9.4271 
  40   2.0000      -0.319161        -8.6848 
  41   2.0000      -0.297550        -8.0968 
  42   0.0000       0.077526         2.1096 
  43   0.0000       0.078476         2.1354 
  44   0.0000       0.084023         2.2864 
  45   0.0000       0.096103         2.6151 
  46   0.0000       0.102924         2.8007 
  47   0.0000       0.112668         3.0659 
  48   0.0000       0.116007         3.1567 
  49   0.0000       0.119293         3.2461 
  50   0.0000       0.127668         3.4740 
  51   0.0000       0.133626         3.6362 
  52   0.0000       0.135627         3.6906 
*Only the first 10 virtual orbitals were printed.

                    ********************************
                    * MULLIKEN POPULATION ANALYSIS *
                    ********************************

-----------------------
MULLIKEN ATOMIC CHARGES
-----------------------
   0 C :   -0.065989
   1 C :   -0.032683
   2 C :   -0.043509
   3 C :   -0.072460
   4 C :   -0.068484
   5 C :   -0.064940
   6 C :    0.021989
   7 C :   -0.044302
   8 C :   -0.068726
   9 C :   -0.095538
  10 C :   -0.055375
  11 C :   -0.056142
  12 C :   -0.079244
  13 C :   -0.056935
  14 C :   -0.093901
  15 H :    0.033327
  16 H :    0.062412
  17 H :    0.032424
  18 H :    0.020309
  19 H :    0.032136
  20 H :    0.043626
  21 H :    0.035890
  22 H :    0.047176
  23 H :   -0.004710
  24 H :    0.041108
  25 H :    0.041792
  26 H :    0.035172
  27 H :    0.029477
  28 H :    0.035231
  29 H :    0.053891
  30 H :    0.035358
  31 H :    0.023348
  32 H :    0.045337
  33 H :    0.032934
  34 H :    0.010413
  35 H :    0.053544
  36 H :    0.039882
  37 H :    0.033149
  38 H :    0.063012
Sum of atomic charges:    0.0000000

--------------------------------
MULLIKEN REDUCED ORBITAL CHARGES
--------------------------------
  0 C s       :     0.946459  s :     0.946459
      pz      :     0.962181  p :     3.046756
      px      :     1.039356
      py      :     1.045219
      dz2     :     0.017842  d :     0.072775
      dxz     :     0.015841
      dyz     :     0.017870
      dx2y2   :     0.010350
      dxy     :     0.010871

  1 C s       :     1.084908  s :     1.084908
      pz      :     0.953022  p :     2.828696
      px      :     0.940075
      py      :     0.935598
      dz2     :     0.032017  d :     0.119079
      dxz     :     0.020384
      dyz     :     0.032616
      dx2y2   :     0.014855
      dxy     :     0.019207

  2 C s       :     1.038668  s :     1.038668
      pz      :     0.984380  p :     2.912489
      px      :     1.014325
      py      :     0.913784
      dz2     :     0.029065  d :     0.092353
      dxz     :     0.006125
      dyz     :     0.021688
      dx2y2   :     0.015671
      dxy     :     0.019804

  3 C s       :     0.996766  s :     0.996766
      pz      :     1.041131  p :     2.973132
      px      :     0.957441
      py      :     0.974560
      dz2     :     0.023394  d :     0.102562
      dxz     :     0.014456
      dyz     :     0.014581
      dx2y2   :     0.021156
      dxy     :     0.028975

  4 C s       :     0.998479  s :     0.998479
      pz      :     1.031451  p :     2.968503
      px      :     0.915153
      py      :     1.021900
      dz2     :     0.027646  d :     0.101501
      dxz     :     0.016508
      dyz     :     0.008556
      dx2y2   :     0.030754
      dxy     :     0.018037

  5 C s       :     1.085422  s :     1.085422
      pz      :     0.950976  p :     2.864060
      px      :     0.938266
      py      :     0.974819
      dz2     :     0.025315  d :     0.115457
      dxz     :     0.019128
      dyz     :     0.025568
      dx2y2   :     0.022885
      dxy     :     0.022561

  6 C s       :     1.018509  s :     1.018509
      pz      :     0.959706  p :     2.867013
      px      :     0.961277
      py      :     0.946030
      dz2     :     0.019424  d :     0.092488
      dxz     :     0.012292
      dyz     :     0.023118
      dx2y2   :     0.016820
      dxy     :     0.020834

  7 C s       :     1.045761  s :     1.045761
      pz      :     1.021866  p :     2.879390
      px      :     1.014630
      py      :     0.842894
      dz2     :     0.014859  d :     0.119151
      dxz     :     0.020390
      dyz     :     0.027661
      dx2y2   :     0.025650
      dxy     :     0.030592

  8 C s       :     1.070511  s :     1.070511
      pz      :     0.963671  p :     2.888220
      px      :     0.915955
      py      :     1.008595
      dz2     :     0.020546  d :     0.109995
      dxz     :     0.025537
      dyz     :     0.017828
      dx2y2   :     0.021661
      dxy     :     0.024422

  9 C s       :     1.100436  s :     1.100436
      pz      :     0.939864  p :     2.852887
      px      :     0.924963
      py      :     0.988060
      dz2     :     0.031923  d :     0.142215
      dxz     :     0.033631
      dyz     :     0.024231
      dx2y2   :     0.029816
      dxy     :     0.022614

 10 C s       :     0.959892  s :     0.959892
      pz      :     1.016988  p :     3.019386
      px      :     0.969498
      py      :     1.032901
      dz2     :     0.019141  d :     0.076098
      dxz     :     0.015267
      dyz     :     0.005493
      dx2y2   :     0.022894
      dxy     :     0.013302

 11 C s       :     0.949029  s :     0.949029
      pz      :     0.954100  p :     3.033042
      px      :     1.030387
      py      :     1.048556
      dz2     :     0.017612  d :     0.074071
      dxz     :     0.016141
      dyz     :     0.016591
      dx2y2   :     0.015734
      dxy     :     0.007993

 12 C s       :     1.005590  s :     1.005590
      pz      :     1.047941  p :     2.974070
      px      :     0.929183
      py      :     0.996946
      dz2     :     0.013015  d :     0.099584
      dxz     :     0.019671
      dyz     :     0.023954
      dx2y2   :     0.022147
      dxy     :     0.020798

 13 C s       :     0.993062  s :     0.993062
      pz      :     0.998494  p :     2.963088
      px      :     0.979114
      py      :     0.985479
      dz2     :     0.028036  d :     0.100785
      dxz     :     0.010738
      dyz     :     0.014830
      dx2y2   :     0.017132
      dxy     :     0.030049

 14 C s       :     0.950598  s :     0.950598
      pz      :     0.983579  p :     3.068974
      px      :     1.047014
      py      :     1.038381
      dz2     :     0.018858  d :     0.074329
      dxz     :     0.010151
      dyz     :     0.020081
      dx2y2   :     0.015048
      dxy     :     0.010192

 15 H s       :     0.920962  s :     0.920962
      pz      :     0.012191  p :     0.045711
      px      :     0.017986
      py      :     0.015534

 16 H s       :     0.893409  s :     0.893409
      pz      :     0.010907  p :     0.044178
      px      :     0.021056
      py      :     0.012215

 17 H s       :     0.922578  s :     0.922578
      pz      :     0.013259  p :     0.044998
      px      :     0.010908
      py      :     0.020831

 18 H s       :     0.931728  s :     0.931728
      pz      :     0.023586  p :     0.047963
      px      :     0.014112
      py      :     0.010265

 19 H s       :     0.924041  s :     0.924041
      pz      :     0.023384  p :     0.043822
      px      :     0.009837
      py      :     0.010600

 20 H s       :     0.913279  s :     0.913279
      pz      :     0.012241  p :     0.043095
      px      :     0.016605
      py      :     0.014250

 21 H s       :     0.921091  s :     0.921091
      pz      :     0.010132  p :     0.043018
      px      :     0.010434
      py      :     0.022452

 22 H s       :     0.910456  s :     0.910456
      pz      :     0.023086  p :     0.042368
      px      :     0.010149
      py      :     0.009133

 23 H s       :     0.953480  s :     0.953480
      pz      :     0.023360  p :     0.051230
      px      :     0.015484
      py      :     0.012386

 24 H s       :     0.912479  s :     0.912479
      pz      :     0.017929  p :     0.046412
      px      :     0.016979
      py      :     0.011505

 25 H s       :     0.913832  s :     0.913832
      pz      :     0.021088  p :     0.044376
      px      :     0.010511
      py      :     0.012778

 26 H s       :     0.921830  s :     0.921830
      pz      :     0.013064  p :     0.042998
      px      :     0.017699
      py      :     0.012235

 27 H s       :     0.926396  s :     0.926396
      pz      :     0.022931  p :     0.044127
      px      :     0.010263
      py      :     0.010932

 28 H s       :     0.921618  s :     0.921618
      pz      :     0.010019  p :     0.043151
      px      :     0.009896
      py      :     0.023236

 29 H s       :     0.903106  s :     0.903106
      pz      :     0.013301  p :     0.043003
      px      :     0.015113
      py      :     0.014589

 30 H s       :     0.921152  s :     0.921152
      pz      :     0.010609  p :     0.043491
      px      :     0.010824
      py      :     0.022057

 31 H s       :     0.929534  s :     0.929534
      pz      :     0.011853  p :     0.047118
      px      :     0.023362
      py      :     0.011903

 32 H s       :     0.911792  s :     0.911792
      pz      :     0.015121  p :     0.042871
      px      :     0.010360
      py      :     0.017390

 33 H s       :     0.924002  s :     0.924002
      pz      :     0.018234  p :     0.043064
      px      :     0.012135
      py      :     0.012695

 34 H s       :     0.946079  s :     0.946079
      pz      :     0.022606  p :     0.043508
      px      :     0.011170
      py      :     0.009732

 35 H s       :     0.903516  s :     0.903516
      pz      :     0.009444  p :     0.042940
      px      :     0.018367
      py      :     0.015129

 36 H s       :     0.915092  s :     0.915092
      pz      :     0.018047  p :     0.045026
      px      :     0.010752
      py      :     0.016227

 37 H s       :     0.922986  s :     0.922986
      pz      :     0.011444  p :     0.043865
      px      :     0.012209
      py      :     0.020212

 38 H s       :     0.892786  s :     0.892786
      pz      :     0.010461  p :     0.044202
      px      :     0.023145
      py      :     0.010596



                     *******************************
                     * LOEWDIN POPULATION ANALYSIS *
                     *******************************

----------------------
LOEWDIN ATOMIC CHARGES
----------------------
   0 C :   -0.110508
   1 C :   -0.031313
   2 C :   -0.061794
   3 C :   -0.092454
   4 C :   -0.086445
   5 C :   -0.046979
   6 C :   -0.035104
   7 C :   -0.051865
   8 C :   -0.039465
   9 C :   -0.064418
  10 C :   -0.115106
  11 C :   -0.107573
  12 C :   -0.084175
  13 C :   -0.090473
  14 C :   -0.122673
  15 H :    0.047967
  16 H :    0.057064
  17 H :    0.050075
  18 H :    0.029894
  19 H :    0.048368
  20 H :    0.048734
  21 H :    0.049333
  22 H :    0.053564
[...]
 81:   1511.94   0.000304    1.54  0.000063  ( 0.004624 -0.002861 -0.005762)
 82:   1513.56   0.000536    2.71  0.000110  ( 0.001808 -0.010139  0.002088)
 83:   1515.57   0.000923    4.66  0.000190  ( 0.013095 -0.000692  0.004254)
 84:   1520.94   0.000783    3.96  0.000161  (-0.006712  0.005985  0.008931)
 85:   1523.28   0.003349   16.93  0.000686  (-0.000266 -0.006129 -0.025466)
 86:   1525.52   0.000710    3.59  0.000145  ( 0.003413  0.010956 -0.003691)
 87:   1527.75   0.001317    6.65  0.000269  (-0.013013  0.009278 -0.003676)
 88:   1534.93   0.002691   13.60  0.000547  ( 0.020157 -0.011195  0.003929)
 89:   1537.08   0.003070   15.51  0.000623  ( 0.021739  0.010180  0.006859)
 90:   1558.66   0.000192    0.97  0.000038  ( 0.005768 -0.000351  0.002245)
 91:   1791.65   0.001125    5.69  0.000196  (-0.000402 -0.008459  0.011147)
 92:   1797.37   0.000577    2.92  0.000100  (-0.007378 -0.005400  0.004075)
 93:   3078.48   0.002467   12.47  0.000250  (-0.011993  0.006369  0.008103)
 94:   3087.49   0.009519   48.11  0.000962  ( 0.028238  0.012150 -0.004140)
 95:   3092.53   0.007418   37.49  0.000749  ( 0.002087 -0.018159 -0.020357)
 96:   3094.69   0.007119   35.98  0.000718  ( 0.011677 -0.024105  0.000699)
 97:   3097.56   0.011138   56.29  0.001122  ( 0.009735 -0.006013  0.031483)
 98:   3098.56   0.009425   47.63  0.000949  ( 0.002668  0.029424  0.008734)
 99:   3102.80   0.006408   32.38  0.000644  ( 0.008468 -0.021208  0.011090)
100:   3118.51   0.012167   61.49  0.001218  ( 0.019658  0.028525 -0.004180)
101:   3137.27   0.001333    6.74  0.000133  ( 0.006304  0.005782  0.007709)
102:   3158.73   0.002760   13.95  0.000273  (-0.004279 -0.014271 -0.007121)
103:   3160.77   0.003118   15.76  0.000308  ( 0.015025 -0.008744  0.002378)
104:   3163.45   0.004692   23.71  0.000463  (-0.011281 -0.002206 -0.018186)
105:   3169.53   0.001658    8.38  0.000163  ( 0.011267 -0.005978  0.000728)
106:   3170.29   0.000011    0.05  0.000001  (-0.000567 -0.000412  0.000748)
107:   3171.84   0.007604   38.43  0.000748  ( 0.008983 -0.025247  0.005475)
108:   3176.59   0.000450    2.27  0.000044  ( 0.000150 -0.000002 -0.006648)
109:   3181.16   0.003066   15.49  0.000301  (-0.002350 -0.012283  0.012016)
110:   3188.37   0.003953   19.98  0.000387  (-0.004802 -0.003308 -0.018785)
111:   3190.41   0.007897   39.91  0.000772  (-0.001413  0.003370  0.027552)
112:   3207.66   0.001237    6.25  0.000120  (-0.002076  0.008537  0.006571)
113:   3218.73   0.003449   17.43  0.000334  (-0.012753 -0.004940  0.012139)
114:   3220.58   0.003054   15.43  0.000296  (-0.008413 -0.013983 -0.005444)
115:   3223.78   0.001793    9.06  0.000174  ( 0.011970  0.005440  0.000827)
116:   3242.28   0.003312   16.74  0.000319  (-0.010875 -0.004032  0.013573)

* The epsilon (eps) is given for a Dirac delta lineshape.
** The dipole moment derivative (T) already includes vibrational overlap.

The first frequency considered to be a vibration is 6
The total number of vibrations considered is 111


--------------------------
THERMOCHEMISTRY AT 298.15K
--------------------------

Temperature         ...   298.15 K
Pressure            ...     1.00 atm
Total Mass          ...   204.36 AMU
Quasi RRHO          ...     True
Cut-Off Frequency   ...     1.00 cm^-1

Throughout the following assumptions are being made:
  (1) The electronic state is orbitally nondegenerate
  (2) There are no thermally accessible electronically excited states
  (3) Hindered rotations indicated by low frequency modes are not
      treated as such but are treated as vibrations and this may
      cause some error
  (4) All equations used are the standard statistical mechanics
      equations for an ideal gas
  (5) All vibrations are strictly harmonic

freq.      63.18  E(vib)   ...       0.51 
freq.     104.71  E(vib)   ...       0.46 
freq.     104.82  E(vib)   ...       0.46 
freq.     144.11  E(vib)   ...       0.41 
freq.     149.28  E(vib)   ...       0.40 
freq.     165.00  E(vib)   ...       0.39 
freq.     170.12  E(vib)   ...       0.38 
freq.     192.92  E(vib)   ...       0.36 
freq.     212.01  E(vib)   ...       0.34 
freq.     213.99  E(vib)   ...       0.34 
freq.     238.19  E(vib)   ...       0.32 
freq.     252.32  E(vib)   ...       0.30 
freq.     275.62  E(vib)   ...       0.28 
freq.     291.46  E(vib)   ...       0.27 
freq.     336.70  E(vib)   ...       0.24 
freq.     362.33  E(vib)   ...       0.22 
freq.     380.99  E(vib)   ...       0.21 
freq.     397.31  E(vib)   ...       0.20 
freq.     432.07  E(vib)   ...       0.18 
freq.     455.91  E(vib)   ...       0.16 
freq.     461.99  E(vib)   ...       0.16 
freq.     492.58  E(vib)   ...       0.14 
freq.     512.94  E(vib)   ...       0.13 
freq.     525.19  E(vib)   ...       0.13 
freq.     559.34  E(vib)   ...       0.12 
freq.     597.97  E(vib)   ...       0.10 
freq.     665.35  E(vib)   ...       0.08 
freq.     716.80  E(vib)   ...       0.07 
freq.     769.64  E(vib)   ...       0.05 
freq.     790.18  E(vib)   ...       0.05 
freq.     828.38  E(vib)   ...       0.04 
freq.     864.18  E(vib)   ...       0.04 
freq.     900.62  E(vib)   ...       0.03 
freq.     907.52  E(vib)   ...       0.03 
freq.     926.38  E(vib)   ...       0.03 
freq.     936.89  E(vib)   ...       0.03 
freq.     960.57  E(vib)   ...       0.03 
freq.     986.92  E(vib)   ...       0.02 
freq.     989.46  E(vib)   ...       0.02 
freq.    1009.81  E(vib)   ...       0.02 
freq.    1014.75  E(vib)   ...       0.02 
freq.    1019.46  E(vib)   ...       0.02 
freq.    1034.37  E(vib)   ...       0.02 
freq.    1043.86  E(vib)   ...       0.02 
freq.    1062.98  E(vib)   ...       0.02 
freq.    1078.59  E(vib)   ...       0.02 
freq.    1081.81  E(vib)   ...       0.02 
freq.    1092.64  E(vib)   ...       0.02 
freq.    1126.06  E(vib)   ...       0.01 
freq.    1137.16  E(vib)   ...       0.01 
freq.    1175.23  E(vib)   ...       0.01 
freq.    1191.03  E(vib)   ...       0.01 
freq.    1217.03  E(vib)   ...       0.01 
freq.    1230.60  E(vib)   ...       0.01 
freq.    1239.36  E(vib)   ...       0.01 
freq.    1244.84  E(vib)   ...       0.01 
freq.    1265.27  E(vib)   ...       0.01 
freq.    1286.06  E(vib)   ...       0.01 
freq.    1296.04  E(vib)   ...       0.01 
freq.    1315.99  E(vib)   ...       0.01 
freq.    1350.64  E(vib)   ...       0.01 
freq.    1367.69  E(vib)   ...       0.01 
freq.    1386.11  E(vib)   ...       0.00 
freq.    1403.81  E(vib)   ...       0.00 
freq.    1412.89  E(vib)   ...       0.00 
freq.    1417.81  E(vib)   ...       0.00 
freq.    1436.45  E(vib)   ...       0.00 
freq.    1439.60  E(vib)   ...       0.00 
freq.    1449.14  E(vib)   ...       0.00 
freq.    1456.45  E(vib)   ...       0.00 
freq.    1459.42  E(vib)   ...       0.00 
freq.    1471.55  E(vib)   ...       0.00 
freq.    1504.13  E(vib)   ...       0.00 
freq.    1506.40  E(vib)   ...       0.00 
freq.    1510.70  E(vib)   ...       0.00 
freq.    1511.94  E(vib)   ...       0.00 
freq.    1513.56  E(vib)   ...       0.00 
freq.    1515.57  E(vib)   ...       0.00 
freq.    1520.94  E(vib)   ...       0.00 
freq.    1523.28  E(vib)   ...       0.00 
freq.    1525.52  E(vib)   ...       0.00 
freq.    1527.75  E(vib)   ...       0.00 
freq.    1534.93  E(vib)   ...       0.00 
freq.    1537.08  E(vib)   ...       0.00 
freq.    1558.66  E(vib)   ...       0.00 
freq.    1791.65  E(vib)   ...       0.00 
freq.    1797.37  E(vib)   ...       0.00 
freq.    3078.48  E(vib)   ...       0.00 
freq.    3087.49  E(vib)   ...       0.00 
freq.    3092.53  E(vib)   ...       0.00 
freq.    3094.69  E(vib)   ...       0.00 
freq.    3097.56  E(vib)   ...       0.00 
freq.    3098.56  E(vib)   ...       0.00 
freq.    3102.80  E(vib)   ...       0.00 
freq.    3118.51  E(vib)   ...       0.00 
freq.    3137.27  E(vib)   ...       0.00 
freq.    3158.73  E(vib)   ...       0.00 
freq.    3160.77  E(vib)   ...       0.00 
freq.    3163.45  E(vib)   ...       0.00 
freq.    3169.53  E(vib)   ...       0.00 
freq.    3170.29  E(vib)   ...       0.00 
freq.    3171.84  E(vib)   ...       0.00 
freq.    3176.59  E(vib)   ...       0.00 
freq.    3181.16  E(vib)   ...       0.00 
freq.    3188.37  E(vib)   ...       0.00 
freq.    3190.41  E(vib)   ...       0.00 
freq.    3207.66  E(vib)   ...       0.00 
freq.    3218.73  E(vib)   ...       0.00 
freq.    3220.58  E(vib)   ...       0.00 
freq.    3223.78  E(vib)   ...       0.00 
freq.    3242.28  E(vib)   ...       0.00 

------------
INNER ENERGY
------------

The inner energy is: U= E(el) + E(ZPE) + E(vib) + E(rot) + E(trans)
    E(el)   - is the total energy from the electronic structure calculation
              = E(kin-el) + E(nuc-el) + E(el-el) + E(nuc-nuc)
    E(ZPE)  - the the zero temperature vibrational energy from the frequency calculation
    E(vib)  - the the finite temperature correction to E(ZPE) due to population
              of excited vibrational states
    E(rot)  - is the rotational thermal energy
    E(trans)- is the translational thermal energy

Summary of contributions to the inner energy U:
Electronic energy                ...    -99.88452168 Eh
Zero point energy                ...      0.36378232 Eh     228.28 kcal/mol
Thermal vibrational correction   ...      0.01292049 Eh       8.11 kcal/mol
Thermal rotational correction    ...      0.00141627 Eh       0.89 kcal/mol
Thermal translational correction ...      0.00141627 Eh       0.89 kcal/mol
-----------------------------------------------------------------------
Total thermal energy                    -99.50498633 Eh


Summary of corrections to the electronic energy:
(perhaps to be used in another calculation)
Total thermal correction                  0.01575303 Eh       9.89 kcal/mol
Non-thermal (ZPE) correction              0.36378232 Eh     228.28 kcal/mol
-----------------------------------------------------------------------
Total correction                          0.37953535 Eh     238.16 kcal/mol


--------
ENTHALPY
--------

The enthalpy is H = U + kB*T
                kB is Boltzmann's constant
Total thermal energy              ...    -99.50498633 Eh 
Thermal Enthalpy correction       ...      0.00094421 Eh       0.59 kcal/mol
-----------------------------------------------------------------------
Total Enthalpy                    ...    -99.50404213 Eh


Note: Only C1 symmetry has been detected, increase convergence thresholds 
      if your molecule has a higher symmetry. Symmetry factor of 1.0 is   
      used for the rotational entropy correction. 
 

Note: Rotational entropy computed according to Herzberg 
Infrared and Raman Spectra, Chapter V,1, Van Nostrand Reinhold, 1945 
Point Group:  C1, Symmetry Number:   1  
Rotational constants in cm-1:     0.029303     0.016282     0.013461 

Vibrational entropy computed according to the QRRHO of S. Grimme
Chem.Eur.J. 2012 18 9955 using a reference frequency of 100.0 cm-1


-------
ENTROPY
-------

The entropy contributions are T*S = T*(S(el)+S(vib)+S(rot)+S(trans))
     S(el)   - electronic entropy
     S(vib)  - vibrational entropy
     S(rot)  - rotational entropy
     S(trans)- translational entropy
The entropies will be listed as multiplied by the temperature to get
units of energy

Electronic entropy                ...      0.00000000 Eh      0.00 kcal/mol
Vibrational entropy               ...      0.02192173 Eh     13.76 kcal/mol
Rotational entropy                ...      0.01515498 Eh      9.51 kcal/mol
Translational entropy             ...      0.01988345 Eh     12.48 kcal/mol
-----------------------------------------------------------------------
Final entropy term                ...      0.05696016 Eh     35.74 kcal/mol

In case the symmetry of your molecule has not been determined correctly
or in case you have a reason to use a different symmetry number we print 
out the resulting rotational entropy values for sn=1,12:

 non-linear molecules -----------------------------------
|  sn= 1 | S(rot)=       0.01515498 Eh      9.51 kcal/mol|
|  sn= 2 | S(rot)=       0.01450052 Eh      9.10 kcal/mol|
|  sn= 3 | S(rot)=       0.01411769 Eh      8.86 kcal/mol|
|  sn= 4 | S(rot)=       0.01384607 Eh      8.69 kcal/mol|
|  sn= 5 | S(rot)=       0.01363538 Eh      8.56 kcal/mol|
|  sn= 6 | S(rot)=       0.01346323 Eh      8.45 kcal/mol|
|  sn= 7 | S(rot)=       0.01331769 Eh      8.36 kcal/mol|
|  sn= 8 | S(rot)=       0.01319161 Eh      8.28 kcal/mol|
|  sn= 9 | S(rot)=       0.01308040 Eh      8.21 kcal/mol|
|  sn=10 | S(rot)=       0.01298092 Eh      8.15 kcal/mol|
|  sn=11 | S(rot)=       0.01289093 Eh      8.09 kcal/mol|
|  sn=12 | S(rot)=       0.01280878 Eh      8.04 kcal/mol|
 linear molecules ---------------------------------------
|  Dinfh | S(rot)=       0.00939330 Eh      5.89 kcal/mol|
|  Cinfv | S(rot)=       0.01004776 Eh      6.31 kcal/mol|
 --------------------------------------------------------


-------------------
GIBBS FREE ENERGY
-------------------

The Gibbs free energy is G = H - T*S

Total enthalpy                    ...    -99.50404213 Eh 
Total entropy correction          ...     -0.05696016 Eh    -35.74 kcal/mol
-----------------------------------------------------------------------
Final Gibbs free energy         ...    -99.56100229 Eh

For completeness - the Gibbs free energy minus the electronic energy
G-E(el)                           ...      0.32351940 Eh    203.01 kcal/mol


Maximum memory used throughout the entire PROP-calculation: 241.3 MB

--------------------------------
SUGGESTED CITATIONS FOR THIS RUN
--------------------------------

Below you find a list of papers that are relevant to this ORCA run
We neither can nor want to force you to cite these papers, but we appreciate if you do
You receive ORCA, which is the product of decades of hard work by many enthusiastic individuals, for free
The only thing we kindly ask in return is that you cite our papers,
We deeply appreciate it, if you show your appreciation for ORCA by not just citing the generic ORCA reference.

Please note that relegating all ORCA citations to the supporting information does *not* help us.
SI sections are not indexed - citations you put there will not count into any citation statistics
But we need these citations in order to attract the funding resources that allow us to do what we are doing

Therefore, if you are a happy ORCA user, please consider citing a few of the papers listed below in the main body of your paper

In addition to the list printed below, the program has created the file ./output/bicyclogermacrene/bicyclogermacrene.bibtex that contains the list in bibtex format
You can import this file easily into all common literature databanks and citation aid programs


List of essential papers. We consider these as the minimum necessary citations

  1. Neese,F.
     Software update: the ORCA program system, version 5.0
     WIRES Comput. Molec. Sci., 2022 12(1)e1606
     doi.org/10.1002/wcms.1606
  2. Mueller,M.; Hansen,A.; Grimme,S.
     wB97X-3c: A composite range-separated hybrid DFT method with a molecule-optimized polarized valence double-zeta basis set
     J. Chem. Phys., 2023 158 014103
     doi.org/10.1063/5.0133026

List of papers to cite with high priority. The work reported in these papers was absolutely
necessary for this run to complete.
Our perspective: the developers of density functionals and basis sets usually get cited in chemistry papers
Good! But without the algorithms to do something with them, the functionals or basis sets would not do anything.
Hence, in our opinion, the algorithm design and method developments papers are equally worthy of getting cited

  1. Neese,F.
     An improvement of the resolution of the identity approximation for the formation of the Coulomb matrix
     J. Comp. Chem., 2003 24(14)1740-1747
     doi.org/10.1002/jcc.10318
  2. Neese,F.; Wennmohs,F.; Hansen,A.; Becker,U.
     Efficient, approximate and parallel Hartree-Fock and hybrid DFT calculations. A 'chain-of-spheres' algorithm for the Hartree-Fock exchange
     Chem. Phys., 2009 356(1-3)98-109
     doi.org/10.1016/j.chemphys.2008.10.036
  3. Bykov,D.; Petrenko,T.; Izsak,R.; Kossmann,S.; Becker,U.; Valeev,E.; Neese,F.
     Efficient implementation of the analytic second derivatives of Hartree-Fock and hybrid DFT energies: a detailed analysis of different approximations
     Molec. Phys., 2015 113 1961-1977
     doi.org/10.1080/00268976.2015.1025114
  4. Helmich-Paris,B.; de Souza,B.; Neese,F.; Izsák,R.
     An improved chain of spheres for exchange algorithm
     J. Chem. Phys., 2021 155 104109
     doi.org/doi: 10.1063/5.0058766.
  5. Neese,F.
     The SHARK Integral Generation and Digestion System
     J. Comp. Chem., 2022  1-16
     doi.org/10.1002/jcc.26942
  6. Caldeweyher,E.; Bannwarth,C.; Grimme,S.
     Extension of the D3 dispersion coefficient model
     J. Chem. Phys., 2017 147 034112
     doi.org/10.1063/1.4993215
  7. Caldeweyher,E.; Ehlert,S.; Hansen,A.; Neugebauer,H.; Spicher,S.; Bannwarth,C.; Grimme,S.
     A generally applicable atomic-charge dependent London dispersion correction
     J. Chem. Phys., 2019 150 154122
     doi.org/10.1063/1.5090222
  8. Caldeweyher,E.; Mewes,J.; Ehlert,S.; Grimme,S.
     Extension and evaluation of the D4 London-dispersion model for periodic systems
     Phys. Chem. Chem. Phys., 2020 22(16)8499-8512
     doi.org/10.1039/D0CP00502A
  9. Wittmann,L.; Gordiy,I.; Friede,M.; Helmich-Paris,B.; Grimme,S.; Hansen,A.; Bursch,M.
     Extension of the D3 and D4 London Dispersion Corrections to the full Actinides Series
     Phys. Chem. Chem. Phys., 2024 26(32)21379-21394
     doi.org/https://doi.org/10.1039/D4CP01514B 

List of suggested additional citations. These are papers that are important in the 'surrounding' of 
of this run, or papers that preceded the highly important papers. If you like your results we are grateful for a citation.

  1. Izsak,R.; Neese,F.
     An overlap fitted chain of spheres exchange method
     J. Chem. Phys., 2011 135 144105
     doi.org/10.1063/1.3646921
  2. Izsak,R.; Hansen,A.; Neese,F.
     The resolution of identity and chain of spheres approximations for the LPNO-CCSD singles Fock term
     Molec. Phys., 2012 110 2413-2417
     doi.org/10.1080/00268976.2012.687466
  3. Neese,F.
     The ORCA program system
     WIRES Comput. Molec. Sci., 2012 2(1)73-78
     doi.org/10.1002/wcms.81
  4. Izsak,R.; Neese,F.; Klopper,W.
     Robust fitting techniques in the chain of spheres approximation to the Fock exchange: The role of the complementary space
     J. Chem. Phys., 2013 139 
     doi.org/10.1063/1.4819264
  5. Neese,F.
     Software update: the ORCA program system, version 4.0
     WIRES Comput. Molec. Sci., 2018 8(1)1-6
     doi.org/10.1002/wcms.1327
  6. Neese,F.; Wennmohs,F.; Becker,U.; Riplinger,C.
     The ORCA quantum chemistry program package
     J. Chem. Phys., 2020 152 Art. No. L224108
     doi.org/10.1063/5.0004608

List of optional additional citations

  1. Neese,F.
     Approximate second-order SCF convergence for spin unrestricted wavefunctions
     Chem. Phys. Lett., 2000 325(1-3)93-98
     doi.org/10.1016/s0009-2614(00)00662-x

Timings for individual modules:

Sum of individual times          ...     2210.097 sec (=  36.835 min)
Startup calculation              ...       94.063 sec (=   1.568 min)   4.3 %
SCF iterations                   ...     1365.172 sec (=  22.753 min)  61.8 %
Property integrals               ...      143.098 sec (=   2.385 min)   6.5 %
SCF Response                     ...       90.882 sec (=   1.515 min)   4.1 %
Property calculations            ...      224.074 sec (=   3.735 min)  10.1 %
SCF Gradient evaluation          ...      292.355 sec (=   4.873 min)  13.2 %
Geometry relaxation              ...        0.451 sec (=   0.008 min)   0.0 %
                             ****ORCA TERMINATED NORMALLY****
TOTAL RUN TIME: 0 days 0 hours 36 minutes 58 seconds 887 msec
