
                                 *****************
                                 * O   R   C   A *
                                 *****************

                                            #,                                       
                                            ###                                      
                                            ####                                     
                                            #####                                    
                                            ######                                   
                                           ########,                                 
                                     ,,################,,,,,                         
                               ,,#################################,,                 
                          ,,##########################################,,             
                       ,#########################################, ''#####,          
                    ,#############################################,,   '####,        
                  ,##################################################,,,,####,       
                ,###########''''           ''''###############################       
              ,#####''   ,,,,##########,,,,          '''####'''          '####       
            ,##' ,,,,###########################,,,                        '##       
           ' ,,###''''                  '''############,,,                           
         ,,##''                                '''############,,,,        ,,,,,,###''
      ,#''                                            '''#######################'''  
     '                                                          ''''####''''         
             ,#######,   #######,   ,#######,      ##                                
            ,#'     '#,  ##    ##  ,#'     '#,    #''#        ,####,   ,####,        
            ##       ##  ##   ,#'  ##            #'  '#       #'       #'  '#        
            ##       ##  #######   ##           ,######,      #####,   #    #        
            '#,     ,#'  ##    ##  '#,     ,#' ,#      #,     #,   #   #,  ,#        
             '#######'   ##     ##  '#######'  #'      '#     '####' # '####'        



                #########################################################
                #                        -***-                          #
                #          Department of theory and spectroscopy        #
                #                                                       #
                #                      Frank Neese                      #
                #                                                       #
                #     Directorship, Architecture, Infrastructure        #
                #                    SHARK, DRIVERS                     #
                #        Core code/Algorithms in most modules           #
                #                                                       #
                #        Max Planck Institute fuer Kohlenforschung      #
                #                Kaiser Wilhelm Platz 1                 #
                #                 D-45470 Muelheim/Ruhr                 #
                #                      Germany                          #
                #                                                       #
                #                  All rights reserved                  #
                #                        -***-                          #
                #########################################################


                         Program Version 6.0.1  -  RELEASE   -


 With contributions from (in alphabetic order):
[Max-Planck-Institut fuer Kohlenforschung]                               
  Daniel Aravena         : Magnetic Suceptibility                        
  Michael Atanasov       : Ab Initio Ligand Field Theory (pilot matlab implementation)
  Alexander A. Auer      : GIAO ZORA, VPT2 properties, NMR spectrum      
  Ute Becker             : All parallelization in ORCA, NUMFREQ, NUMCALC 
  Giovanni Bistoni       : ED, misc. LED, open-shell LED, HFLD           
  Martin Brehm           : Molecular dynamics                            
  Dmytro Bykov           : pre 5.0 version of the SCF Hessian            
  Marcos Casanova-Páez   : Triplet and SCS-CIS(D). UHF-(DLPNO)-IP/EA/STEOM-CCSD. UHF-CVS-IP/STEOM-CCSD   
  Vijay G. Chilkuri      : MRCI spin determinant printing, contributions to CSF-ICE 
  Pauline Colinet        : FMM embedding                                 
  Dipayan Datta          : RHF DLPNO-CCSD density                        
  Achintya Kumar Dutta   : EOM-CC, STEOM-CC                              
  Nicolas Foglia         : Exact transition moments, OPA infrastructure, MCD improvements    
  Dmitry Ganyushin       : Spin-Orbit,Spin-Spin,Magnetic field MRCI      
  Miquel Garcia-Rates    : C-PCM and meta-GGA Hessian, CCSD/C-PCM, Gaussian charge scheme 
  Tiago L. C. Gouveia    : GS-ROHF, GS-ROCIS                             
  Yang Guo               : DLPNO-NEVPT2, F12-NEVPT2, CIM, IAO-localization        
  Andreas Hansen         : Spin unrestricted coupled pair/coupled cluster methods 
  Ingolf Harden          : AUTO-CI MPn and infrastructure                
  Benjamin Helmich-Paris : MC-RPA, TRAH-(SCF,CASSCF), AVAS, COSX integrals, SCF dyn. polar. 
  Lee Huntington         : MR-EOM, pCC                                   
  Robert Izsak           : Overlap fitted RIJCOSX, COSX-SCS-MP3, EOM     
  Riya Kayal             : Wick's Theorem for AUTO-CI, AUTO-CI UHF-CCSDT 
  Emily Kempfer          : AUTO-CI, RHF CISDT and CCSDT                  
  Christian Kollmar      : KDIIS, OOCD, Brueckner-CCSD(T), CCSD density, CASPT2, CASPT2-K, improved NEVPT2 
  Axel Koslowski         : Symmetry handling                             
  Simone Kossmann        : meta-GGA functionals, TD-DFT gradient, OOMP2, (MP2 Hessian; deprecated post 5.0) 
  Lucas Lang             : DCDCAS                                        
  Marvin Lechner         : AUTO-CI (C++ implementation), FIC-MRCC        
  Spencer Leger          : CASSCF response                               
  Dagmar Lenk            : GEPOL surface, SMD, ORCA-2-JSON               
  Dimitrios Liakos       : Extrapolation schemes; Compound Job, initial MDCI parallelization 
  Dimitrios Manganas     : Further ROCIS development; embedding schemes. LFT, Crystal Embedding 
  Dimitrios Pantazis     : SARC Basis sets                               
  Anastasios Papadopoulos: AUTO-CI, single reference methods and gradients 
  Taras Petrenko         : pre 6.0 DFT Hessian and TD-DFT gradient, (ASA, deprecated), ECA, 1-Electron XAS/XES, NRVS 
  Peter Pinski           : DLPNO-MP2, DLPNO-MP2 Gradient                 
  Christoph Reimann      : Effective Core Potentials                     
  Marius Retegan         : Local ZFS, SOC                                
  Christoph Riplinger    : Optimizer, TS searches, QM/MM, DLPNO-CCSD(T), (RO)-DLPNO pert. Triples 
  Michael Roemelt        : Original ROCIS implementation                 
  Masaaki Saitow         : Open-shell DLPNO-CCSD energy and density      
  Barbara Sandhoefer     : DKH picture change effects                    
  Kantharuban Sivalingam : CASSCF convergence/infrastructure, NEVPT2 and variants, FIC-MRCI 
  Bernardo de Souza      : ESD, SOC TD-DFT                               
  Georgi L. Stoychev     : AutoAux, RI-MP2 NMR, DLPNO-MP2 response, X2C  
  Van Anh Tran           : RI-MP2 g-tensors                              
  Willem Van den Heuvel  : Paramagnetic NMR                              
  Zikuan Wang            : NOTCH, Electric field optimization            
  Frank Wennmohs         : Technical directorship and infrastructure     
  Hang Xu                : AUTO-CI-Response properties                   
                                                                         
[FACCTs GmbH]                                                            
  Markus Bursch, Miquel Garcia-Rates, Christoph Riplinger, Bernardo de Souza, Georgi L. Stoychev 
                                                                 
  APM, Basis sets (HGBS, AHGBS, def-TZVP (Ac-Lr), def2-XVPD (La-Lu)), CI-OPT, improved COSX, DLPNO-Multilevel,           
  DOCKER, DRACO, updates on ESD, GOAT, IRC, LR-CPCM, MBIS, meta-GGA TD-DFT gradient, ML-optimized integration grids, 
  MM, NACMEs, nearIR, NEB, NEB-TS, NL-DFT gradient (VV10), 2- and 3-layer-ONIOM, interface openCOSMO-RS, QMMM,   
  Crystal-QMMM, SF, symmetry and pop. for TD-DFT, r2SCAN hybrids, SOLVATOR                                   
                                                                         
[Other institutions]                                                     
  V. Asgeirsson          : NEB                                           
  Christoph Bannwarth    : sTDA-DFT, sTD-DFT, PBEh-3c, B97-3c, D3        
  Sebastian Ehlert       : rSCAN, r2SCAN, r2SCAN-3c, D4, dhf basis sets  
  Marvin Friede          : D4 for Fr, Ra, Ac-Lr                          
  Lars Goerigk           : TD-DFT with DH, B97 family of functionals     
  Stefan Grimme          : VdW corrections, initial TS optimization, DFT functionals, gCP, sTDA/sTD-DF 
  Waldemar Hujo          : DFT-NL                                        
  H. Jonsson             : NEB                                           
  Holger Kruse           : gCP                                           
  Marcel Mueller         : wB97X-3c, vDZP basis set                      
  Hagen Neugebauer       : wr2SCAN                                       
  Tobias Risthaus        : range-separated hybrid DFT                    
  Lukas Wittmann         : regularized MP2, r2SCAN double-hybrids, wr2SCAN        
                                                                         
We gratefully acknowledge several colleagues who have allowed us to      
interface, adapt or use parts of their codes:                            
  Ed Valeev, F. Pavosevic, A. Kumar             : LibInt (2-el integral package), F12 methods 
  Garnet Chan, S. Sharma, J. Yang, R. Olivares  : DMRG                   
  Ulf Ekstrom                                   : XCFun DFT Library      
  Mihaly Kallay                                 : mrcc  (arbitrary order and MRCC methods)
  Frank Weinhold                                : gennbo (NPA and NBO analysis)           
  Simon Mueller                                 : openCOSMO-RS                            
  Christopher J. Cramer and Donald G. Truhlar   : smd solvation model                     
  S Lehtola, MJT Oliveira, MAL Marques          : LibXC Library                           
  Liviu Ungur et al                             : ANISO software                          


 Your calculation uses the libint2 library for the computation of 2-el integrals
 For citations please refer to: http://libint.valeyev.net

 Your ORCA version has been built with support for libXC version: 6.2.2
 For citations please refer to: https://libxc.gitlab.io

 This ORCA versions uses:
   CBLAS   interface :  Fast vector & matrix operations
   LAPACKE interface :  Fast linear algebra routines
   SCALAPACK package :  Parallel linear algebra routines
   Shared memory     :  Shared parallel matrices
   BLAS/LAPACK       :  OpenBLAS 0.3.27  USE64BITINT DYNAMIC_ARCH NO_AFFINITY SkylakeX SINGLE_THREADED
        Core in use  :  SkylakeX
   Copyright (c) 2011-2014, The OpenBLAS Project


Your calculation utilizes the atom-pairwise dispersion correction
based on EEQ partial charges (D4)


================================================================================

cite the ECPs for C  [vDZP-ECP], O  [vDZP-ECP] as follows:
   B-Ne (ecp-2-mwb), Al-Ar (ecp-10-mwb), Ga-Kr (ecp-28-mwb), Y-Cd (ecp-28-mwb), In-Xe (ecp-46-mwb):
     A. Bergner, M. Dolg, W. Küchle, H. Stoll, and H. Preuß, Mol. Phys. 80, 1431 (1993)., T. Leininger, A. Berning, A. Nicklass, H. Stoll, H.-J. Werner, and H.-J.Flad, Chem. Phys. 217, 19 (1997).
   Na-Mg, K-Ca, Rb-Sr, Cs-Ba (CRENBL):
     L. Fernandez Pacios and P. A. Christiansen, J. Chem. Phys. 82, 2664 (1985)., M. M. Hurley, L. F. Pacios, P. A. Christiansen, R. B. Ross, and W. C. Ermler, J. Chem. Phys. 84, 6840 (1986)., L. A. LaJohn, P. A. Christiansen, R. B. Ross, T. Atashroo, and W. C. Ermler, J. Chem. Phys. 87, 2812 (1987)., R. B. Ross, J. M. Powers, T. Atashroo, W. C. Ermler, L. A. LaJohn, and P. A. Christiansen, J. Chem. Phys. 93, 6654 (1990). 
   Sc-Zn (ecp-10-mdf):
     M. Dolg, U. Wedig, H. Stoll, and H. Preuss, J. Chem. Phys. 86, 866 (1986). 
   Y-Cd (ecp-28-mwb), Hf-Hg (ecp-60-mwb):
     D. Andrae, U. Häußermann, M. Dolg, H. Stoll, and H. Preuß, Theor. Chim. Acta 77, 123 (1990). 
   La (ecp-46-mwb):
     M. Dolg, H. Stoll, and H. Preuss, J. Chem. Phys. 90, 1730 (1989)., M. Dolg, H. Stoll, and H. Preuss, Theor. Chim. Acta 85, 441 (1993).
   Ce-Lu (SBKJC-ecp):
     T. R. Cundari and W. J. Stevens, J. Chem. Phys. 98, 5555 (1993).
   Tl-Rn (ecp-78-mwb):
     W. Küchle, M. Dolg, H. Stoll, and H. Preuss, Mol. Phys. 74, 1245 (1991).

ECP parameters for C  [vDZP-ECP], O  [vDZP-ECP] have been obtained from:
MM, AH, SG, J. Chem. Phys. 158, 014103 (2023), 10.1063/5.0133026

----- Orbital basis set information -----
Your calculation utilizes the basis: vDZP
   Marcel Mueller, Andreas Hansen, Stefan Grimme 
   J. Chem. Phys. 158, 014103 (2023). DOI: 10.1063/5.0133026

----- AuxJ basis set information -----
Your calculation utilizes the auxiliary basis: def2/J
   F. Weigend, Phys. Chem. Chem. Phys. 8, 1057 (2006).

================================================================================
                                        WARNINGS
                       Please study these warnings very carefully!
================================================================================

WARNING: Frozen-Core approximation turned on, but there are no core electrons.
  ===> : Turning off frozen-core approximation


WARNING: Geometry Optimization
  ===> : Switching off AutoStart
         For restart on a previous wavefunction, please use MOREAD

================================================================================
                                       INPUT FILE
================================================================================
NAME = ./output/_e_sabinene_hydrate/_e_sabinene_hydrate.inp
|  1> ! wB97X-3c OPT FREQ TightSCF
|  2> %pal
|  3>   nprocs 40
|  4> end
|  5> * xyz 0 1
|  6> C     -2.695580     1.962941    -0.051316
|  7> C     -2.439771     0.450420    -0.205905
|  8> C     -3.578828    -0.313727     0.486080
|  9> C     -1.057412    -0.062049     0.311503
| 10> C     -0.770620    -1.574407     0.301693
| 11> C      0.720654    -1.749508     0.021174
| 12> C      1.140409    -0.458730    -0.697755
| 13> C      0.191254     0.651222    -0.209476
| 14> C     -0.211461     0.766996     1.269354
| 15> C      0.922266    -0.630400    -2.212565
| 16> O      2.527151    -0.124838    -0.521721
| 17> C      3.219566     0.114510     0.673585
| 18> O      2.670382    -0.017118     1.797233
| 19> C      4.649704     0.530096     0.601310
| 20> H     -3.659818     2.230077    -0.534447
| 21> H     -1.911848     2.568302    -0.546427
| 22> H     -2.764032     2.248314     1.019759
| 23> H     -2.490398     0.216627    -1.292074
| 24> H     -3.526017    -0.172898     1.587154
| 25> H     -3.523230    -1.398719     0.260094
| 26> H     -4.565719     0.047743     0.125365
| 27> H     -1.350764    -2.062449    -0.511212
| 28> H     -1.051082    -2.033387     1.274035
| 29> H      0.911528    -2.661581    -0.586434
| 30> H      1.259478    -1.871169     0.982408
| 31> H      0.016399     1.539568    -0.849450
| 32> H      0.307839     0.145675     2.022540
| 33> H     -0.597199     1.766303     1.547530
| 34> H      1.571882    -1.441853    -2.605550
| 35> H     -0.135888    -0.879743    -2.444976
| 36> H      1.186510     0.307686    -2.746806
| 37> H      5.225077    -0.222743     0.023490
| 38> H      5.086937     0.615065     1.619020
| 39> H      4.722630     1.513772     0.092786
| 40> *
| 41> 
| 42>                          ****END OF INPUT****
================================================================================

                       *****************************
                       * Geometry Optimization Run *
                       *****************************

Geometry optimization settings:
Update method            Update   .... BFGS
Choice of coordinates    CoordSys .... (2022) Redundant Internals
Initial Hessian          InHess   .... Almloef's Model
Max. no of cycles        MaxIter  .... 102

Convergence Tolerances:
Energy Change            TolE     ....  5.0000e-06 Eh
Max. Gradient            TolMAXG  ....  3.0000e-04 Eh/bohr
RMS Gradient             TolRMSG  ....  1.0000e-04 Eh/bohr
Max. Displacement        TolMAXD  ....  4.0000e-03 bohr
RMS Displacement         TolRMSD  ....  2.0000e-03 bohr
Strict Convergence                .... False

------------------------------------------------------------------------------
                        ORCA OPTIMIZATION COORDINATE SETUP
------------------------------------------------------------------------------

The optimization will be done in redundant internal coordinates (2022)
Making redundant internal coordinates   ...  (2022 redundants) done
Evaluating the initial hessian          ...  (Almloef) done
Evaluating the coordinates              ...  done
Calculating the B-matrix                .... done
Calculating the G-matrix                .... done
Diagonalizing the G-matrix              .... done
Small eigenvalue found = 7.393e-03
Small eigenvalue found = 1.173e-02
The first mode is                       ....   85
The number of degrees of freedom        ....   96

    -----------------------------------------------------------------
                    Redundant Internal Coordinates


    -----------------------------------------------------------------
         Definition                    Initial Value    Approx d2E/dq
    -----------------------------------------------------------------
      1. B(C   1,C   0)                  1.5418         0.357766   
      2. B(C   2,C   1)                  1.5363         0.365029   
      3. B(C   3,C   1)                  1.5625         0.331592   
      4. B(C   4,C   3)                  1.5393         0.360972   
      5. B(C   5,C   4)                  1.5275         0.377025   
      6. B(C   6,C   5)                  1.5360         0.365490   
      7. B(C   7,C   3)                  1.5295         0.374275   
      8. B(C   7,C   6)                  1.5399         0.360227   
      9. B(C   8,C   7)                  1.5370         0.364024   
     10. B(C   8,C   3)                  1.5233         0.382891   
     11. B(C   9,C   6)                  1.5400         0.360054   
     12. B(O  10,C   6)                  1.4372         0.470523   
     13. B(C  11,O  10)                  1.4020         0.535549   
     14. B(O  12,C  11)                  1.2576         0.910205   
     15. B(C  13,C  11)                  1.4910         0.431042   
     16. B(H  14,C   0)                  1.1111         0.333248   
     17. B(H  15,C   0)                  1.1072         0.338084   
     18. B(H  16,C   0)                  1.1106         0.333914   
     19. B(H  17,C   1)                  1.1122         0.331900   
     20. B(H  18,C   2)                  1.1113         0.332998   
     21. B(H  19,C   2)                  1.1097         0.334996   
     22. B(H  20,C   2)                  1.1112         0.333139   
     23. B(H  21,C   4)                  1.1116         0.332679   
     24. B(H  22,C   4)                  1.1112         0.333117   
     25. B(H  23,C   5)                  1.1124         0.331619   
     26. B(H  24,C   5)                  1.1086         0.336255   
     27. B(H  25,C   7)                  1.1087         0.336146   
     28. B(H  26,C   8)                  1.1059         0.339676   
     29. B(H  27,C   8)                  1.1067         0.338669   
     30. B(H  28,C   9)                  1.1113         0.333049   
     31. B(H  29,C   9)                  1.1117         0.332508   
     32. B(H  30,C   9)                  1.1114         0.332856   
     33. B(H  31,C  13)                  1.1098         0.334815   
     34. B(H  32,C  13)                  1.1109         0.333472   
     35. B(H  33,C  13)                  1.1097         0.334905   
     36. A(H  15,C   0,H  16)          109.5373         0.284606   
     37. A(H  14,C   0,H  15)          106.7624         0.284518   
     38. A(C   1,C   0,H  16)          111.0400         0.318079   
     39. A(C   1,C   0,H  15)          111.9689         0.318723   
     40. A(C   1,C   0,H  14)          109.6489         0.317975   
     41. A(H  14,C   0,H  16)          107.7038         0.283970   
     42. A(C   2,C   1,H  17)          107.5523         0.318808   
     43. A(C   2,C   1,C   3)          110.1007         0.354653   
     44. A(C   3,C   1,H  17)          107.1412         0.313865   
     45. A(C   0,C   1,C   3)          115.8082         0.353447   
     46. A(C   0,C   1,H  17)          107.2528         0.317765   
     47. A(C   0,C   1,C   2)          108.6495         0.359260   
     48. A(H  18,C   2,H  20)          108.8213         0.283834   
     49. A(H  18,C   2,H  19)          108.8628         0.284079   
     50. A(H  19,C   2,H  20)          107.2449         0.284098   
     51. A(C   1,C   2,H  20)          110.5164         0.319002   
     52. A(C   1,C   2,H  19)          110.9440         0.319292   
     53. A(C   1,C   2,H  18)          110.3658         0.318980   
     54. A(C   1,C   3,C   7)          117.1640         0.356161   
     55. A(C   7,C   3,C   8)           60.4620         0.365002   
     56. A(C   1,C   3,C   8)          121.4030         0.357541   
     57. A(C   4,C   3,C   8)          115.8010         0.362751   
     58. A(C   1,C   3,C   4)          119.0102         0.353982   
     59. A(C   4,C   3,C   7)          107.6919         0.361344   
     60. A(H  21,C   4,H  22)          109.0775         0.283789   
     61. A(C   5,C   4,H  22)          111.0853         0.320688   
     62. A(C   3,C   4,C   5)          107.1985         0.361796   
     63. A(C   5,C   4,H  21)          108.9599         0.320619   
     64. A(C   3,C   4,H  21)          109.8030         0.318349   
     65. A(C   3,C   4,H  22)          110.6837         0.318418   
     66. A(C   4,C   5,C   6)          104.8583         0.362565   
     67. A(H  23,C   5,H  24)          107.4700         0.284062   
     68. A(C   6,C   5,H  24)          111.4216         0.319553   
     69. A(C   4,C   5,H  24)          109.1380         0.321181   
     70. A(C   6,C   5,H  23)          112.7349         0.318830   
     71. A(C   4,C   5,H  23)          111.2113         0.320452   
     72. A(C   9,C   6,O  10)          106.4424         0.373299   
     73. A(C   7,C   6,O  10)          112.8576         0.373330   
     74. A(C   5,C   6,O  10)          113.6782         0.374265   
     75. A(C   7,C   6,C   9)          107.7540         0.358841   
     76. A(C   5,C   6,C   7)          106.7905         0.359757   
     77. A(C   5,C   6,C   9)          109.1481         0.359728   
     78. A(C   3,C   7,C   8)           59.5694         0.361864   
     79. A(C   8,C   7,H  25)          116.9798         0.319327   
     80. A(C   6,C   7,H  25)          119.4522         0.318781   
     81. A(C   3,C   7,H  25)          116.2001         0.320779   
     82. A(C   3,C   7,C   6)          105.9662         0.361217   
     83. A(C   6,C   7,C   8)          121.3898         0.359511   
     84. A(H  26,C   8,H  27)          119.9858         0.285442   
     85. A(C   7,C   8,H  27)          113.6513         0.319717   
     86. A(C   3,C   8,H  27)          117.1242         0.322371   
     87. A(C   7,C   8,H  26)          119.3353         0.319872   
     88. A(C   3,C   8,H  26)          112.5357         0.322528   
     89. A(C   3,C   8,C   7)           59.9685         0.363273   
     90. A(C   6,C   9,H  30)          110.1847         0.318245   
     91. A(H  28,C   9,H  29)          108.5849         0.283757   
     92. A(C   6,C   9,H  29)          111.4360         0.318191   
     93. A(C   6,C   9,H  28)          110.2698         0.318275   
     94. A(H  28,C   9,H  30)          107.9000         0.283803   
     95. A(H  29,C   9,H  30)          108.3682         0.283732   
     96. A(C   6,O  10,C  11)          128.3634         0.397471   
     97. A(O  12,C  11,C  13)          119.4288         0.432813   
     98. A(O  10,C  11,C  13)          118.6836         0.393922   
     99. A(O  10,C  11,O  12)          121.8869         0.447157   
    100. A(H  32,C  13,H  33)          109.0340         0.284130   
    101. A(H  31,C  13,H  33)          109.1861         0.284308   
    102. A(C  11,C  13,H  33)          109.4084         0.328107   
    103. A(H  31,C  13,H  32)          108.9534         0.284118   
    104. A(C  11,C  13,H  32)          110.7575         0.327875   
    105. A(C  11,C  13,H  31)          109.4770         0.328092   
    106. D(C   3,C   1,C   0,H  16)    -66.3643         0.010278   
    107. D(C   2,C   1,C   0,H  14)    -60.7860         0.010278   
    108. D(C   3,C   1,C   0,H  15)     56.4240         0.010278   
    109. D(C   2,C   1,C   0,H  16)     58.1156         0.010278   
    110. D(C   3,C   1,C   0,H  14)    174.7341         0.010278   
    111. D(C   2,C   1,C   0,H  15)   -179.0961         0.010278   
    112. D(H  18,C   2,C   1,C   0)    -68.3948         0.010670   
    113. D(H  18,C   2,C   1,H  17)    175.8160         0.010670   
    114. D(H  19,C   2,C   1,C   3)    -61.3555         0.010670   
    115. D(H  19,C   2,C   1,C   0)    170.8522         0.010670   
    116. D(H  19,C   2,C   1,H  17)     55.0630         0.010670   
    117. D(H  18,C   2,C   1,C   3)     59.3975         0.010670   
    118. D(C   4,C   3,C   1,C   0)    174.9503         0.008945   
    119. D(C   4,C   3,C   1,H  17)    -65.4514         0.008945   
    120. D(C   4,C   3,C   1,C   2)     51.2241         0.008945   
    121. D(C   7,C   3,C   1,H  17)     67.0131         0.008945   
    122. D(C   7,C   3,C   1,C   2)   -176.3114         0.008945   
    123. D(C   7,C   3,C   1,C   0)    -52.5852         0.008945   
    124. D(H  21,C   4,C   3,C   8)   -173.2504         0.010450   
    125. D(H  21,C   4,C   3,C   7)   -108.1205         0.010450   
    126. D(C   5,C   4,C   3,C   8)    -55.0247         0.010450   
    127. D(C   5,C   4,C   3,C   7)     10.1052         0.010450   
    128. D(H  21,C   4,C   3,C   1)     28.3354         0.010450   
    129. D(C   5,C   4,C   3,C   1)    146.5611         0.010450   
    130. D(H  23,C   5,C   4,H  22)     93.4558         0.011339   
    131. D(H  23,C   5,C   4,C   3)   -145.5055         0.011339   
    132. D(C   6,C   5,C   4,H  22)   -144.4131         0.011339   
    133. D(C   6,C   5,C   4,H  21)     95.3975         0.011339   
    134. D(C   6,C   5,C   4,C   3)    -23.3745         0.011339   
    135. D(H  23,C   5,C   4,H  21)    -26.7336         0.011339   
    136. D(C   7,C   6,C   5,C   4)     28.0463         0.010695   
    137. D(C   9,C   6,C   5,H  24)    153.8858         0.010695   
    138. D(C   9,C   6,C   5,H  23)     32.9520         0.010695   
    139. D(C   9,C   6,C   5,C   4)    -88.1809         0.010695   
    140. D(C   7,C   6,C   5,H  24)    -89.8869         0.010695   
    141. D(C   7,C   6,C   5,H  23)    149.1793         0.010695   
    142. D(C   8,C   7,C   6,O  10)    -83.8069         0.010410   
    143. D(C   8,C   7,C   6,C   5)     41.8145         0.010410   
    144. D(C   3,C   7,C   6,O  10)   -147.5391         0.010410   
    145. D(C   3,C   7,C   6,C   9)     95.2349         0.010410   
    146. D(C   3,C   7,C   6,C   5)    -21.9177         0.010410   
    147. D(H  25,C   7,C   3,C   1)      5.1813         0.011183   
    148. D(C   8,C   7,C   3,C   4)   -110.1421         0.011183   
    149. D(C   8,C   7,C   3,C   1)    112.4806         0.011183   
    150. D(C   6,C   7,C   3,C   8)    117.4031         0.011183   
    151. D(C   8,C   7,C   6,C   9)    158.9670         0.010410   
    152. D(C   6,C   7,C   3,C   4)      7.2610         0.011183   
    153. D(C   6,C   7,C   3,C   1)   -130.1163         0.011183   
    154. D(H  27,C   8,C   7,C   3)   -108.7678         0.010615   
    155. D(H  26,C   8,C   7,C   6)      9.6643         0.010615   
    156. D(H  26,C   8,C   7,C   3)    100.5407         0.010615   
    157. D(C   3,C   8,C   7,H  25)    105.9939         0.010615   
    158. D(C   3,C   8,C   7,C   6)    -90.8764         0.010615   
    159. D(H  27,C   8,C   3,C   1)     -2.6230         0.011675   
    160. D(H  26,C   8,C   3,C   7)   -111.8884         0.011675   
    161. D(H  26,C   8,C   3,C   4)    -15.3405         0.011675   
    162. D(H  26,C   8,C   3,C   1)    142.5146         0.011675   
    163. D(H  26,C   8,C   7,H  25)   -153.4653         0.010615   
    164. D(C   7,C   8,C   3,C   4)     96.5479         0.011675   
    165. D(C   7,C   8,C   3,C   1)   -105.5970         0.011675   
    166. D(H  28,C   9,C   6,O  10)     60.0513         0.010400   
    167. D(H  28,C   9,C   6,C   7)   -178.6333         0.010400   
    168. D(H  28,C   9,C   6,C   5)    -63.0225         0.010400   
    169. D(H  29,C   9,C   6,O  10)   -179.2850         0.010400   
    170. D(H  29,C   9,C   6,C   7)    -57.9696         0.010400   
    171. D(H  29,C   9,C   6,C   5)     57.6412         0.010400   
    172. D(C  11,O  10,C   6,C   9)   -179.1851         0.017452   
    173. D(C  11,O  10,C   6,C   7)     62.8174         0.017452   
    174. D(C  11,O  10,C   6,C   5)    -58.9964         0.017452   
    175. D(C  13,C  11,O  10,C   6)   -176.2551         0.020696   
    176. D(O  12,C  11,O  10,C   6)      4.0544         0.020696   
    177. D(H  33,C  13,C  11,O  10)     63.7163         0.013720   
    178. D(H  32,C  13,C  11,O  12)      3.6343         0.013720   
    179. D(H  32,C  13,C  11,O  10)   -176.0640         0.013720   
    180. D(H  31,C  13,C  11,O  12)    123.7982         0.013720   
    181. D(H  31,C  13,C  11,O  10)    -55.9001         0.013720   
    -----------------------------------------------------------------

Number of atoms                         .... 34
Number of degrees of freedom            .... 181


         *************************************************************
         *                GEOMETRY OPTIMIZATION CYCLE   1            *
         *************************************************************
---------------------------------
CARTESIAN COORDINATES (ANGSTROEM)
---------------------------------
  C     -2.695580    1.962941   -0.051316
  C     -2.439771    0.450420   -0.205905
  C     -3.578828   -0.313727    0.486080
  C     -1.057412   -0.062049    0.311503
  C     -0.770620   -1.574407    0.301693
  C      0.720654   -1.749508    0.021174
  C      1.140409   -0.458730   -0.697755
  C      0.191254    0.651222   -0.209476
  C     -0.211461    0.766996    1.269354
  C      0.922266   -0.630400   -2.212565
  O      2.527151   -0.124838   -0.521721
  C      3.219566    0.114510    0.673585
  O      2.670382   -0.017118    1.797233
  C      4.649704    0.530096    0.601310
  H     -3.659818    2.230077   -0.534447
  H     -1.911848    2.568302   -0.546427
  H     -2.764032    2.248314    1.019759
  H     -2.490398    0.216627   -1.292074
  H     -3.526017   -0.172898    1.587154
  H     -3.523230   -1.398719    0.260094
  H     -4.565719    0.047743    0.125365
  H     -1.350764   -2.062449   -0.511212
  H     -1.051082   -2.033387    1.274035
  H      0.911528   -2.661581   -0.586434
  H      1.259478   -1.871169    0.982408
  H      0.016399    1.539568   -0.849450
  H      0.307839    0.145675    2.022540
  H     -0.597199    1.766303    1.547530
  H      1.571882   -1.441853   -2.605550
  H     -0.135888   -0.879743   -2.444976
  H      1.186510    0.307686   -2.746806
  H      5.225077   -0.222743    0.023490
  H      5.086937    0.615065    1.619020
  H      4.722630    1.513772    0.092786

----------------------------
CARTESIAN COORDINATES (A.U.)
----------------------------
  NO LB      ZA    FRAG     MASS         X           Y           Z
   0 C     4.0000*   0    12.011   -5.093908    3.709421   -0.096973
   1 C     4.0000*   0    12.011   -4.610499    0.851170   -0.389104
   2 C     4.0000*   0    12.011   -6.763005   -0.592858    0.918558
   3 C     4.0000*   0    12.011   -1.998219   -0.117256    0.588655
   4 C     4.0000*   0    12.011   -1.456261   -2.975198    0.570117
   5 C     4.0000*   0    12.011    1.361839   -3.306091    0.040013
   6 C     4.0000*   0    12.011    2.155061   -0.866874   -1.318566
   7 C     4.0000*   0    12.011    0.361418    1.230631   -0.395852
   8 C     4.0000*   0    12.011   -0.399603    1.449412    2.398731
   9 C     4.0000*   0    12.011    1.742830   -1.191283   -4.181142
  10 O     6.0000*   0    15.999    4.775623   -0.235910   -0.985910
  11 C     4.0000*   0    12.011    6.084098    0.216393    1.272891
  12 O     6.0000*   0    15.999    5.046291   -0.032348    3.396278
  13 C     4.0000*   0    12.011    8.786667    1.001736    1.136311
  14 H     1.0000    0     1.008   -6.916054    4.214235   -1.009958
  15 H     1.0000    0     1.008   -3.612869    4.853387   -1.032597
  16 H     1.0000    0     1.008   -5.223264    4.248698    1.927065
  17 H     1.0000    0     1.008   -4.706170    0.409366   -2.441666
  18 H     1.0000    0     1.008   -6.663206   -0.326730    2.999286
  19 H     1.0000    0     1.008   -6.657940   -2.643196    0.491506
  20 H     1.0000    0     1.008   -8.627959    0.090221    0.236906
  21 H     1.0000    0     1.008   -2.552574   -3.897464   -0.966051
  22 H     1.0000    0     1.008   -1.986257   -3.842545    2.407577
  23 H     1.0000    0     1.008    1.722538   -5.029659   -1.108200
  24 H     1.0000    0     1.008    2.380068   -3.535997    1.856482
  25 H     1.0000    0     1.008    0.030990    2.909362   -1.605228
  26 H     1.0000    0     1.008    0.581731    0.275286    3.822047
  27 H     1.0000    0     1.008   -1.128543    3.337829    2.924408
  28 H     1.0000    0     1.008    2.970426   -2.724707   -4.923776
  29 H     1.0000    0     1.008   -0.256791   -1.662473   -4.620335
  30 H     1.0000    0     1.008    2.242179    0.581442   -5.190711
  31 H     1.0000    0     1.008    9.873965   -0.420923    0.044390
  32 H     1.0000    0     1.008    9.612918    1.162304    3.059504
  33 H     1.0000    0     1.008    8.924477    2.860615    0.175340
* core charge reduced due to ECP

--------------------------------
INTERNAL COORDINATES (ANGSTROEM)
--------------------------------
 C      0   0   0     0.000000000000     0.00000000     0.00000000
 C      1   0   0     1.541770339202     0.00000000     0.00000000
 C      2   1   0     1.536299035697   108.64953620     0.00000000
 C      2   1   3     1.562450613397   115.80815824   235.52012768
 C      4   2   1     1.539341614954   119.01015360   174.95026353
 C      5   4   2     1.527497761909   107.19852866   146.56108769
 C      6   5   4     1.535956058079   104.85829077   336.62554541
 C      4   2   1     1.529490574485   117.16402796   307.41476702
 C      4   2   1     1.523294864636   121.40301589    17.78416034
 C      7   6   5     1.540034510473   109.14811706   271.81905911
 O      7   6   5     1.437193519114   113.67818386   153.17065150
 C     11   7   6     1.401956643754   128.36342445   301.00358758
 O     12  11   7     1.257582531743   121.88691015     4.05438249
 C     12  11   7     1.491049998513   118.68358874   183.74490289
 H      1   2   3     1.111095012274   109.64887482   299.21401130
 H      1   2   3     1.107173288364   111.96889793   180.90389762
 H      1   2   3     1.110551701209   111.04002433    58.11556259
 H      2   1   3     1.112198433976   107.25278998   115.98264845
 H      3   2   1     1.111299132744   110.36581329   291.60523730
 H      3   2   1     1.109670423984   110.94401799   170.85223107
 H      3   2   1     1.111183926272   110.51636599    52.02614923
 H      5   4   2     1.111560431792   109.80297007    28.33539042
 H      5   4   2     1.111202294278   110.68365019   267.85318682
 H      6   5   4     1.112428659676   111.21127600   214.49448491
 H      6   5   4     1.108649405652   109.13804787    96.09984504
 H      8   4   2     1.108737844315   116.20005774     5.18131998
 H      9   4   2     1.105893948639   112.53570489   142.51457887
 H      9   4   2     1.106702386312   117.12417175   357.37701807
 H     10   7   6     1.111257903859   110.26978154   296.97752776
 H     10   7   6     1.111699911076   111.43603982    57.64123649
 H     10   7   6     1.111415170408   110.18469509   177.97456729
 H     14  12  11     1.109818274066   109.47699399   304.09994370
 H     14  12  11     1.110912269871   110.75753382   183.93604683
 H     14  12  11     1.109744715251   109.40836275    63.71634866

---------------------------
INTERNAL COORDINATES (A.U.)
---------------------------
 C      0   0   0     0.000000000000     0.00000000     0.00000000
 C      1   0   0     2.913523702495     0.00000000     0.00000000
 C      2   1   0     2.903184437274   108.64953620     0.00000000
 C      2   1   3     2.952603757098   115.80815824   235.52012768
 C      4   2   1     2.908934078810   119.01015360   174.95026353
 C      5   4   2     2.886552440186   107.19852866   146.56108769
 C      6   5   4     2.902536303507   104.85829077   336.62554541
 C      4   2   1     2.890318310190   117.16402796   307.41476702
 C      4   2   1     2.878610115371   121.40301589    17.78416034
 C      7   6   5     2.910243461582   109.14811706   271.81905911
 O      7   6   5     2.715902152572   113.67818386   153.17065150
 C     11   7   6     2.649314108326   128.36342445   301.00358758
 O     12  11   7     2.376486575797   121.88691015     4.05438249
 C     12  11   7     2.817676149173   118.68358874   183.74490289
 H      1   2   3     2.099665281964   109.64887482   299.21401130
 H      1   2   3     2.092254297800   111.96889793   180.90389762
 H      1   2   3     2.098638572845   111.04002433    58.11556259
 H      2   1   3     2.101750446791   107.25278998   115.98264845
 H      3   2   1     2.100051013751   110.36581329   291.60523730
 H      3   2   1     2.096973200241   110.94401799   170.85223107
 H      3   2   1     2.099833305070   110.51636599    52.02614923
 H      5   4   2     2.100544797390   109.80297007    28.33539042
 H      5   4   2     2.099868015570   110.68365019   267.85318682
 H      6   5   4     2.102185510313   111.21127600   214.49448491
 H      6   5   4     2.095043755217   109.13804787    96.09984504
 H      8   4   2     2.095210880070   116.20005774     5.18131998
 H      9   4   2     2.089836696089   112.53570489   142.51457887
 H      9   4   2     2.091364421887   117.12417175   357.37701807
 H     10   7   6     2.099973102450   110.26978154   296.97752776
 H     10   7   6     2.100808375038   111.43603982    57.64123649
 H     10   7   6     2.100270293157   110.18469509   177.97456729
 H     14  12  11     2.097252596405   109.47699399   304.09994370
 H     14  12  11     2.099319948869   110.75753382   183.93604683
 H     14  12  11     2.097113590391   109.40836275    63.71634866

---------------------
BASIS SET INFORMATION
---------------------
There are 3 groups of distinct atoms

 Group   1 Type C   : 6s6p2d contracted to 2s2p1d pattern {42/42/2}
 Group   2 Type O   : 6s6p2d contracted to 2s2p1d pattern {42/42/2}
 Group   3 Type H   : 8s2p contracted to 2s1p pattern {53/2}

Atom   0C    basis set group =>   1
Atom   1C    basis set group =>   1
Atom   2C    basis set group =>   1
Atom   3C    basis set group =>   1
Atom   4C    basis set group =>   1
Atom   5C    basis set group =>   1
Atom   6C    basis set group =>   1
Atom   7C    basis set group =>   1
Atom   8C    basis set group =>   1
Atom   9C    basis set group =>   1
Atom  10O    basis set group =>   2
Atom  11C    basis set group =>   1
Atom  12O    basis set group =>   2
Atom  13C    basis set group =>   1
Atom  14H    basis set group =>   3
Atom  15H    basis set group =>   3
Atom  16H    basis set group =>   3
Atom  17H    basis set group =>   3
Atom  18H    basis set group =>   3
Atom  19H    basis set group =>   3
Atom  20H    basis set group =>   3
Atom  21H    basis set group =>   3
Atom  22H    basis set group =>   3
Atom  23H    basis set group =>   3
Atom  24H    basis set group =>   3
Atom  25H    basis set group =>   3
Atom  26H    basis set group =>   3
Atom  27H    basis set group =>   3
Atom  28H    basis set group =>   3
Atom  29H    basis set group =>   3
Atom  30H    basis set group =>   3
Atom  31H    basis set group =>   3
Atom  32H    basis set group =>   3
Atom  33H    basis set group =>   3
---------------------------------
AUXILIARY/J BASIS SET INFORMATION
---------------------------------
There are 3 groups of distinct atoms

 Group   1 Type C   : 12s5p4d2f1g contracted to 6s4p3d1f1g pattern {711111/2111/211/2/1}
 Group   2 Type O   : 12s5p4d2f1g contracted to 6s4p3d1f1g pattern {711111/2111/211/2/1}
 Group   3 Type H   : 5s2p1d contracted to 3s1p1d pattern {311/2/1}

Atom   0C    basis set group =>   1
Atom   1C    basis set group =>   1
Atom   2C    basis set group =>   1
Atom   3C    basis set group =>   1
Atom   4C    basis set group =>   1
Atom   5C    basis set group =>   1
Atom   6C    basis set group =>   1
Atom   7C    basis set group =>   1
Atom   8C    basis set group =>   1
Atom   9C    basis set group =>   1
Atom  10O    basis set group =>   2
Atom  11C    basis set group =>   1
Atom  12O    basis set group =>   2
Atom  13C    basis set group =>   1
Atom  14H    basis set group =>   3
Atom  15H    basis set group =>   3
Atom  16H    basis set group =>   3
Atom  17H    basis set group =>   3
Atom  18H    basis set group =>   3
Atom  19H    basis set group =>   3
Atom  20H    basis set group =>   3
Atom  21H    basis set group =>   3
Atom  22H    basis set group =>   3
Atom  23H    basis set group =>   3
Atom  24H    basis set group =>   3
Atom  25H    basis set group =>   3
Atom  26H    basis set group =>   3
Atom  27H    basis set group =>   3
Atom  28H    basis set group =>   3
Atom  29H    basis set group =>   3
Atom  30H    basis set group =>   3
Atom  31H    basis set group =>   3
Atom  32H    basis set group =>   3
Atom  33H    basis set group =>   3
-------------------------
ECP PARAMETER INFORMATION
-------------------------

 Group 1, Type C  ECP vDZP-ECP (replacing 2 core electrons, lmax=3)
 Group 2, Type O  ECP vDZP-ECP (replacing 2 core electrons, lmax=3)

Atom   0C    ECP group =>   1
Atom   1C    ECP group =>   1
Atom   2C    ECP group =>   1
Atom   3C    ECP group =>   1
Atom   4C    ECP group =>   1
Atom   5C    ECP group =>   1
Atom   6C    ECP group =>   1
Atom   7C    ECP group =>   1
Atom   8C    ECP group =>   1
Atom   9C    ECP group =>   1
Atom  10O    ECP group =>   2
Atom  11C    ECP group =>   1
Atom  12O    ECP group =>   2
Atom  13C    ECP group =>   1



           ************************************************************
           *        Program running with 40 parallel MPI-processes    *
           *              working on a common directory               *
           ************************************************************
------------------------------------------------------------------------------
                             ORCA STARTUP CALCULATIONS
                           -- RI-GTO INTEGRALS CHOSEN --
------------------------------------------------------------------------------
------------------------------------------------------------------------------
                   ___                                                        
                  /   \      - P O W E R E D   B Y -                         
                 /     \                                                     
                 |  |  |   _    _      __       _____    __    __             
                 |  |  |  | |  | |    /  \     |  _  \  |  |  /  |          
                  \  \/   | |  | |   /    \    | | | |  |  | /  /          
                 / \  \   | |__| |  /  /\  \   | |_| |  |  |/  /          
                |  |  |   |  __  | /  /__\  \  |    /   |      \           
                |  |  |   | |  | | |   __   |  |    \   |  |\   \          
                \     /   | |  | | |  |  |  |  | |\  \  |  | \   \       
                 \___/    |_|  |_| |__|  |__|  |_| \__\ |__|  \__/        
                                                                              
                      - O R C A' S   B I G   F R I E N D -                    
                                      &                                       
                       - I N T E G R A L  F E E D E R -                       
                                                                              
 v1 FN, 2020, v2 2021, v3 2022-2024                                           
------------------------------------------------------------------------------


----------------------
SHARK INTEGRAL PACKAGE
----------------------

Number of atoms                             ...     34
Number of basis functions                   ...    282
Number of shells                            ...    130
Maximum angular momentum                    ...      2
Integral batch strategy                     ... SHARK/LIBINT Hybrid
RI-J (if used) integral strategy            ... SPLIT-RIJ (Revised 2003 algorithm where possible)
Printlevel                                  ...      1
Contraction scheme used                     ... SEGMENTED contraction
Prescreening option                         ... SCHWARTZ
   Thresh                                   ... 2.500e-11
   Tcut                                     ... 2.500e-12
   Tpresel                                  ... 2.500e-12 
Coulomb Range Separation                    ... NOT USED
Exchange Range Separation                   ... Long Range
   Mu parameter                             ... 3.000e-01
   Scaling (regular/separated)              ... 1.670e-01 8.330e-01
Multipole approximations                    ... NOT USED
Finite Nucleus Model                        ... NOT USED
CABS basis                                  ... NOT available
Auxiliary Coulomb fitting basis             ... AVAILABLE
   # of basis functions in Aux-J            ...    906
   # of shells in Aux-J                     ...    310
   Maximum angular momentum in Aux-J        ...      4
Auxiliary J/K fitting basis                 ... NOT available
Auxiliary Correlation fitting basis         ... NOT available
Auxiliary 'external' fitting basis          ... NOT available

Checking pre-screening integrals            ... done (  0.0 sec) Dimension = 130
Check shell pair data                       ... done (  0.0 sec)
Shell pair information
Shell pair cut-off parameter TPreSel        ...   2.5e-12
Total number of shell pairs                 ...      8515
Shell pairs after pre-screening             ...      8371
Total number of primitive shell pairs       ...     79096
Primitive shell pairs kept                  ...     60439
          la=0 lb=0:   2326 shell pairs
          la=1 lb=0:   3208 shell pairs
          la=1 lb=1:   1131 shell pairs
          la=2 lb=0:    943 shell pairs
          la=2 lb=1:    658 shell pairs
          la=2 lb=2:    105 shell pairs

Calculating one electron integrals          ... done (  0.0 sec)
Calculating ECP integrals                   ... done (  0.2 sec)
Calculating RI/J V-Matrix + Cholesky decomp.... done (  0.0 sec)
Calculating Nuclear repulsion               ... done (  0.0 sec) ENN=    527.726732642127 Eh

Diagonalization of the overlap matrix:
Smallest eigenvalue                        ... 1.183e-03
Time for diagonalization                   ...    0.011 sec
Threshold for overlap eigenvalues          ... 1.000e-07
Number of eigenvalues below threshold      ... 0
Time for construction of square roots      ...    0.006 sec
Total time needed                          ...    0.020 sec

-------------------
DFT GRID GENERATION
-------------------

General Integration Accuracy     IntAcc      ... 4.388
Radial Grid Type                 RadialGrid  ... OptM3 with GC (2021)
Angular Grid (max. ang.)         AngularGrid ... 4 (Lebedev-302)
Angular grid pruning method      GridPruning ... 4 (adaptive)
Weight generation scheme         WeightScheme... mBecke (2022)
Basis function cutoff            BFCut       ... 1.0000e-11
Integration weight cutoff        WCut        ... 1.0000e-14
Partially contracted basis set               ... off
Rotationally invariant grid construction     ... off
Angular grids for H and He will be reduced by one unit

Total number of grid points                  ...   146897
Total number of batches                      ...     2315
Average number of points per batch           ...       63
Average number of grid points per atom       ...     4320

--------------------
COSX GRID GENERATION
--------------------

GRIDX 1
-------
General Integration Accuracy     IntAcc      ... 3.816
Radial Grid Type                 RadialGrid  ... OptM3 with GC (2021)
Angular Grid (max. ang.)         AngularGrid ... 1 (Lebedev-50)
Angular grid pruning method      GridPruning ... 4 (adaptive)
Weight generation scheme         WeightScheme... mBecke (2022)
Basis function cutoff            BFCut       ... 1.0000e-11
Integration weight cutoff        WCut        ... 1.0000e-14
Partially contracted basis set               ... on
Rotationally invariant grid construction     ... off
Angular grids for H and He will be reduced by one unit

Total number of grid points                  ...    18775
Total number of batches                      ...      169
Average number of points per batch           ...      111
Average number of grid points per atom       ...      552
UseSFitting                                  ... on

GRIDX 2
-------
General Integration Accuracy     IntAcc      ... 4.020
Radial Grid Type                 RadialGrid  ... OptM3 with GC (2021)
Angular Grid (max. ang.)         AngularGrid ... 2 (Lebedev-110)
Angular grid pruning method      GridPruning ... 4 (adaptive)
Weight generation scheme         WeightScheme... mBecke (2022)
Basis function cutoff            BFCut       ... 1.0000e-11
Integration weight cutoff        WCut        ... 1.0000e-14
Partially contracted basis set               ... on
Rotationally invariant grid construction     ... off
Angular grids for H and He will be reduced by one unit

Total number of grid points                  ...    39201
Total number of batches                      ...      323
Average number of points per batch           ...      121
Average number of grid points per atom       ...     1153
UseSFitting                                  ... on

GRIDX 3
-------
General Integration Accuracy     IntAcc      ... 4.338
Radial Grid Type                 RadialGrid  ... OptM3 with GC (2021)
Angular Grid (max. ang.)         AngularGrid ... 3 (Lebedev-194)
Angular grid pruning method      GridPruning ... 4 (adaptive)
Weight generation scheme         WeightScheme... mBecke (2022)
Basis function cutoff            BFCut       ... 1.0000e-11
Integration weight cutoff        WCut        ... 1.0000e-14
Partially contracted basis set               ... on
Rotationally invariant grid construction     ... off
Angular grids for H and He will be reduced by one unit

Total number of grid points                  ...    85223
Total number of batches                      ...      686
Average number of points per batch           ...      124
Average number of grid points per atom       ...     2507
UseSFitting                                  ... on
Initializing property integral containers    ... done (  0.0 sec)

SHARK setup successfully completed in   4.8 seconds

Maximum memory used throughout the entire STARTUP-calculation: 46.4 MB


           ************************************************************
           *        Program running with 40 parallel MPI-processes    *
           *              working on a common directory               *
           ************************************************************
-------------------------------------------------------------------------------
                                 ORCA GUESS
                   Start orbitals & Density for SCF / CASSCF
-------------------------------------------------------------------------------

------------
SCF SETTINGS
------------
Hamiltonian:
 Density Functional     Method          .... DFT(GTOs)
 Exchange Functional    Exchange        .... WB97X-V
 Correlation Functional Correlation     .... WB97X-V
 Gradients option       PostSCFGGA      .... off
 Hybrid DFT is turned on
   Fraction HF Exchange ScalHFX         ....  0.167000
   Scaling of DF-GGA-X  ScalDFX         ....  0.000000
   Scaling of DF-GGA-C  ScalDFC         ....  1.000000
   Scaling of DF-LDA-C  ScalLDAC        ....  1.000000
   Perturbative correction              ....  0.000000
 Long-range corrected/Screened/Range-Separated Hybrid DFT is turned on
   Amount of maximum screened exact exchange              ....  0.833000
   Range separation parameter mu (erf(mu*r12)/r12)        ....  0.300000
   NL short-range parameter             ....  6.000000
   NL long-range parameter              ....  0.010000
 RI-approximation to the Coulomb term is turned on
   Number of AuxJ basis functions       .... 906
   RIJ-COSX (HFX calculated with COS-X)).... on


General Settings:
 Integral files         IntName         .... ./output/_e_sabinene_hydrate/_e_sabinene_hydrate
 Hartree-Fock type      HFTyp           .... RHF
 Total Charge           Charge          ....    0
 Multiplicity           Mult            ....    1
 Number of Electrons    NEL             ....   80
 Basis Dimension        Dim             ....  282
 Nuclear Repulsion      ENuc            ....    527.7267326421 Eh

Convergence Acceleration:
 AO-DIIS                CNVDIIS         .... on
   Start iteration      DIISMaxIt       ....    12
   Startup error        DIISStart       ....  0.200000
   # of expansion vecs  DIISMaxEq       ....     5
   Bias factor          DIISBfac        ....   1.050
   Max. coefficient     DIISMaxC        ....  10.000
 MO-DIIS                CNVKDIIS        .... off
 Trust-Rad. Augm. Hess. CNVTRAH         .... auto
   Auto Start mean grad. ratio tolernc. ....  1.125000
   Auto Start start iteration           ....    50
   Auto Start num. interpolation iter.  ....    10
   Max. Number of Micro iterations      ....    24
   Max. Number of Macro iterations      .... Maxiter - #DIIS iter
   Number of Davidson start vectors     ....     2
   Converg. threshold    (grad. norm)   ....   1.000e-05
   Grad. Scal. Fac. for Micro threshold ....   0.100
   Minimum threshold for Micro iter.    ....   1.000e-02
   NR start threshold (gradient norm)   ....   1.000e-04
   Initial trust radius                 ....   0.400
   Minimum AH scaling param. (alpha)    ....   1.000
   Maximum AH scaling param. (alpha)    .... 1000.000
   Quad. conv. algorithm                .... NR
   White noise on init. David. guess    .... on
   Maximum white noise                  ....   0.010
   Pseudo random numbers                .... off
   Inactive MOs                         .... canonical
   Orbital update algorithm             .... Taylor
   Preconditioner                       .... Diag
   Full preconditioner red. dimension   ....   250
 SOSCF                  CNVSOSCF        .... on
   Start iteration      SOSCFMaxIt      ....   150
   Startup grad/error   SOSCFStart      ....  0.003300
   Hessian update       SOSCFHessUp     .... L-BFGS
 Level Shifting         CNVShift        .... on
   Level shift para.    LevelShift      ....    0.2500
   Turn off err/grad.   ShiftErr        ....    0.0010
 Zerner damping         CNVZerner       .... off
 Static damping         CNVDamp         .... on
   Fraction old density DampFac         ....    0.7000
   Max. Damping (<1)    DampMax         ....    0.9800
   Min. Damping (>=0)   DampMin         ....    0.0000
   Turn off err/grad.   DampErr         ....    0.1000

SCF Procedure:
 Maximum # iterations   MaxIter         ....   125
 SCF integral mode      SCFMode         .... Direct
   Integral package                     .... SHARK and LIBINT hybrid scheme
 Reset frequency        DirectResetFreq ....    20
 Integral Threshold     Thresh          ....  2.500e-11 Eh
 Primitive CutOff       TCut            ....  2.500e-12 Eh

Convergence Tolerance:
 Convergence Check Mode ConvCheckMode   .... Total+1el-Energy
 Convergence forced     ConvForced      .... 0
 Energy Change          TolE            ....  1.000e-08 Eh
 1-El. energy change                    ....  1.000e-05 Eh
 Orbital Gradient       TolG            ....  1.000e-05
 Orbital Rotation angle TolX            ....  1.000e-05
 DIIS Error             TolErr          ....  5.000e-07

------------------------------
INITIAL GUESS: MODEL POTENTIAL
------------------------------
Loading Hartree-Fock densities                     ... done
Atomic calculation to generate a density for atom 0 (C  with ECP)
  Multiplicity assumed   :    1
  Atomic configuration   : 1s2 2s2 2p2 
  Number of open shells  : 1
  Command: /home/aspe232/Project/Software/ORCA/6_0_1/build/orca ./output/_e_sabinene_hydrate/_e_sabinene_hydrate_atom6.inp "" > ./output/_e_sabinene_hydrate/_e_sabinene_hydrate_atom6.out
Returned from the atomic calculation with res=0
Atomic calculation to generate a density for atom 10 (O  with ECP)
  Multiplicity assumed   :    3
  Atomic configuration   : 1s2 2s2 2p4 
  Number of open shells  : 1
  Command: /home/aspe232/Project/Software/ORCA/6_0_1/build/orca ./output/_e_sabinene_hydrate/_e_sabinene_hydrate_atom8.inp "" > ./output/_e_sabinene_hydrate/_e_sabinene_hydrate_atom8.out
Returned from the atomic calculation with res=0
Calculating cut-offs                               ... done
Initializing the effective Hamiltonian             ... done
Setting up the integral package (SHARK)            ... done
Starting the Coulomb interaction                   ... done (   0.1 sec)
Making the grid                                    ... done (   0.9 sec)
Mapping shells                                     ... done
Starting the XC term evaluation                    ... done (   0.1 sec)
  promolecular density results
     # of electrons  =    107.988149915
     EX              =    -55.823884867
     EC              =     -4.392505533
     EX+EC           =    -60.216390400
Transforming the Hamiltonian                       ... done (   0.0 sec)
Diagonalizing the Hamiltonian                      ... done (   0.0 sec)
Back transforming the eigenvectors                 ... done (   0.0 sec)
Now organizing SCF variables                       ... done
                      ------------------
                      INITIAL GUESS DONE (   2.2 sec)
                      ------------------
             **** ENERGY FILE WAS UPDATED (./output/_e_sabinene_hydrate/_e_sabinene_hydrate.en.tmp) ****
Finished Guess after   3.0 sec
Maximum memory used throughout the entire GUESS-calculation: 29.6 MB


           ************************************************************
           *        Program running with 40 parallel MPI-processes    *
           *              working on a common directory               *
           ************************************************************

-------------------------------------------------------------------------------------------
                                      ORCA LEAN-SCF
                              memory conserving SCF solver
-------------------------------------------------------------------------------------------

----------------------------------------D-I-I-S--------------------------------------------
Iteration    Energy (Eh)           Delta-E    RMSDP     MaxDP     DIISErr   Damp  Time(sec)
-------------------------------------------------------------------------------------------
               ***  Starting incremental Fock matrix formation  ***
    1    -111.9195041516277342     0.00e+00  3.30e-03  9.20e-02  2.05e-01  0.700   6.8
    2    -112.1558010625124098    -2.36e-01  2.37e-03  6.03e-02  1.10e-01  0.700   4.9
                               ***Turning on AO-DIIS***
    3    -112.2743388713389550    -1.19e-01  1.24e-03  2.74e-02  5.86e-02  0.700   4.5
    4    -112.3442231405645089    -6.99e-02  2.66e-03  5.72e-02  3.65e-02  0.000   4.7
    5    -112.4922832712029503    -1.48e-01  2.32e-04  9.37e-03  8.02e-03  0.000   5.0
    6    -112.4927287025433316    -4.45e-04  1.13e-04  6.25e-03  4.94e-03  0.000   4.6
                              *** Initializing SOSCF ***
---------------------------------------S-O-S-C-F--------------------------------------
Iteration    Energy (Eh)           Delta-E    RMSDP     MaxDP     MaxGrad    Time(sec)
--------------------------------------------------------------------------------------
    7    -112.4928235900320033    -9.49e-05  5.87e-05  2.99e-03  2.44e-03     4.7
               *** Restarting incremental Fock matrix formation ***
    8    -112.4928342502973919    -1.07e-05  3.12e-05  1.19e-03  1.59e-04     7.0
    9    -112.4928375002816665    -3.25e-06  2.01e-05  1.22e-03  3.95e-04     5.9
   10    -112.4928392257644418    -1.73e-06  6.08e-06  1.44e-04  5.85e-05     5.6
   11    -112.4928393106602016    -8.49e-08  2.69e-06  8.68e-05  2.93e-05     5.6
   12    -112.4928393544024630    -4.37e-08  6.96e-07  3.78e-05  1.04e-05     5.4
   13    -112.4928393685581796    -1.42e-08  2.56e-07  1.36e-05  2.06e-06     4.6
                  *** Gradient check signals convergence ***

               *****************************************************
               *                     SUCCESS                       *
               *           SCF CONVERGED AFTER  13 CYCLES          *
               *****************************************************

Recomputing exchange energy using gridx3       ... done (    6.961 sec)
Old exchange energy                            :    -15.500144254 Eh
New exchange energy                            :    -15.500164207 Eh
Exchange energy change after final integration :     -0.000019954 Eh
Total energy after final integration           :   -112.492859322 Eh
             **** ENERGY FILE WAS UPDATED (./output/_e_sabinene_hydrate/_e_sabinene_hydrate.en.tmp) ****

----------------
TOTAL SCF ENERGY
----------------

Total Energy       :       -112.49285932237001 Eh           -3061.08632 eV

Components:
Nuclear Repulsion  :        527.72673264212710 Eh           14360.17445 eV
Electronic Energy  :       -640.21957201068528 Eh          -17421.26023 eV
One Electron Energy:      -1219.45832553244941 Eh          -33183.14804 eV
Two Electron Energy:        579.23875352176412 Eh           15761.88780 eV

Virial components:
Potential Energy   :       -199.97374247632092 Eh           -5441.56218 eV
Kinetic Energy     :         87.48088315395091 Eh            2380.47585 eV
Virial Ratio       :          2.28591362211562

DFT components:
N(Alpha)           :       39.999953844289 electrons
N(Beta)            :       39.999953844289 electrons
N(Total)           :       79.999907688578 electrons
E(X)               :      -16.810995736345 Eh       
E(C)               :       -3.041670867758 Eh       
E(XC)              :      -19.852666604103 Eh       

---------------
SCF CONVERGENCE
---------------

  Last Energy change         ...    1.4156e-08  Tolerance :   1.0000e-08
  Last MAX-Density change    ...    1.3567e-05  Tolerance :   1.0000e-07
  Last RMS-Density change    ...    2.5569e-07  Tolerance :   5.0000e-09
  Last DIIS Error            ...    2.4444e-03  Tolerance :   5.0000e-07
  Last Orbital Gradient      ...    2.0568e-06  Tolerance :   1.0000e-05
  Last Orbital Rotation      ...    7.7769e-06  Tolerance :   1.0000e-05


----------------
ORBITAL ENERGIES
----------------

  NO   OCC          E(Eh)            E(eV) 
   0   2.0000      -1.201596       -32.6971 
   1   2.0000      -1.118148       -30.4263 
   2   2.0000      -1.022292       -27.8180 
   3   2.0000      -0.936758       -25.4905 
   4   2.0000      -0.907256       -24.6877 
   5   2.0000      -0.890336       -24.2273 
   6   2.0000      -0.869291       -23.6546 
   7   2.0000      -0.811932       -22.0938 
   8   2.0000      -0.787839       -21.4382 
   9   2.0000      -0.751817       -20.4580 
  10   2.0000      -0.732022       -19.9193 
  11   2.0000      -0.717820       -19.5329 
  12   2.0000      -0.652547       -17.7567 
  13   2.0000      -0.635019       -17.2797 
  14   2.0000      -0.618758       -16.8373 
  15   2.0000      -0.594142       -16.1674 
  16   2.0000      -0.586410       -15.9570 
  17   2.0000      -0.580279       -15.7902 
  18   2.0000      -0.571918       -15.5627 
  19   2.0000      -0.556377       -15.1398 
  20   2.0000      -0.534109       -14.5339 
  21   2.0000      -0.523134       -14.2352 
  22   2.0000      -0.521622       -14.1941 
  23   2.0000      -0.515114       -14.0170 
  24   2.0000      -0.509492       -13.8640 
  25   2.0000      -0.502364       -13.6700 
  26   2.0000      -0.497630       -13.5412 
  27   2.0000      -0.491992       -13.3878 
  28   2.0000      -0.485853       -13.2207 
  29   2.0000      -0.481284       -13.0964 
  30   2.0000      -0.456190       -12.4136 
  31   2.0000      -0.450122       -12.2484 
  32   2.0000      -0.440911       -11.9978 
  33   2.0000      -0.438611       -11.9352 
  34   2.0000      -0.430515       -11.7149 
  35   2.0000      -0.415777       -11.3139 
  36   2.0000      -0.398837       -10.8529 
  37   2.0000      -0.383002       -10.4220 
  38   2.0000      -0.364966        -9.9312 
  39   2.0000      -0.351385        -9.5617 
  40   0.0000       0.076717         2.0876 
  41   0.0000       0.082771         2.2523 
  42   0.0000       0.091334         2.4853 
  43   0.0000       0.099632         2.7111 
  44   0.0000       0.102853         2.7988 
  45   0.0000       0.113071         3.0768 
  46   0.0000       0.121203         3.2981 
  47   0.0000       0.127455         3.4682 
  48   0.0000       0.134851         3.6695 
  49   0.0000       0.136462         3.7133 
  50   0.0000       0.147814         4.0222 
*Only the first 10 virtual orbitals were printed.

                    ********************************
                    * MULLIKEN POPULATION ANALYSIS *
                    ********************************

-----------------------
MULLIKEN ATOMIC CHARGES
-----------------------
   0 C :   -0.079689
   1 C :   -0.072977
   2 C :   -0.066869
   3 C :   -0.097316
   4 C :   -0.037818
   5 C :   -0.018016
   6 C :   -0.033170
   7 C :   -0.012235
   8 C :   -0.020918
   9 C :   -0.031084
  10 O :   -0.311051
  11 C :    0.278545
  12 O :   -0.356653
  13 C :   -0.077662
  14 H :    0.039336
  15 H :    0.030918
  16 H :    0.039453
  17 H :    0.030997
  18 H :    0.039182
  19 H :    0.032829
  20 H :    0.034473
  21 H :    0.031525
  22 H :    0.051191
  23 H :    0.043069
  24 H :    0.070410
  25 H :    0.034258
  26 H :    0.070304
  27 H :    0.045173
  28 H :    0.046023
  29 H :    0.040013
  30 H :    0.047025
  31 H :    0.066133
  32 H :    0.076382
  33 H :    0.068221
Sum of atomic charges:   -0.0000000

--------------------------------
MULLIKEN REDUCED ORBITAL CHARGES
--------------------------------
  0 C s       :     0.963102  s :     0.963102
      pz      :     1.040086  p :     3.042484
      px      :     1.046880
      py      :     0.955518
      dz2     :     0.015796  d :     0.074103
      dxz     :     0.010416
      dyz     :     0.015097
      dx2y2   :     0.014741
      dxy     :     0.018053

  1 C s       :     1.053419  s :     1.053419
      pz      :     1.017046  p :     2.895367
      px      :     0.935079
      py      :     0.943241
      dz2     :     0.031828  d :     0.124191
      dxz     :     0.018924
      dyz     :     0.016837
      dx2y2   :     0.029938
      dxy     :     0.026665

  2 C s       :     0.964195  s :     0.964195
      pz      :     1.026393  p :     3.028342
      px      :     0.985333
      py      :     1.016615
      dz2     :     0.024376  d :     0.074333
      dxz     :     0.010075
      dyz     :     0.005738
      dx2y2   :     0.023719
      dxy     :     0.010423

  3 C s       :     1.079326  s :     1.079326
      pz      :     1.079976  p :     2.876255
      px      :     0.866471
      py      :     0.929808
      dz2     :     0.022606  d :     0.141735
      dxz     :     0.028384
      dyz     :     0.023696
      dx2y2   :     0.034230
      dxy     :     0.032820

  4 C s       :     0.992355  s :     0.992355
      pz      :     1.037035  p :     2.946923
      px      :     0.959419
      py      :     0.950469
      dz2     :     0.013812  d :     0.098540
      dxz     :     0.019962
      dyz     :     0.022600
      dx2y2   :     0.022577
      dxy     :     0.019589

  5 C s       :     0.978308  s :     0.978308
      pz      :     1.037144  p :     2.948006
      px      :     0.947734
      py      :     0.963128
      dz2     :     0.014364  d :     0.091701
      dxz     :     0.019934
      dyz     :     0.018385
      dx2y2   :     0.023568
      dxy     :     0.015451

  6 C s       :     1.105892  s :     1.105892
      pz      :     1.019431  p :     2.737791
      px      :     0.723980
      py      :     0.994380
      dz2     :     0.038099  d :     0.189487
      dxz     :     0.033256
      dyz     :     0.029448
      dx2y2   :     0.043970
      dxy     :     0.044713

  7 C s       :     1.045094  s :     1.045094
      pz      :     0.935898  p :     2.855371
      px      :     0.940306
      py      :     0.979167
      dz2     :     0.024554  d :     0.111770
      dxz     :     0.021333
      dyz     :     0.026502
      dx2y2   :     0.017567
      dxy     :     0.021813

  8 C s       :     1.030264  s :     1.030264
      pz      :     0.899333  p :     2.901146
      px      :     1.008897
      py      :     0.992917
      dz2     :     0.023071  d :     0.089507
      dxz     :     0.021448
      dyz     :     0.019738
      dx2y2   :     0.010613
      dxy     :     0.014638

  9 C s       :     0.956915  s :     0.956915
      pz      :     0.923309  p :     3.004402
      px      :     1.027022
      py      :     1.054072
      dz2     :     0.017078  d :     0.069767
      dxz     :     0.008642
      dyz     :     0.019844
      dx2y2   :     0.013006
      dxy     :     0.011198

 10 O s       :     1.691961  s :     1.691961
      pz      :     1.495183  p :     4.585218
      px      :     1.342821
      py      :     1.747213
      dz2     :     0.010088  d :     0.033872
      dxz     :     0.008054
      dyz     :     0.004766
      dx2y2   :     0.006048
      dxy     :     0.004915

 11 C s       :     1.154355  s :     1.154355
      pz      :     0.746065  p :     2.320555
      px      :     0.857534
      py      :     0.716956
      dz2     :     0.071247  d :     0.246545
      dxz     :     0.071116
      dyz     :     0.058246
      dx2y2   :     0.022599
      dxy     :     0.023337

 12 O s       :     1.783083  s :     1.783083
      pz      :     1.381478  p :     4.540121
      px      :     1.704475
      py      :     1.454168
      dz2     :     0.010320  d :     0.033449
      dxz     :     0.009032
      dyz     :     0.009912
      dx2y2   :     0.001817
      dxy     :     0.002368

 13 C s       :     0.961127  s :     0.961127
      pz      :     1.083309  p :     3.053297
      px      :     0.916481
      py      :     1.053507
      dz2     :     0.012081  d :     0.063238
      dxz     :     0.011997
      dyz     :     0.011886
      dx2y2   :     0.015507
      dxy     :     0.011767

 14 H s       :     0.917389  s :     0.917389
      pz      :     0.012483  p :     0.043275
      px      :     0.020007
      py      :     0.010785

 15 H s       :     0.924308  s :     0.924308
      pz      :     0.012828  p :     0.044774
      px      :     0.017107
      py      :     0.014839

 16 H s       :     0.917205  s :     0.917205
      pz      :     0.022775  p :     0.043342
      px      :     0.010324
      py      :     0.010243

 17 H s       :     0.929301  s :     0.929301
      pz      :     0.021348  p :     0.039703
      px      :     0.008788
      py      :     0.009567

 18 H s       :     0.918325  s :     0.918325
      pz      :     0.023396  p :     0.042493
      px      :     0.009181
      py      :     0.009915

 19 H s       :     0.922682  s :     0.922682
      pz      :     0.010630  p :     0.044489
      px      :     0.010710
      py      :     0.023149

 20 H s       :     0.922111  s :     0.922111
      pz      :     0.011211  p :     0.043415
      px      :     0.020837
      py      :     0.011367

 21 H s       :     0.925892  s :     0.925892
      pz      :     0.017071  p :     0.042583
      px      :     0.013254
      py      :     0.012258

 22 H s       :     0.906877  s :     0.906877
      pz      :     0.020204  p :     0.041932
      px      :     0.010160
      py      :     0.011568

 23 H s       :     0.913980  s :     0.913980
      pz      :     0.013642  p :     0.042952
      px      :     0.010539
      py      :     0.018771

 24 H s       :     0.884346  s :     0.884346
      pz      :     0.021816  p :     0.045245
      px      :     0.014034
      py      :     0.009395

 25 H s       :     0.919176  s :     0.919176
      pz      :     0.014212  p :     0.046566
      px      :     0.012143
      py      :     0.020211

 26 H s       :     0.880218  s :     0.880218
      pz      :     0.016447  p :     0.049478
      px      :     0.018208
      py      :     0.014823

 27 H s       :     0.905654  s :     0.905654
      pz      :     0.010588  p :     0.049173
      px      :     0.015593
      py      :     0.022991

 28 H s       :     0.911179  s :     0.911179
      pz      :     0.010936  p :     0.042798
      px      :     0.014801
      py      :     0.017060

 29 H s       :     0.916196  s :     0.916196
      pz      :     0.010026  p :     0.043792
      px      :     0.022812
      py      :     0.010953

 30 H s       :     0.910163  s :     0.910163
      pz      :     0.012538  p :     0.042813
      px      :     0.010894
      py      :     0.019381

 31 H s       :     0.888470  s :     0.888470
      pz      :     0.014525  p :     0.045397
      px      :     0.014244
      py      :     0.016628

 32 H s       :     0.880327  s :     0.880327
      pz      :     0.023009  p :     0.043291
      px      :     0.010751
      py      :     0.009531

 33 H s       :     0.886196  s :     0.886196
      pz      :     0.013700  p :     0.045583
      px      :     0.010452
      py      :     0.021431



                     *******************************
                     * LOEWDIN POPULATION ANALYSIS *
                     *******************************

----------------------
LOEWDIN ATOMIC CHARGES
----------------------
   0 C :   -0.116013
   1 C :   -0.077188
   2 C :   -0.117857
   3 C :   -0.044715
   4 C :   -0.072906
   5 C :   -0.064474
   6 C :   -0.033284
   7 C :   -0.040680
   8 C :   -0.045241
   9 C :   -0.097081
  10 O :   -0.052890
  11 C :    0.025203
  12 O :   -0.189742
  13 C :   -0.091147
  14 H :    0.050398
  15 H :    0.040920
  16 H :    0.045611
  17 H :    0.043502
  18 H :    0.047202
  19 H :    0.044265
  20 H :    0.045560
  21 H :    0.045220
  22 H :    0.050282
  23 H :    0.050876
  24 H :    0.051914
  25 H :    0.041333
  26 H :    0.048270
  27 H :    0.046219
  28 H :    0.050681
  29 H :    0.055608
  30 H :    0.051314
  31 H :    0.066020
  32 H :    0.075782
  33 H :    0.067039

-------------------------------
LOEWDIN REDUCED ORBITAL CHARGES
-------------------------------
  0 C s       :     0.779124  s :     0.779124
      pz      :     1.062751  p :     3.094733
      px      :     1.058570
      py      :     0.973411
      dz2     :     0.051136  d :     0.242157
      dxz     :     0.033237
      dyz     :     0.050991
      dx2y2   :     0.047354
      dxy     :     0.059439

  1 C s       :     0.763155  s :     0.763155
      pz      :     1.027065  p :     2.931558
      px      :     0.948496
      py      :     0.955997
      dz2     :     0.098909  d :     0.382476
      dxz     :     0.056411
      dyz     :     0.053749
      dx2y2   :     0.089946
      dxy     :     0.083461

  2 C s       :     0.779403  s :     0.779403
      pz      :     1.044166  p :     3.093238
      px      :     1.009561
      py      :     1.039511
      dz2     :     0.081397  d :     0.245215
      dxz     :     0.032162
      dyz     :     0.018101
      dx2y2   :     0.079463
      dxy     :     0.034093

  3 C s       :     0.748167  s :     0.748167
      pz      :     0.999796  p :     2.868698
      px      :     0.928413
      py      :     0.940488
      dz2     :     0.070241  d :     0.427850
      dxz     :     0.078007
      dyz     :     0.070835
      dx2y2   :     0.108677
      dxy     :     0.100091

  4 C s       :     0.761189  s :     0.761189
      pz      :     1.056909  p :     2.995643
      px      :     0.971217
      py      :     0.967517
      dz2     :     0.042417  d :     0.316073
      dxz     :     0.066921
      dyz     :     0.072539
      dx2y2   :     0.068103
      dxy     :     0.066092

  5 C s       :     0.762992  s :     0.762992
      pz      :     1.043201  p :     2.998479
      px      :     0.969840
      py      :     0.985438
      dz2     :     0.046486  d :     0.303003
      dxz     :     0.067138
      dyz     :     0.061665
      dx2y2   :     0.075809
      dxy     :     0.051906

  6 C s       :     0.752489  s :     0.752489
      pz      :     0.988060  p :     2.740711
      px      :     0.765726
      py      :     0.986924
      dz2     :     0.111801  d :     0.540084
      dxz     :     0.089203
      dyz     :     0.086463
      dx2y2   :     0.128509
      dxy     :     0.124108

  7 C s       :     0.759058  s :     0.759058
      pz      :     0.961611  p :     2.928397
      px      :     0.959115
      py      :     1.007671
      dz2     :     0.065781  d :     0.353225
      dxz     :     0.071510
      dyz     :     0.091835
      dx2y2   :     0.059671
      dxy     :     0.064427

  8 C s       :     0.775240  s :     0.775240
      pz      :     0.946743  p :     2.982871
      px      :     1.004038
      py      :     1.032090
      dz2     :     0.070427  d :     0.287130
      dxz     :     0.065226
      dyz     :     0.070931
      dx2y2   :     0.037554
      dxy     :     0.042992

  9 C s       :     0.780511  s :     0.780511
      pz      :     0.954546  p :     3.082229
      px      :     1.060482
      py      :     1.067201
      dz2     :     0.055696  d :     0.234341
      dxz     :     0.032956
      dyz     :     0.067985
      dx2y2   :     0.041636
      dxy     :     0.036068

 10 O s       :     1.391660  s :     1.391660
      pz      :     1.522617  p :     4.565622
      px      :     1.393071
      py      :     1.649934
      dz2     :     0.023514  d :     0.095609
      dxz     :     0.028994
      dyz     :     0.009294
      dx2y2   :     0.017482
      dxy     :     0.016325

 11 C s       :     0.784979  s :     0.784979
[...]
 58:   1312.84   0.004078   20.61  0.000969  (-0.028317  0.006122 -0.011404)
 59:   1339.20   0.076276  385.47  0.017774  ( 0.106946  0.022215  0.076439)
 60:   1357.65   0.000602    3.04  0.000138  ( 0.002524 -0.009499 -0.006467)
 61:   1375.55   0.001170    5.91  0.000265  (-0.014954 -0.001077 -0.006369)
 62:   1380.60   0.001058    5.35  0.000239  (-0.014031 -0.006094 -0.002275)
 63:   1395.60   0.005316   26.86  0.001189  ( 0.033164  0.008668 -0.003699)
 64:   1417.18   0.001884    9.52  0.000415  (-0.018964 -0.007083  0.002231)
 65:   1439.93   0.003391   17.14  0.000735  ( 0.006006 -0.012396  0.023350)
 66:   1441.56   0.029469  148.92  0.006379  ( 0.068614  0.020928  0.035120)
 67:   1447.71   0.005314   26.85  0.001145  (-0.032840 -0.006079  0.005483)
 68:   1453.49   0.002288   11.56  0.000491  (-0.010967  0.018012  0.006823)
 69:   1466.47   0.002300   11.62  0.000489  (-0.013386  0.006051  0.016541)
 70:   1502.19   0.003848   19.45  0.000799  (-0.014667 -0.005570  0.023520)
 71:   1509.27   0.002407   12.16  0.000498  ( 0.008410 -0.020614 -0.001394)
 72:   1514.40   0.001619    8.18  0.000334  (-0.003382 -0.017942  0.000466)
 73:   1517.03   0.000419    2.12  0.000086  (-0.000718  0.006866 -0.006215)
 74:   1519.20   0.000181    0.91  0.000037  ( 0.003752  0.000949 -0.004710)
 75:   1521.43   0.001451    7.33  0.000298  (-0.011114 -0.012582  0.003962)
 76:   1533.37   0.000986    4.98  0.000201  (-0.012808 -0.000766 -0.005999)
 77:   1536.75   0.002532   12.80  0.000514  ( 0.001502 -0.010484 -0.020052)
 78:   1540.99   0.000850    4.30  0.000172  (-0.005540  0.010985 -0.004564)
 79:   1544.55   0.002100   10.61  0.000424  (-0.018111 -0.003667 -0.009100)
 80:   1559.81   0.002092   10.57  0.000419  ( 0.002922 -0.008234  0.018499)
 81:   1869.78   0.053865  272.21  0.008990  (-0.027743 -0.011842  0.089889)
 82:   3066.10   0.005587   28.24  0.000569  (-0.004333 -0.009109 -0.021608)
 83:   3096.87   0.005374   27.16  0.000542  ( 0.016353  0.010107 -0.013112)
 84:   3101.66   0.008876   44.86  0.000893  (-0.021581 -0.020118 -0.004750)
 85:   3103.88   0.005229   26.43  0.000526  (-0.013846  0.018271 -0.000432)
 86:   3113.09   0.003686   18.63  0.000369  ( 0.000166 -0.001464 -0.019165)
 87:   3135.74   0.000581    2.93  0.000058  ( 0.007224  0.001924 -0.001384)
 88:   3146.26   0.005603   28.32  0.000556  (-0.008312  0.021161  0.006239)
 89:   3158.71   0.003585   18.11  0.000354  (-0.003925 -0.007785  0.016677)
 90:   3183.99   0.000892    4.51  0.000087  (-0.006668 -0.001909 -0.006274)
 91:   3188.09   0.007187   36.32  0.000703  (-0.021159 -0.002677 -0.015767)
 92:   3195.24   0.003615   18.27  0.000353  ( 0.005088 -0.018077  0.000633)
 93:   3198.50   0.002979   15.06  0.000291  ( 0.011919 -0.000655 -0.012173)
 94:   3208.16   0.002274   11.49  0.000221  (-0.003953  0.014326  0.000594)
 95:   3217.74   0.002084   10.53  0.000202  ( 0.005920 -0.005694 -0.011603)
 96:   3219.33   0.002498   12.63  0.000242  ( 0.015411  0.001631 -0.001422)
 97:   3224.89   0.001128    5.70  0.000109  ( 0.004356 -0.003241 -0.008926)
 98:   3230.23   0.000136    0.69  0.000013  ( 0.001782 -0.003126 -0.000442)
 99:   3242.54   0.002130   10.77  0.000205  ( 0.002270  0.012598 -0.006416)
100:   3262.76   0.000332    1.68  0.000032  ( 0.004651  0.001024  0.003008)
101:   3315.05   0.000416    2.10  0.000039  (-0.004108 -0.004563 -0.001191)

* The epsilon (eps) is given for a Dirac delta lineshape.
** The dipole moment derivative (T) already includes vibrational overlap.

The first frequency considered to be a vibration is 6
The total number of vibrations considered is 96


--------------------------
THERMOCHEMISTRY AT 298.15K
--------------------------

Temperature         ...   298.15 K
Pressure            ...     1.00 atm
Total Mass          ...   196.29 AMU
Quasi RRHO          ...     True
Cut-Off Frequency   ...     1.00 cm^-1

Throughout the following assumptions are being made:
  (1) The electronic state is orbitally nondegenerate
  (2) There are no thermally accessible electronically excited states
  (3) Hindered rotations indicated by low frequency modes are not
      treated as such but are treated as vibrations and this may
      cause some error
  (4) All equations used are the standard statistical mechanics
      equations for an ideal gas
  (5) All vibrations are strictly harmonic

freq.      36.31  E(vib)   ...       0.54 
freq.      52.26  E(vib)   ...       0.52 
freq.      79.63  E(vib)   ...       0.49 
freq.      85.34  E(vib)   ...       0.48 
freq.      98.61  E(vib)   ...       0.46 
freq.     157.26  E(vib)   ...       0.40 
freq.     194.84  E(vib)   ...       0.36 
freq.     216.52  E(vib)   ...       0.34 
freq.     231.75  E(vib)   ...       0.32 
freq.     250.62  E(vib)   ...       0.30 
freq.     261.73  E(vib)   ...       0.30 
freq.     288.87  E(vib)   ...       0.27 
freq.     311.60  E(vib)   ...       0.25 
freq.     331.01  E(vib)   ...       0.24 
freq.     338.74  E(vib)   ...       0.23 
freq.     370.62  E(vib)   ...       0.21 
freq.     411.57  E(vib)   ...       0.19 
freq.     414.25  E(vib)   ...       0.19 
freq.     466.57  E(vib)   ...       0.16 
freq.     470.95  E(vib)   ...       0.15 
freq.     530.09  E(vib)   ...       0.13 
freq.     588.42  E(vib)   ...       0.10 
freq.     616.55  E(vib)   ...       0.09 
freq.     629.22  E(vib)   ...       0.09 
freq.     712.81  E(vib)   ...       0.07 
freq.     727.76  E(vib)   ...       0.06 
freq.     779.51  E(vib)   ...       0.05 
freq.     856.02  E(vib)   ...       0.04 
freq.     883.80  E(vib)   ...       0.04 
freq.     909.15  E(vib)   ...       0.03 
freq.     940.09  E(vib)   ...       0.03 
freq.     954.52  E(vib)   ...       0.03 
freq.     957.88  E(vib)   ...       0.03 
freq.     987.17  E(vib)   ...       0.02 
freq.     994.56  E(vib)   ...       0.02 
freq.     998.10  E(vib)   ...       0.02 
freq.    1011.61  E(vib)   ...       0.02 
freq.    1029.31  E(vib)   ...       0.02 
freq.    1042.03  E(vib)   ...       0.02 
freq.    1071.58  E(vib)   ...       0.02 
freq.    1084.18  E(vib)   ...       0.02 
freq.    1094.15  E(vib)   ...       0.02 
freq.    1094.51  E(vib)   ...       0.02 
freq.    1101.71  E(vib)   ...       0.02 
freq.    1142.00  E(vib)   ...       0.01 
freq.    1164.64  E(vib)   ...       0.01 
freq.    1171.53  E(vib)   ...       0.01 
freq.    1190.47  E(vib)   ...       0.01 
freq.    1209.66  E(vib)   ...       0.01 
freq.    1260.28  E(vib)   ...       0.01 
freq.    1265.42  E(vib)   ...       0.01 
freq.    1287.37  E(vib)   ...       0.01 
freq.    1312.84  E(vib)   ...       0.01 
freq.    1339.20  E(vib)   ...       0.01 
freq.    1357.65  E(vib)   ...       0.01 
freq.    1375.55  E(vib)   ...       0.01 
freq.    1380.60  E(vib)   ...       0.01 
freq.    1395.60  E(vib)   ...       0.00 
freq.    1417.18  E(vib)   ...       0.00 
freq.    1439.93  E(vib)   ...       0.00 
freq.    1441.56  E(vib)   ...       0.00 
freq.    1447.71  E(vib)   ...       0.00 
freq.    1453.49  E(vib)   ...       0.00 
freq.    1466.47  E(vib)   ...       0.00 
freq.    1502.19  E(vib)   ...       0.00 
freq.    1509.27  E(vib)   ...       0.00 
freq.    1514.40  E(vib)   ...       0.00 
freq.    1517.03  E(vib)   ...       0.00 
freq.    1519.20  E(vib)   ...       0.00 
freq.    1521.43  E(vib)   ...       0.00 
freq.    1533.37  E(vib)   ...       0.00 
freq.    1536.75  E(vib)   ...       0.00 
freq.    1540.99  E(vib)   ...       0.00 
freq.    1544.55  E(vib)   ...       0.00 
freq.    1559.81  E(vib)   ...       0.00 
freq.    1869.78  E(vib)   ...       0.00 
freq.    3066.10  E(vib)   ...       0.00 
freq.    3096.87  E(vib)   ...       0.00 
freq.    3101.66  E(vib)   ...       0.00 
freq.    3103.88  E(vib)   ...       0.00 
freq.    3113.09  E(vib)   ...       0.00 
freq.    3135.74  E(vib)   ...       0.00 
freq.    3146.26  E(vib)   ...       0.00 
freq.    3158.71  E(vib)   ...       0.00 
freq.    3183.99  E(vib)   ...       0.00 
freq.    3188.09  E(vib)   ...       0.00 
freq.    3195.24  E(vib)   ...       0.00 
freq.    3198.50  E(vib)   ...       0.00 
freq.    3208.16  E(vib)   ...       0.00 
freq.    3217.74  E(vib)   ...       0.00 
freq.    3219.33  E(vib)   ...       0.00 
freq.    3224.89  E(vib)   ...       0.00 
freq.    3230.23  E(vib)   ...       0.00 
freq.    3242.54  E(vib)   ...       0.00 
freq.    3262.76  E(vib)   ...       0.00 
freq.    3315.05  E(vib)   ...       0.00 

------------
INNER ENERGY
------------

The inner energy is: U= E(el) + E(ZPE) + E(vib) + E(rot) + E(trans)
    E(el)   - is the total energy from the electronic structure calculation
              = E(kin-el) + E(nuc-el) + E(el-el) + E(nuc-nuc)
    E(ZPE)  - the the zero temperature vibrational energy from the frequency calculation
    E(vib)  - the the finite temperature correction to E(ZPE) due to population
              of excited vibrational states
    E(rot)  - is the rotational thermal energy
    E(trans)- is the translational thermal energy

Summary of contributions to the inner energy U:
Electronic energy                ...   -112.56723927 Eh
Zero point energy                ...      0.30860174 Eh     193.65 kcal/mol
Thermal vibrational correction   ...      0.01207810 Eh       7.58 kcal/mol
Thermal rotational correction    ...      0.00141627 Eh       0.89 kcal/mol
Thermal translational correction ...      0.00141627 Eh       0.89 kcal/mol
-----------------------------------------------------------------------
Total thermal energy                   -112.24372689 Eh


Summary of corrections to the electronic energy:
(perhaps to be used in another calculation)
Total thermal correction                  0.01491064 Eh       9.36 kcal/mol
Non-thermal (ZPE) correction              0.30860174 Eh     193.65 kcal/mol
-----------------------------------------------------------------------
Total correction                          0.32351238 Eh     203.01 kcal/mol


--------
ENTHALPY
--------

The enthalpy is H = U + kB*T
                kB is Boltzmann's constant
Total thermal energy              ...   -112.24372689 Eh 
Thermal Enthalpy correction       ...      0.00094421 Eh       0.59 kcal/mol
-----------------------------------------------------------------------
Total Enthalpy                    ...   -112.24278268 Eh


Note: Only C1 symmetry has been detected, increase convergence thresholds 
      if your molecule has a higher symmetry. Symmetry factor of 1.0 is   
      used for the rotational entropy correction. 
 

Note: Rotational entropy computed according to Herzberg 
Infrared and Raman Spectra, Chapter V,1, Van Nostrand Reinhold, 1945 
Point Group:  C1, Symmetry Number:   1  
Rotational constants in cm-1:     0.047189     0.013594     0.013133 

Vibrational entropy computed according to the QRRHO of S. Grimme
Chem.Eur.J. 2012 18 9955 using a reference frequency of 100.0 cm-1


-------
ENTROPY
-------

The entropy contributions are T*S = T*(S(el)+S(vib)+S(rot)+S(trans))
     S(el)   - electronic entropy
     S(vib)  - vibrational entropy
     S(rot)  - rotational entropy
     S(trans)- translational entropy
The entropies will be listed as multiplied by the temperature to get
units of energy

Electronic entropy                ...      0.00000000 Eh      0.00 kcal/mol
Vibrational entropy               ...      0.02087455 Eh     13.10 kcal/mol
Rotational entropy                ...      0.01502688 Eh      9.43 kcal/mol
Translational entropy             ...      0.01982641 Eh     12.44 kcal/mol
-----------------------------------------------------------------------
Final entropy term                ...      0.05572784 Eh     34.97 kcal/mol

In case the symmetry of your molecule has not been determined correctly
or in case you have a reason to use a different symmetry number we print 
out the resulting rotational entropy values for sn=1,12:

 non-linear molecules -----------------------------------
|  sn= 1 | S(rot)=       0.01502688 Eh      9.43 kcal/mol|
|  sn= 2 | S(rot)=       0.01437243 Eh      9.02 kcal/mol|
|  sn= 3 | S(rot)=       0.01398960 Eh      8.78 kcal/mol|
|  sn= 4 | S(rot)=       0.01371797 Eh      8.61 kcal/mol|
|  sn= 5 | S(rot)=       0.01350728 Eh      8.48 kcal/mol|
|  sn= 6 | S(rot)=       0.01333514 Eh      8.37 kcal/mol|
|  sn= 7 | S(rot)=       0.01318959 Eh      8.28 kcal/mol|
|  sn= 8 | S(rot)=       0.01306352 Eh      8.20 kcal/mol|
|  sn= 9 | S(rot)=       0.01295231 Eh      8.13 kcal/mol|
|  sn=10 | S(rot)=       0.01285283 Eh      8.07 kcal/mol|
|  sn=11 | S(rot)=       0.01276284 Eh      8.01 kcal/mol|
|  sn=12 | S(rot)=       0.01268068 Eh      7.96 kcal/mol|
 linear molecules ---------------------------------------
|  Dinfh | S(rot)=       0.00941656 Eh      5.91 kcal/mol|
|  Cinfv | S(rot)=       0.01007102 Eh      6.32 kcal/mol|
 --------------------------------------------------------


-------------------
GIBBS FREE ENERGY
-------------------

The Gibbs free energy is G = H - T*S

Total enthalpy                    ...   -112.24278268 Eh 
Total entropy correction          ...     -0.05572784 Eh    -34.97 kcal/mol
-----------------------------------------------------------------------
Final Gibbs free energy         ...   -112.29851052 Eh

For completeness - the Gibbs free energy minus the electronic energy
G-E(el)                           ...      0.26872875 Eh    168.63 kcal/mol


Maximum memory used throughout the entire PROP-calculation: 192.0 MB

--------------------------------
SUGGESTED CITATIONS FOR THIS RUN
--------------------------------

Below you find a list of papers that are relevant to this ORCA run
We neither can nor want to force you to cite these papers, but we appreciate if you do
You receive ORCA, which is the product of decades of hard work by many enthusiastic individuals, for free
The only thing we kindly ask in return is that you cite our papers,
We deeply appreciate it, if you show your appreciation for ORCA by not just citing the generic ORCA reference.

Please note that relegating all ORCA citations to the supporting information does *not* help us.
SI sections are not indexed - citations you put there will not count into any citation statistics
But we need these citations in order to attract the funding resources that allow us to do what we are doing

Therefore, if you are a happy ORCA user, please consider citing a few of the papers listed below in the main body of your paper

In addition to the list printed below, the program has created the file ./output/_e_sabinene_hydrate/_e_sabinene_hydrate.bibtex that contains the list in bibtex format
You can import this file easily into all common literature databanks and citation aid programs


List of essential papers. We consider these as the minimum necessary citations

  1. Neese,F.
     Software update: the ORCA program system, version 5.0
     WIRES Comput. Molec. Sci., 2022 12(1)e1606
     doi.org/10.1002/wcms.1606
  2. Mueller,M.; Hansen,A.; Grimme,S.
     wB97X-3c: A composite range-separated hybrid DFT method with a molecule-optimized polarized valence double-zeta basis set
     J. Chem. Phys., 2023 158 014103
     doi.org/10.1063/5.0133026

List of papers to cite with high priority. The work reported in these papers was absolutely
necessary for this run to complete.
Our perspective: the developers of density functionals and basis sets usually get cited in chemistry papers
Good! But without the algorithms to do something with them, the functionals or basis sets would not do anything.
Hence, in our opinion, the algorithm design and method developments papers are equally worthy of getting cited

  1. Neese,F.
     An improvement of the resolution of the identity approximation for the formation of the Coulomb matrix
     J. Comp. Chem., 2003 24(14)1740-1747
     doi.org/10.1002/jcc.10318
  2. Neese,F.; Wennmohs,F.; Hansen,A.; Becker,U.
     Efficient, approximate and parallel Hartree-Fock and hybrid DFT calculations. A 'chain-of-spheres' algorithm for the Hartree-Fock exchange
     Chem. Phys., 2009 356(1-3)98-109
     doi.org/10.1016/j.chemphys.2008.10.036
  3. Bykov,D.; Petrenko,T.; Izsak,R.; Kossmann,S.; Becker,U.; Valeev,E.; Neese,F.
     Efficient implementation of the analytic second derivatives of Hartree-Fock and hybrid DFT energies: a detailed analysis of different approximations
     Molec. Phys., 2015 113 1961-1977
     doi.org/10.1080/00268976.2015.1025114
  4. Helmich-Paris,B.; de Souza,B.; Neese,F.; Izsák,R.
     An improved chain of spheres for exchange algorithm
     J. Chem. Phys., 2021 155 104109
     doi.org/doi: 10.1063/5.0058766.
  5. Neese,F.
     The SHARK Integral Generation and Digestion System
     J. Comp. Chem., 2022  1-16
     doi.org/10.1002/jcc.26942
  6. Caldeweyher,E.; Bannwarth,C.; Grimme,S.
     Extension of the D3 dispersion coefficient model
     J. Chem. Phys., 2017 147 034112
     doi.org/10.1063/1.4993215
  7. Caldeweyher,E.; Ehlert,S.; Hansen,A.; Neugebauer,H.; Spicher,S.; Bannwarth,C.; Grimme,S.
     A generally applicable atomic-charge dependent London dispersion correction
     J. Chem. Phys., 2019 150 154122
     doi.org/10.1063/1.5090222
  8. Caldeweyher,E.; Mewes,J.; Ehlert,S.; Grimme,S.
     Extension and evaluation of the D4 London-dispersion model for periodic systems
     Phys. Chem. Chem. Phys., 2020 22(16)8499-8512
     doi.org/10.1039/D0CP00502A
  9. Wittmann,L.; Gordiy,I.; Friede,M.; Helmich-Paris,B.; Grimme,S.; Hansen,A.; Bursch,M.
     Extension of the D3 and D4 London Dispersion Corrections to the full Actinides Series
     Phys. Chem. Chem. Phys., 2024 26(32)21379-21394
     doi.org/https://doi.org/10.1039/D4CP01514B 

List of suggested additional citations. These are papers that are important in the 'surrounding' of 
of this run, or papers that preceded the highly important papers. If you like your results we are grateful for a citation.

  1. Izsak,R.; Neese,F.
     An overlap fitted chain of spheres exchange method
     J. Chem. Phys., 2011 135 144105
     doi.org/10.1063/1.3646921
  2. Izsak,R.; Hansen,A.; Neese,F.
     The resolution of identity and chain of spheres approximations for the LPNO-CCSD singles Fock term
     Molec. Phys., 2012 110 2413-2417
     doi.org/10.1080/00268976.2012.687466
  3. Neese,F.
     The ORCA program system
     WIRES Comput. Molec. Sci., 2012 2(1)73-78
     doi.org/10.1002/wcms.81
  4. Izsak,R.; Neese,F.; Klopper,W.
     Robust fitting techniques in the chain of spheres approximation to the Fock exchange: The role of the complementary space
     J. Chem. Phys., 2013 139 
     doi.org/10.1063/1.4819264
  5. Neese,F.
     Software update: the ORCA program system, version 4.0
     WIRES Comput. Molec. Sci., 2018 8(1)1-6
     doi.org/10.1002/wcms.1327
  6. Neese,F.; Wennmohs,F.; Becker,U.; Riplinger,C.
     The ORCA quantum chemistry program package
     J. Chem. Phys., 2020 152 Art. No. L224108
     doi.org/10.1063/5.0004608

List of optional additional citations

  1. Neese,F.
     Approximate second-order SCF convergence for spin unrestricted wavefunctions
     Chem. Phys. Lett., 2000 325(1-3)93-98
     doi.org/10.1016/s0009-2614(00)00662-x

Timings for individual modules:

Sum of individual times          ...     1384.392 sec (=  23.073 min)
Startup calculation              ...       62.273 sec (=   1.038 min)   4.5 %
SCF iterations                   ...      821.102 sec (=  13.685 min)  59.3 %
Property integrals               ...       99.048 sec (=   1.651 min)   7.2 %
SCF Response                     ...       64.737 sec (=   1.079 min)   4.7 %
Property calculations            ...      162.710 sec (=   2.712 min)  11.8 %
SCF Gradient evaluation          ...      174.151 sec (=   2.903 min)  12.6 %
Geometry relaxation              ...        0.371 sec (=   0.006 min)   0.0 %
                             ****ORCA TERMINATED NORMALLY****
TOTAL RUN TIME: 0 days 0 hours 23 minutes 10 seconds 765 msec
