
                                 *****************
                                 * O   R   C   A *
                                 *****************

                                            #,                                       
                                            ###                                      
                                            ####                                     
                                            #####                                    
                                            ######                                   
                                           ########,                                 
                                     ,,################,,,,,                         
                               ,,#################################,,                 
                          ,,##########################################,,             
                       ,#########################################, ''#####,          
                    ,#############################################,,   '####,        
                  ,##################################################,,,,####,       
                ,###########''''           ''''###############################       
              ,#####''   ,,,,##########,,,,          '''####'''          '####       
            ,##' ,,,,###########################,,,                        '##       
           ' ,,###''''                  '''############,,,                           
         ,,##''                                '''############,,,,        ,,,,,,###''
      ,#''                                            '''#######################'''  
     '                                                          ''''####''''         
             ,#######,   #######,   ,#######,      ##                                
            ,#'     '#,  ##    ##  ,#'     '#,    #''#        ,####,   ,####,        
            ##       ##  ##   ,#'  ##            #'  '#       #'       #'  '#        
            ##       ##  #######   ##           ,######,      #####,   #    #        
            '#,     ,#'  ##    ##  '#,     ,#' ,#      #,     #,   #   #,  ,#        
             '#######'   ##     ##  '#######'  #'      '#     '####' # '####'        



                #########################################################
                #                        -***-                          #
                #          Department of theory and spectroscopy        #
                #                                                       #
                #                      Frank Neese                      #
                #                                                       #
                #     Directorship, Architecture, Infrastructure        #
                #                    SHARK, DRIVERS                     #
                #        Core code/Algorithms in most modules           #
                #                                                       #
                #        Max Planck Institute fuer Kohlenforschung      #
                #                Kaiser Wilhelm Platz 1                 #
                #                 D-45470 Muelheim/Ruhr                 #
                #                      Germany                          #
                #                                                       #
                #                  All rights reserved                  #
                #                        -***-                          #
                #########################################################


                         Program Version 6.0.1  -  RELEASE   -


 With contributions from (in alphabetic order):
[Max-Planck-Institut fuer Kohlenforschung]                               
  Daniel Aravena         : Magnetic Suceptibility                        
  Michael Atanasov       : Ab Initio Ligand Field Theory (pilot matlab implementation)
  Alexander A. Auer      : GIAO ZORA, VPT2 properties, NMR spectrum      
  Ute Becker             : All parallelization in ORCA, NUMFREQ, NUMCALC 
  Giovanni Bistoni       : ED, misc. LED, open-shell LED, HFLD           
  Martin Brehm           : Molecular dynamics                            
  Dmytro Bykov           : pre 5.0 version of the SCF Hessian            
  Marcos Casanova-Páez   : Triplet and SCS-CIS(D). UHF-(DLPNO)-IP/EA/STEOM-CCSD. UHF-CVS-IP/STEOM-CCSD   
  Vijay G. Chilkuri      : MRCI spin determinant printing, contributions to CSF-ICE 
  Pauline Colinet        : FMM embedding                                 
  Dipayan Datta          : RHF DLPNO-CCSD density                        
  Achintya Kumar Dutta   : EOM-CC, STEOM-CC                              
  Nicolas Foglia         : Exact transition moments, OPA infrastructure, MCD improvements    
  Dmitry Ganyushin       : Spin-Orbit,Spin-Spin,Magnetic field MRCI      
  Miquel Garcia-Rates    : C-PCM and meta-GGA Hessian, CCSD/C-PCM, Gaussian charge scheme 
  Tiago L. C. Gouveia    : GS-ROHF, GS-ROCIS                             
  Yang Guo               : DLPNO-NEVPT2, F12-NEVPT2, CIM, IAO-localization        
  Andreas Hansen         : Spin unrestricted coupled pair/coupled cluster methods 
  Ingolf Harden          : AUTO-CI MPn and infrastructure                
  Benjamin Helmich-Paris : MC-RPA, TRAH-(SCF,CASSCF), AVAS, COSX integrals, SCF dyn. polar. 
  Lee Huntington         : MR-EOM, pCC                                   
  Robert Izsak           : Overlap fitted RIJCOSX, COSX-SCS-MP3, EOM     
  Riya Kayal             : Wick's Theorem for AUTO-CI, AUTO-CI UHF-CCSDT 
  Emily Kempfer          : AUTO-CI, RHF CISDT and CCSDT                  
  Christian Kollmar      : KDIIS, OOCD, Brueckner-CCSD(T), CCSD density, CASPT2, CASPT2-K, improved NEVPT2 
  Axel Koslowski         : Symmetry handling                             
  Simone Kossmann        : meta-GGA functionals, TD-DFT gradient, OOMP2, (MP2 Hessian; deprecated post 5.0) 
  Lucas Lang             : DCDCAS                                        
  Marvin Lechner         : AUTO-CI (C++ implementation), FIC-MRCC        
  Spencer Leger          : CASSCF response                               
  Dagmar Lenk            : GEPOL surface, SMD, ORCA-2-JSON               
  Dimitrios Liakos       : Extrapolation schemes; Compound Job, initial MDCI parallelization 
  Dimitrios Manganas     : Further ROCIS development; embedding schemes. LFT, Crystal Embedding 
  Dimitrios Pantazis     : SARC Basis sets                               
  Anastasios Papadopoulos: AUTO-CI, single reference methods and gradients 
  Taras Petrenko         : pre 6.0 DFT Hessian and TD-DFT gradient, (ASA, deprecated), ECA, 1-Electron XAS/XES, NRVS 
  Peter Pinski           : DLPNO-MP2, DLPNO-MP2 Gradient                 
  Christoph Reimann      : Effective Core Potentials                     
  Marius Retegan         : Local ZFS, SOC                                
  Christoph Riplinger    : Optimizer, TS searches, QM/MM, DLPNO-CCSD(T), (RO)-DLPNO pert. Triples 
  Michael Roemelt        : Original ROCIS implementation                 
  Masaaki Saitow         : Open-shell DLPNO-CCSD energy and density      
  Barbara Sandhoefer     : DKH picture change effects                    
  Kantharuban Sivalingam : CASSCF convergence/infrastructure, NEVPT2 and variants, FIC-MRCI 
  Bernardo de Souza      : ESD, SOC TD-DFT                               
  Georgi L. Stoychev     : AutoAux, RI-MP2 NMR, DLPNO-MP2 response, X2C  
  Van Anh Tran           : RI-MP2 g-tensors                              
  Willem Van den Heuvel  : Paramagnetic NMR                              
  Zikuan Wang            : NOTCH, Electric field optimization            
  Frank Wennmohs         : Technical directorship and infrastructure     
  Hang Xu                : AUTO-CI-Response properties                   
                                                                         
[FACCTs GmbH]                                                            
  Markus Bursch, Miquel Garcia-Rates, Christoph Riplinger, Bernardo de Souza, Georgi L. Stoychev 
                                                                 
  APM, Basis sets (HGBS, AHGBS, def-TZVP (Ac-Lr), def2-XVPD (La-Lu)), CI-OPT, improved COSX, DLPNO-Multilevel,           
  DOCKER, DRACO, updates on ESD, GOAT, IRC, LR-CPCM, MBIS, meta-GGA TD-DFT gradient, ML-optimized integration grids, 
  MM, NACMEs, nearIR, NEB, NEB-TS, NL-DFT gradient (VV10), 2- and 3-layer-ONIOM, interface openCOSMO-RS, QMMM,   
  Crystal-QMMM, SF, symmetry and pop. for TD-DFT, r2SCAN hybrids, SOLVATOR                                   
                                                                         
[Other institutions]                                                     
  V. Asgeirsson          : NEB                                           
  Christoph Bannwarth    : sTDA-DFT, sTD-DFT, PBEh-3c, B97-3c, D3        
  Sebastian Ehlert       : rSCAN, r2SCAN, r2SCAN-3c, D4, dhf basis sets  
  Marvin Friede          : D4 for Fr, Ra, Ac-Lr                          
  Lars Goerigk           : TD-DFT with DH, B97 family of functionals     
  Stefan Grimme          : VdW corrections, initial TS optimization, DFT functionals, gCP, sTDA/sTD-DF 
  Waldemar Hujo          : DFT-NL                                        
  H. Jonsson             : NEB                                           
  Holger Kruse           : gCP                                           
  Marcel Mueller         : wB97X-3c, vDZP basis set                      
  Hagen Neugebauer       : wr2SCAN                                       
  Tobias Risthaus        : range-separated hybrid DFT                    
  Lukas Wittmann         : regularized MP2, r2SCAN double-hybrids, wr2SCAN        
                                                                         
We gratefully acknowledge several colleagues who have allowed us to      
interface, adapt or use parts of their codes:                            
  Ed Valeev, F. Pavosevic, A. Kumar             : LibInt (2-el integral package), F12 methods 
  Garnet Chan, S. Sharma, J. Yang, R. Olivares  : DMRG                   
  Ulf Ekstrom                                   : XCFun DFT Library      
  Mihaly Kallay                                 : mrcc  (arbitrary order and MRCC methods)
  Frank Weinhold                                : gennbo (NPA and NBO analysis)           
  Simon Mueller                                 : openCOSMO-RS                            
  Christopher J. Cramer and Donald G. Truhlar   : smd solvation model                     
  S Lehtola, MJT Oliveira, MAL Marques          : LibXC Library                           
  Liviu Ungur et al                             : ANISO software                          


 Your calculation uses the libint2 library for the computation of 2-el integrals
 For citations please refer to: http://libint.valeyev.net

 Your ORCA version has been built with support for libXC version: 6.2.2
 For citations please refer to: https://libxc.gitlab.io

 This ORCA versions uses:
   CBLAS   interface :  Fast vector & matrix operations
   LAPACKE interface :  Fast linear algebra routines
   SCALAPACK package :  Parallel linear algebra routines
   Shared memory     :  Shared parallel matrices
   BLAS/LAPACK       :  OpenBLAS 0.3.27  USE64BITINT DYNAMIC_ARCH NO_AFFINITY SkylakeX SINGLE_THREADED
        Core in use  :  SkylakeX
   Copyright (c) 2011-2014, The OpenBLAS Project


Your calculation utilizes the atom-pairwise dispersion correction
based on EEQ partial charges (D4)


================================================================================

cite the ECPs for C  [vDZP-ECP] as follows:
   B-Ne (ecp-2-mwb), Al-Ar (ecp-10-mwb), Ga-Kr (ecp-28-mwb), Y-Cd (ecp-28-mwb), In-Xe (ecp-46-mwb):
     A. Bergner, M. Dolg, W. Küchle, H. Stoll, and H. Preuß, Mol. Phys. 80, 1431 (1993)., T. Leininger, A. Berning, A. Nicklass, H. Stoll, H.-J. Werner, and H.-J.Flad, Chem. Phys. 217, 19 (1997).
   Na-Mg, K-Ca, Rb-Sr, Cs-Ba (CRENBL):
     L. Fernandez Pacios and P. A. Christiansen, J. Chem. Phys. 82, 2664 (1985)., M. M. Hurley, L. F. Pacios, P. A. Christiansen, R. B. Ross, and W. C. Ermler, J. Chem. Phys. 84, 6840 (1986)., L. A. LaJohn, P. A. Christiansen, R. B. Ross, T. Atashroo, and W. C. Ermler, J. Chem. Phys. 87, 2812 (1987)., R. B. Ross, J. M. Powers, T. Atashroo, W. C. Ermler, L. A. LaJohn, and P. A. Christiansen, J. Chem. Phys. 93, 6654 (1990). 
   Sc-Zn (ecp-10-mdf):
     M. Dolg, U. Wedig, H. Stoll, and H. Preuss, J. Chem. Phys. 86, 866 (1986). 
   Y-Cd (ecp-28-mwb), Hf-Hg (ecp-60-mwb):
     D. Andrae, U. Häußermann, M. Dolg, H. Stoll, and H. Preuß, Theor. Chim. Acta 77, 123 (1990). 
   La (ecp-46-mwb):
     M. Dolg, H. Stoll, and H. Preuss, J. Chem. Phys. 90, 1730 (1989)., M. Dolg, H. Stoll, and H. Preuss, Theor. Chim. Acta 85, 441 (1993).
   Ce-Lu (SBKJC-ecp):
     T. R. Cundari and W. J. Stevens, J. Chem. Phys. 98, 5555 (1993).
   Tl-Rn (ecp-78-mwb):
     W. Küchle, M. Dolg, H. Stoll, and H. Preuss, Mol. Phys. 74, 1245 (1991).

ECP parameters for C  [vDZP-ECP] have been obtained from:
MM, AH, SG, J. Chem. Phys. 158, 014103 (2023), 10.1063/5.0133026

----- Orbital basis set information -----
Your calculation utilizes the basis: vDZP
   Marcel Mueller, Andreas Hansen, Stefan Grimme 
   J. Chem. Phys. 158, 014103 (2023). DOI: 10.1063/5.0133026

----- AuxJ basis set information -----
Your calculation utilizes the auxiliary basis: def2/J
   F. Weigend, Phys. Chem. Chem. Phys. 8, 1057 (2006).

================================================================================
                                        WARNINGS
                       Please study these warnings very carefully!
================================================================================

WARNING: Frozen-Core approximation turned on, but there are no core electrons.
  ===> : Turning off frozen-core approximation


WARNING: Geometry Optimization
  ===> : Switching off AutoStart
         For restart on a previous wavefunction, please use MOREAD

================================================================================
                                       INPUT FILE
================================================================================
NAME = ./output/alpha_longipinene/alpha_longipinene.inp
|  1> ! wB97X-3c OPT FREQ TightSCF
|  2> %pal
|  3>   nprocs 40
|  4> end
|  5> * xyz 0 1
|  6> C      2.616520     1.840692     1.589832
|  7> C      1.966180     1.015567     0.520762
|  8> C      2.533880     0.878003    -0.715742
|  9> C      1.826972    -0.010893    -1.763483
| 10> C      0.488759    -0.579024    -1.170384
| 11> C     -0.214240     0.641252    -0.522499
| 12> C      0.618006     0.308310     0.747999
| 13> C      0.742239    -1.160054     0.256135
| 14> C     -0.395066    -2.112720     0.747993
| 15> C     -1.755070    -1.491019     1.075662
| 16> C     -2.379209    -0.797859    -0.129741
| 17> C     -1.778245     0.597302    -0.448605
| 18> C     -2.325070     1.022642    -1.832276
| 19> C     -2.272121     1.643437     0.579183
| 20> C      2.091427    -1.905797     0.506963
| 21> H      2.001999     1.840339     2.514078
| 22> H      3.617021     1.422335     1.827570
| 23> H      2.730361     2.887506     1.237991
| 24> H      3.477293     1.358521    -0.955830
| 25> H      1.603382     0.597443    -2.665587
| 26> H      2.493861    -0.843017    -2.071898
| 27> H     -0.110440    -1.200010    -1.869128
| 28> H      0.067406     1.625392    -0.973951
| 29> H      0.156389     0.475914     1.741162
| 30> H     -0.537967    -2.915506    -0.008829
| 31> H     -0.067551    -2.623867     1.680442
| 32> H     -1.689451    -0.819396     1.953883
| 33> H     -2.433475    -2.318475     1.379208
| 34> H     -3.469637    -0.686815     0.063465
| 35> H     -2.299653    -1.472394    -1.011012
| 36> H     -1.966816     0.333930    -2.627432
| 37> H     -1.993720     2.050725    -2.095557
| 38> H     -3.436908     1.010537    -1.839614
| 39> H     -3.382257     1.698864     0.582459
| 40> H     -1.944640     1.403947     1.609327
| 41> H     -1.879287     2.652546     0.328078
| 42> H      2.216032    -2.090107     1.595189
| 43> H      2.073024    -2.887195    -0.013214
| 44> H      3.010075    -1.391060     0.177402
| 45> *
| 46> 
| 47>                          ****END OF INPUT****
================================================================================

                       *****************************
                       * Geometry Optimization Run *
                       *****************************

Geometry optimization settings:
Update method            Update   .... BFGS
Choice of coordinates    CoordSys .... (2022) Redundant Internals
Initial Hessian          InHess   .... Almloef's Model
Max. no of cycles        MaxIter  .... 117

Convergence Tolerances:
Energy Change            TolE     ....  5.0000e-06 Eh
Max. Gradient            TolMAXG  ....  3.0000e-04 Eh/bohr
RMS Gradient             TolRMSG  ....  1.0000e-04 Eh/bohr
Max. Displacement        TolMAXD  ....  4.0000e-03 bohr
RMS Displacement         TolRMSD  ....  2.0000e-03 bohr
Strict Convergence                .... False

------------------------------------------------------------------------------
                        ORCA OPTIMIZATION COORDINATE SETUP
------------------------------------------------------------------------------

The optimization will be done in redundant internal coordinates (2022)
Making redundant internal coordinates   ...  (2022 redundants) done
Evaluating the initial hessian          ...  (Almloef) done
Evaluating the coordinates              ...  done
Calculating the B-matrix                .... done
Calculating the G-matrix                .... done
Diagonalizing the G-matrix              .... done
Small eigenvalue found = 2.365e-02
Small eigenvalue found = 2.520e-02
The first mode is                       ....  111
The number of degrees of freedom        ....  111

    -----------------------------------------------------------------
                    Redundant Internal Coordinates


    -----------------------------------------------------------------
         Definition                    Initial Value    Approx d2E/dq
    -----------------------------------------------------------------
      1. B(C   1,C   0)                  1.4989         0.418798   
      2. B(C   2,C   1)                  1.3675         0.678550   
      3. B(C   3,C   2)                  1.5452         0.353298   
      4. B(C   4,C   3)                  1.5701         0.322352   
      5. B(C   5,C   4)                  1.5502         0.346891   
      6. B(C   6,C   5)                  1.5549         0.340945   
      7. B(C   6,C   1)                  1.5393         0.361037   
      8. B(C   7,C   6)                  1.5535         0.342638   
      9. B(C   7,C   4)                  1.5610         0.333331   
     10. B(C   8,C   7)                  1.5630         0.330928   
     11. B(C   9,C   8)                  1.5308         0.372415   
     12. B(C  10,C   9)                  1.5241         0.381698   
     13. B(C  11,C  10)                  1.5522         0.344325   
     14. B(C  11,C   5)                  1.5664         0.326857   
     15. B(C  12,C  11)                  1.5474         0.350430   
     16. B(C  13,C  11)                  1.5475         0.350354   
     17. B(C  14,C   7)                  1.5618         0.332333   
     18. B(H  15,C   0)                  1.1099         0.334720   
     19. B(H  16,C   0)                  1.1102         0.334345   
     20. B(H  17,C   0)                  1.1102         0.334330   
     21. B(H  18,C   2)                  1.0856         0.365943   
     22. B(H  19,C   3)                  1.1108         0.333620   
     23. B(H  20,C   3)                  1.1101         0.334485   
     24. B(H  21,C   4)                  1.1104         0.334145   
     25. B(H  22,C   5)                  1.1188         0.323973   
     26. B(H  23,C   6)                  1.1080         0.337120   
     27. B(H  24,C   8)                  1.1125         0.331527   
     28. B(H  25,C   8)                  1.1127         0.331345   
     29. B(H  26,C   9)                  1.1075         0.337623   
     30. B(H  27,C   9)                  1.1122         0.331861   
     31. B(H  28,C  10)                  1.1130         0.330966   
     32. B(H  29,C  10)                  1.1126         0.331363   
     33. B(H  30,C  12)                  1.1113         0.333021   
     34. B(H  31,C  12)                  1.1118         0.332405   
     35. B(H  32,C  12)                  1.1119         0.332230   
     36. B(H  33,C  13)                  1.1115         0.332724   
     37. B(H  34,C  13)                  1.1072         0.338104   
     38. B(H  35,C  13)                  1.1116         0.332620   
     39. B(H  36,C  14)                  1.1107         0.333689   
     40. B(H  37,C  14)                  1.1109         0.333505   
     41. B(H  38,C  14)                  1.1034         0.342810   
     42. A(C   1,C   0,H  16)          109.6516         0.326462   
     43. A(H  15,C   0,H  17)          108.7221         0.284219   
     44. A(H  16,C   0,H  17)          109.3154         0.284170   
     45. A(H  15,C   0,H  16)          108.6947         0.284221   
     46. A(C   1,C   0,H  17)          109.7252         0.326460   
     47. A(C   1,C   0,H  15)          110.7036         0.326523   
     48. A(C   0,C   1,C   6)          121.8468         0.368373   
     49. A(C   0,C   1,C   2)          121.3430         0.411261   
     50. A(C   2,C   1,C   6)          116.7979         0.400616   
     51. A(C   1,C   2,C   3)          118.7539         0.399091   
     52. A(C   1,C   2,H  18)          121.0769         0.359338   
     53. A(C   3,C   2,H  18)          120.1477         0.322213   
     54. A(C   4,C   3,H  20)          110.2263         0.312824   
     55. A(C   2,C   3,C   4)          109.9947         0.351014   
     56. A(C   4,C   3,H  19)          109.4738         0.312693   
     57. A(H  19,C   3,H  20)          107.8075         0.284094   
     58. A(C   2,C   3,H  19)          109.1300         0.317383   
     59. A(C   2,C   3,H  20)          110.1677         0.317517   
     60. A(C   7,C   4,H  21)          117.0349         0.314476   
     61. A(C   3,C   4,C   7)          109.9665         0.347587   
     62. A(C   5,C   4,H  21)          117.2922         0.316520   
     63. A(C   3,C   4,H  21)          115.1243         0.312773   
     64. A(C   5,C   4,C   7)           89.1237         0.351917   
     65. A(C   3,C   4,C   5)          105.0434         0.349931   
     66. A(C   4,C   5,C   6)           85.9982         0.353264   
     67. A(C   6,C   5,H  22)          112.5403         0.314051   
     68. A(C   4,C   5,H  22)          114.1821         0.314933   
     69. A(C   6,C   5,C  11)          119.3331         0.349730   
     70. A(C   4,C   5,C  11)          116.7721         0.350752   
     71. A(C  11,C   5,H  22)          107.1625         0.311911   
     72. A(C   7,C   6,H  23)          117.3940         0.316341   
     73. A(C   5,C   6,H  23)          118.4930         0.316086   
     74. A(C   1,C   6,H  23)          115.3239         0.319048   
     75. A(C   5,C   6,C   7)           89.2258         0.352528   
     76. A(C   1,C   6,C   7)          108.5119         0.355965   
     77. A(C   1,C   6,C   5)          104.4646         0.355666   
     78. A(C   6,C   7,C   8)          114.7258         0.350755   
     79. A(C   6,C   7,C  14)          118.0040         0.351006   
     80. A(C   4,C   7,C   8)          113.3462         0.349128   
     81. A(C   4,C   7,C   6)           85.6723         0.351184   
     82. A(C   8,C   7,C  14)          106.6787         0.348952   
     83. A(C   4,C   7,C  14)          117.6942         0.349378   
     84. A(H  24,C   8,H  25)          106.0465         0.283401   
     85. A(C   7,C   8,H  25)          109.2411         0.313678   
     86. A(C   9,C   8,H  24)          108.9384         0.319794   
     87. A(C   7,C   8,H  24)          108.6153         0.313706   
     88. A(C   9,C   8,H  25)          105.5866         0.319765   
     89. A(C   7,C   8,C   9)          117.7920         0.355739   
     90. A(H  26,C   9,H  27)          105.7163         0.284273   
     91. A(C  10,C   9,H  27)          107.7227         0.321137   
     92. A(C  10,C   9,H  26)          112.0610         0.322043   
     93. A(C   8,C   9,H  26)          111.3068         0.320748   
     94. A(C   8,C   9,H  27)          107.3472         0.319847   
     95. A(C   8,C   9,C  10)          112.2851         0.364497   
     96. A(C  11,C  10,H  28)          108.9845         0.315647   
     97. A(C   9,C  10,H  28)          108.0166         0.320995   
     98. A(C   9,C  10,C  11)          114.3743         0.359650   
     99. A(H  28,C  10,H  29)          105.5476         0.283329   
    100. A(C  11,C  10,H  29)          110.7641         0.315708   
    101. A(C   9,C  10,H  29)          108.7488         0.321058   
    102. A(C  12,C  11,C  13)          107.1750         0.355509   
    103. A(C  10,C  11,C  13)          110.3425         0.354451   
    104. A(C   5,C  11,C  13)          109.3315         0.351341   
    105. A(C  10,C  11,C  12)          107.0937         0.354464   
    106. A(C   5,C  11,C  12)          107.6350         0.351354   
    107. A(C   5,C  11,C  10)          114.9292         0.350313   
    108. A(H  31,C  12,H  32)          107.8493         0.283635   
    109. A(H  30,C  12,H  32)          108.1125         0.283717   
    110. A(C  11,C  12,H  32)          110.8707         0.316746   
    111. A(H  30,C  12,H  31)          107.9125         0.283740   
    112. A(C  11,C  12,H  31)          111.1377         0.316774   
    113. A(C  11,C  12,H  30)          110.8268         0.316869   
    114. A(H  34,C  13,H  35)          107.5788         0.284437   
    115. A(H  33,C  13,H  35)          107.9598         0.283729   
    116. A(C  11,C  13,H  35)          110.5409         0.316796   
    117. A(H  33,C  13,H  34)          107.6656         0.284451   
    118. A(C  11,C  13,H  34)          112.1691         0.317640   
    119. A(C  11,C  13,H  33)          110.7579         0.316812   
    120. A(H  37,C  14,H  38)          106.6223         0.285168   
    121. A(H  36,C  14,H  38)          106.0596         0.285192   
    122. A(C   7,C  14,H  38)          116.6472         0.315632   
    123. A(H  36,C  14,H  37)          108.3023         0.283974   
    124. A(C   7,C  14,H  37)          109.4090         0.314225   
    125. A(C   7,C  14,H  36)          109.4802         0.314253   
    126. D(C   6,C   1,C   0,H  15)      0.6680         0.012972   
    127. D(C   2,C   1,C   0,H  15)    179.3544         0.012972   
    128. D(C   2,C   1,C   0,H  17)     59.3520         0.012972   
    129. D(C   2,C   1,C   0,H  16)    -60.7245         0.012972   
    130. D(C   6,C   1,C   0,H  16)    120.5892         0.012972   
    131. D(H  18,C   2,C   1,C   0)      0.4158         0.032264   
    132. D(C   3,C   2,C   1,C   6)     -2.5183         0.032264   
    133. D(C   3,C   2,C   1,C   0)    178.7318         0.032264   
    134. D(H  18,C   2,C   1,C   6)    179.1656         0.032264   
    135. D(H  20,C   3,C   2,C   1)   -119.8941         0.009416   
    136. D(C   4,C   3,C   2,H  18)   -179.8547         0.009416   
    137. D(H  19,C   3,C   2,H  18)    -59.7417         0.009416   
    138. D(H  19,C   3,C   2,C   1)    121.9262         0.009416   
    139. D(C   4,C   3,C   2,C   1)      1.8132         0.009416   
    140. D(C   5,C   4,C   3,C   2)     47.1218         0.008504   
    141. D(C   7,C   4,C   3,C   2)    -47.5124         0.008504   
    142. D(C   7,C   4,C   3,H  20)     74.1599         0.008504   
    143. D(C   7,C   4,C   3,H  19)   -167.4170         0.008504   
    144. D(C   5,C   4,C   3,H  20)    168.7942         0.008504   
    145. D(C   5,C   4,C   3,H  19)    -72.7828         0.008504   
    146. D(C  11,C   5,C   4,H  21)     22.8090         0.009709   
    147. D(C  11,C   5,C   4,C   7)    -97.4320         0.009709   
    148. D(C  11,C   5,C   4,C   3)    152.1101         0.009709   
    149. D(C   6,C   5,C   4,C   7)     23.5487         0.009709   
    150. D(C   6,C   5,C   4,C   3)    -86.9092         0.009709   
    151. D(C   6,C   5,C   4,H  21)    143.7897         0.009709   
    152. D(C   7,C   6,C   1,C   2)     48.7849         0.009797   
    153. D(C   7,C   6,C   1,C   0)   -132.4720         0.009797   
    154. D(C   5,C   6,C   1,C   2)    -45.3241         0.009797   
    155. D(H  23,C   6,C   1,C   0)      1.5743         0.009797   
    156. D(C   5,C   6,C   1,C   0)    133.4189         0.009797   
    157. D(C   7,C   6,C   5,H  22)   -138.2237         0.009407   
    158. D(C   7,C   6,C   5,C  11)     94.9280         0.009407   
    159. D(C   7,C   6,C   5,C   4)    -23.6686         0.009407   
    160. D(C   1,C   6,C   5,H  22)    -29.2921         0.009407   
    161. D(C   1,C   6,C   5,C  11)   -156.1404         0.009407   
    162. D(C   1,C   6,C   5,C   4)     85.2630         0.009407   
    163. D(C   8,C   7,C   6,H  23)     31.7875         0.009493   
    164. D(C   8,C   7,C   6,C   5)    -90.2415         0.009493   
    165. D(C   4,C   7,C   6,H  23)    145.5335         0.009493   
    166. D(C   4,C   7,C   6,C   5)     23.5044         0.009493   
    167. D(C   4,C   7,C   6,C   1)    -81.5010         0.009493   
    168. D(C   8,C   7,C   4,H  21)    -28.9463         0.009030   
    169. D(C   8,C   7,C   4,C   5)     91.5202         0.009030   
    170. D(C   8,C   7,C   4,C   3)   -162.7784         0.009030   
    171. D(C   8,C   7,C   6,C   1)    164.7530         0.009493   
    172. D(C   6,C   7,C   4,H  21)   -144.0472         0.009030   
    173. D(C   6,C   7,C   4,C   3)     82.1207         0.009030   
    174. D(C   6,C   7,C   4,C   5)    -23.5807         0.009030   
    175. D(H  24,C   8,C   7,C   6)    151.1054         0.008913   
    176. D(H  24,C   8,C   7,C   4)     54.8896         0.008913   
    177. D(C   9,C   8,C   7,C  14)    159.3830         0.008913   
    178. D(C   9,C   8,C   7,C   6)     26.7269         0.008913   
    179. D(H  24,C   8,C   7,C  14)    -76.2386         0.008913   
    180. D(C   9,C   8,C   7,C   4)    -69.4889         0.008913   
    181. D(H  26,C   9,C   8,H  25)     56.0616         0.011079   
    182. D(H  26,C   9,C   8,H  24)    169.5842         0.011079   
    183. D(H  26,C   9,C   8,C   7)    -66.1984         0.011079   
    184. D(C  10,C   9,C   8,H  25)   -177.3878         0.011079   
    185. D(C  10,C   9,C   8,H  24)    -63.8653         0.011079   
    186. D(C  10,C   9,C   8,C   7)     60.3522         0.011079   
    187. D(C  11,C  10,C   9,H  26)     48.4329         0.011606   
    188. D(C  11,C  10,C   9,C   8)    -77.7101         0.011606   
    189. D(H  28,C  10,C   9,H  27)     42.7757         0.011606   
    190. D(H  28,C  10,C   9,H  26)    -73.0954         0.011606   
    191. D(H  28,C  10,C   9,C   8)    160.7616         0.011606   
    192. D(C  11,C  10,C   9,H  27)    164.3040         0.011606   
    193. D(C  12,C  11,C  10,H  28)    -69.6681         0.009578   
    194. D(C  12,C  11,C  10,C   9)    169.3371         0.009578   
    195. D(C   5,C  11,C  10,H  29)    -73.4750         0.009578   
    196. D(C   5,C  11,C  10,H  28)    170.8298         0.009578   
    197. D(C   5,C  11,C  10,C   9)     49.8350         0.009578   
    198. D(C  12,C  11,C   5,H  22)     48.5261         0.008717   
    199. D(C  12,C  11,C   5,C   6)    177.8531         0.008717   
    200. D(C  12,C  11,C   5,C   4)    -80.9696         0.008717   
    201. D(C  10,C  11,C   5,H  22)    167.7272         0.008717   
    202. D(C  10,C  11,C   5,C   6)    -62.9458         0.008717   
    203. D(C  12,C  11,C  10,H  29)     46.0271         0.009578   
    204. D(C  10,C  11,C   5,C   4)     38.2315         0.008717   
    205. D(H  31,C  12,C  11,C  13)     57.4681         0.009892   
    206. D(H  31,C  12,C  11,C  10)    175.8743         0.009892   
    207. D(H  31,C  12,C  11,C   5)    -60.0366         0.009892   
    208. D(H  30,C  12,C  11,C  13)    177.4598         0.009892   
    209. D(H  30,C  12,C  11,C  10)    -64.1340         0.009892   
    210. D(H  30,C  12,C  11,C   5)     59.9551         0.009892   
    211. D(H  34,C  13,C  11,C  12)    178.6818         0.009888   
    212. D(H  34,C  13,C  11,C  10)     62.4049         0.009888   
    213. D(H  34,C  13,C  11,C   5)    -64.9291         0.009888   
    214. D(H  33,C  13,C  11,C  12)     58.3589         0.009888   
    215. D(H  33,C  13,C  11,C  10)    -57.9179         0.009888   
    216. D(H  33,C  13,C  11,C   5)    174.7481         0.009888   
    217. D(H  37,C  14,C   7,C   8)     56.5098         0.008981   
    218. D(H  37,C  14,C   7,C   6)   -172.6552         0.008981   
    219. D(H  37,C  14,C   7,C   4)    -72.1336         0.008981   
    220. D(H  36,C  14,C   7,C   8)    -62.0319         0.008981   
    221. D(H  36,C  14,C   7,C   6)     68.8031         0.008981   
    222. D(H  36,C  14,C   7,C   4)    169.3246         0.008981   
    -----------------------------------------------------------------

Number of atoms                         .... 39
Number of degrees of freedom            .... 222


         *************************************************************
         *                GEOMETRY OPTIMIZATION CYCLE   1            *
         *************************************************************
---------------------------------
CARTESIAN COORDINATES (ANGSTROEM)
---------------------------------
  C      2.616520    1.840692    1.589832
  C      1.966180    1.015567    0.520762
  C      2.533880    0.878003   -0.715742
  C      1.826972   -0.010893   -1.763483
  C      0.488759   -0.579024   -1.170384
  C     -0.214240    0.641252   -0.522499
  C      0.618006    0.308310    0.747999
  C      0.742239   -1.160054    0.256135
  C     -0.395066   -2.112720    0.747993
  C     -1.755070   -1.491019    1.075662
  C     -2.379209   -0.797859   -0.129741
  C     -1.778245    0.597302   -0.448605
  C     -2.325070    1.022642   -1.832276
  C     -2.272121    1.643437    0.579183
  C      2.091427   -1.905797    0.506963
  H      2.001999    1.840339    2.514078
  H      3.617021    1.422335    1.827570
  H      2.730361    2.887506    1.237991
  H      3.477293    1.358521   -0.955830
  H      1.603382    0.597443   -2.665587
  H      2.493861   -0.843017   -2.071898
  H     -0.110440   -1.200010   -1.869128
  H      0.067406    1.625392   -0.973951
  H      0.156389    0.475914    1.741162
  H     -0.537967   -2.915506   -0.008829
  H     -0.067551   -2.623867    1.680442
  H     -1.689451   -0.819396    1.953883
  H     -2.433475   -2.318475    1.379208
  H     -3.469637   -0.686815    0.063465
  H     -2.299653   -1.472394   -1.011012
  H     -1.966816    0.333930   -2.627432
  H     -1.993720    2.050725   -2.095557
  H     -3.436908    1.010537   -1.839614
  H     -3.382257    1.698864    0.582459
  H     -1.944640    1.403947    1.609327
  H     -1.879287    2.652546    0.328078
  H      2.216032   -2.090107    1.595189
  H      2.073024   -2.887195   -0.013214
  H      3.010075   -1.391060    0.177402

----------------------------
CARTESIAN COORDINATES (A.U.)
----------------------------
  NO LB      ZA    FRAG     MASS         X           Y           Z
   0 C     4.0000*   0    12.011    4.944506    3.478404    3.004347
   1 C     4.0000*   0    12.011    3.715542    1.919144    0.984098
   2 C     4.0000*   0    12.011    4.788339    1.659185   -1.352556
   3 C     4.0000*   0    12.011    3.452477   -0.020585   -3.332500
   4 C     4.0000*   0    12.011    0.923621   -1.094197   -2.211705
   5 C     4.0000*   0    12.011   -0.404855    1.211791   -0.987380
   6 C     4.0000*   0    12.011    1.167862    0.582621    1.413513
   7 C     4.0000*   0    12.011    1.402628   -2.192184    0.484025
   8 C     4.0000*   0    12.011   -0.746567   -3.992462    1.413502
   9 C     4.0000*   0    12.011   -3.316602   -2.817618    2.032707
  10 C     4.0000*   0    12.011   -4.496053   -1.507735   -0.245175
  11 C     4.0000*   0    12.011   -3.360396    1.128737   -0.847741
  12 C     4.0000*   0    12.011   -4.393746    1.932513   -3.462500
  13 C     4.0000*   0    12.011   -4.293686    3.105646    1.094497
  14 C     4.0000*   0    12.011    3.952224   -3.601434    0.958021
  15 H     1.0000    0     1.008    3.783230    3.477737    4.750919
  16 H     1.0000    0     1.008    6.835179    2.687824    3.453607
  17 H     1.0000    0     1.008    5.159635    5.456596    2.339464
  18 H     1.0000    0     1.008    6.571131    2.567233   -1.806257
  19 H     1.0000    0     1.008    3.029953    1.129004   -5.037229
  20 H     1.0000    0     1.008    4.712714   -1.593071   -3.915320
  21 H     1.0000    0     1.008   -0.208701   -2.267690   -3.532140
  22 H     1.0000    0     1.008    0.127379    3.071546   -1.840501
  23 H     1.0000    0     1.008    0.295532    0.899347    3.290319
  24 H     1.0000    0     1.008   -1.016610   -5.509508   -0.016684
  25 H     1.0000    0     1.008   -0.127653   -4.958390    3.175575
  26 H     1.0000    0     1.008   -3.192600   -1.548434    3.692304
  27 H     1.0000    0     1.008   -4.598601   -4.381283    2.606325
  28 H     1.0000    0     1.008   -6.556664   -1.297892    0.119931
  29 H     1.0000    0     1.008   -4.345714   -2.782421   -1.910536
  30 H     1.0000    0     1.008   -3.716744    0.631036   -4.965127
  31 H     1.0000    0     1.008   -3.767585    3.875309   -3.960029
  32 H     1.0000    0     1.008   -6.494815    1.909638   -3.476367
  33 H     1.0000    0     1.008   -6.391539    3.210388    1.100688
  34 H     1.0000    0     1.008   -3.674837    2.653075    3.041187
  35 H     1.0000    0     1.008   -3.551338    5.012585    0.619978
  36 H     1.0000    0     1.008    4.187694   -3.949730    3.014470
  37 H     1.0000    0     1.008    3.917448   -5.456008   -0.024971
  38 H     1.0000    0     1.008    5.688217   -2.628722    0.335241
* core charge reduced due to ECP

--------------------------------
INTERNAL COORDINATES (ANGSTROEM)
--------------------------------
 C      0   0   0     0.000000000000     0.00000000     0.00000000
 C      1   0   0     1.498894274499     0.00000000     0.00000000
 C      2   1   0     1.367534016437   121.34300458     0.00000000
 C      3   2   1     1.545191322251   118.75390220   178.73179656
 C      4   3   2     1.570144353342   109.99468546     1.81317474
 C      5   4   3     1.550172920484   105.04341734    47.12181989
 C      2   1   3     1.539292776730   121.84684053   181.31362668
 C      7   2   1     1.553530453284   108.51188951   227.52801696
 C      8   7   2     1.562996949052   114.72579052   164.75298615
 C      9   8   7     1.530846166987   117.79202994    26.72689488
 C     10   9   8     1.524144569695   112.28507866    60.35219975
 C     11  10   9     1.552193994227   114.37434185   282.28989999
 C     12  11  10     1.547409814001   107.09373242   169.33705034
 C     12  11  10     1.547468938152   110.34249846   285.66460248
 C      8   7   2     1.561843643575   118.00401404    37.68480616
 H      1   2   3     1.109894973665   110.70363334   179.35439208
 H      1   2   3     1.110200066247   109.65160876   299.27554434
 H      1   2   3     1.110212327962   109.72516101    59.35199712
 H      3   2   1     1.085618664466   121.07689982     0.41575742
 H      4   3   2     1.110791071179   109.13001840   121.92620362
 H      4   3   2     1.110086078609   110.16772716   240.10591920
 H      5   4   3     1.110363107876   115.12434509   177.69750531
 H      6   5   4     1.118778314600   114.18214966    26.03403325
 H      7   2   1     1.107950405061   115.32387938     1.57433434
 H      9   8   7     1.112504201017   108.61531790   151.10539004
 H      9   8   7     1.112653795408   109.24106065   266.35123430
 H     10   9   8     1.107544776581   111.30678075   293.80163574
 H     10   9   8     1.112230619106   107.34721340   178.56032248
 H     11  10   9     1.112965656054   108.01658357   160.76157103
 H     11  10   9     1.112638844730   108.74884974    46.67915541
 H     13  12  11     1.111279988030   110.82678332   295.86597351
 H     13  12  11     1.111784314672   111.13767233   175.87430192
 H     13  12  11     1.111928107169   110.87073937    55.93298526
 H     14  12  11     1.111523649322   110.75794301   302.08205196
 H     14  12  11     1.107156685477   112.16911053    62.40488650
 H     14  12  11     1.111608405178   110.54092442   182.46742801
 H     15   8   7     1.110735076065   109.48019491    68.80305891
 H     15   8   7     1.110884699752   109.40902226   187.34480835
 H     15   8   7     1.103394208701   116.64715348   308.41837228

---------------------------
INTERNAL COORDINATES (A.U.)
---------------------------
 C      0   0   0     0.000000000000     0.00000000     0.00000000
 C      1   0   0     2.832499682505     0.00000000     0.00000000
 C      2   1   0     2.584264769887   121.34300458     0.00000000
 C      3   2   1     2.919988423567   118.75390220   178.73179656
 C      4   3   2     2.967142818539   109.99468546     1.81317474
 C      5   4   3     2.929402279936   105.04341734    47.12181989
 C      2   1   3     2.908841787943   121.84684053   181.31362668
 C      7   2   1     2.935747097413   108.51188951   227.52801696
 C      8   7   2     2.953636181862   114.72579052   164.75298615
 C      9   8   7     2.892880008768   117.79202994    26.72689488
 C     10   9   8     2.880215825226   112.28507866    60.35219975
 C     11  10   9     2.933221555806   114.37434185   282.28989999
 C     12  11  10     2.924180765404   107.09373242   169.33705034
 C     12  11  10     2.924292493857   110.34249846   285.66460248
 C      8   7   2     2.951456750363   118.00401404    37.68480616
 H      1   2   3     2.097397537642   110.70363334   179.35439208
 H      1   2   3     2.097974079067   109.65160876   299.27554434
 H      1   2   3     2.097997250351   109.72516101    59.35199712
 H      3   2   1     2.051521961714   121.07689982     0.41575742
 H      4   3   2     2.099090916534   109.13001840   121.92620362
 H      4   3   2     2.097758673650   110.16772716   240.10591920
 H      5   4   3     2.098282183096   115.12434509   177.69750531
 H      6   5   4     2.114184619165   114.18214966    26.03403325
 H      7   2   1     2.093722835532   115.32387938     1.57433434
 H      9   8   7     2.102328262759   108.61531790   151.10539004
 H      9   8   7     2.102610955188   109.24106065   266.35123430
 H     10   9   8     2.092956308792   111.30678075   293.80163574
 H     10   9   8     2.101811267872   107.34721340   178.56032248
 H     11  10   9     2.103200286402   108.01658357   160.76157103
 H     11  10   9     2.102582702502   108.74884974    46.67915541
 H     13  12  11     2.100014835484   110.82678332   295.86597351
 H     13  12  11     2.100967874719   111.13767233   175.87430192
 H     13  12  11     2.101239603159   110.87073937    55.93298526
 H     14  12  11     2.100475288594   110.75794301   302.08205196
 H     14  12  11     2.092222922892   112.16911053    62.40488650
 H     14  12  11     2.100635453951   110.54092442   182.46742801
 H     15   8   7     2.098985101103   109.48019491    68.80305891
 H     15   8   7     2.099267848894   109.40902226   187.34480835
 H     15   8   7     2.085112872199   116.64715348   308.41837228

---------------------
BASIS SET INFORMATION
---------------------
There are 2 groups of distinct atoms

 Group   1 Type C   : 6s6p2d contracted to 2s2p1d pattern {42/42/2}
 Group   2 Type H   : 8s2p contracted to 2s1p pattern {53/2}

Atom   0C    basis set group =>   1
Atom   1C    basis set group =>   1
Atom   2C    basis set group =>   1
Atom   3C    basis set group =>   1
Atom   4C    basis set group =>   1
Atom   5C    basis set group =>   1
Atom   6C    basis set group =>   1
Atom   7C    basis set group =>   1
Atom   8C    basis set group =>   1
Atom   9C    basis set group =>   1
Atom  10C    basis set group =>   1
Atom  11C    basis set group =>   1
Atom  12C    basis set group =>   1
Atom  13C    basis set group =>   1
Atom  14C    basis set group =>   1
Atom  15H    basis set group =>   2
Atom  16H    basis set group =>   2
Atom  17H    basis set group =>   2
Atom  18H    basis set group =>   2
Atom  19H    basis set group =>   2
Atom  20H    basis set group =>   2
Atom  21H    basis set group =>   2
Atom  22H    basis set group =>   2
Atom  23H    basis set group =>   2
Atom  24H    basis set group =>   2
Atom  25H    basis set group =>   2
Atom  26H    basis set group =>   2
Atom  27H    basis set group =>   2
Atom  28H    basis set group =>   2
Atom  29H    basis set group =>   2
Atom  30H    basis set group =>   2
Atom  31H    basis set group =>   2
Atom  32H    basis set group =>   2
Atom  33H    basis set group =>   2
Atom  34H    basis set group =>   2
Atom  35H    basis set group =>   2
Atom  36H    basis set group =>   2
Atom  37H    basis set group =>   2
Atom  38H    basis set group =>   2
---------------------------------
AUXILIARY/J BASIS SET INFORMATION
---------------------------------
There are 2 groups of distinct atoms

 Group   1 Type C   : 12s5p4d2f1g contracted to 6s4p3d1f1g pattern {711111/2111/211/2/1}
 Group   2 Type H   : 5s2p1d contracted to 3s1p1d pattern {311/2/1}

Atom   0C    basis set group =>   1
Atom   1C    basis set group =>   1
Atom   2C    basis set group =>   1
Atom   3C    basis set group =>   1
Atom   4C    basis set group =>   1
Atom   5C    basis set group =>   1
Atom   6C    basis set group =>   1
Atom   7C    basis set group =>   1
Atom   8C    basis set group =>   1
Atom   9C    basis set group =>   1
Atom  10C    basis set group =>   1
Atom  11C    basis set group =>   1
Atom  12C    basis set group =>   1
Atom  13C    basis set group =>   1
Atom  14C    basis set group =>   1
Atom  15H    basis set group =>   2
Atom  16H    basis set group =>   2
Atom  17H    basis set group =>   2
Atom  18H    basis set group =>   2
Atom  19H    basis set group =>   2
Atom  20H    basis set group =>   2
Atom  21H    basis set group =>   2
Atom  22H    basis set group =>   2
Atom  23H    basis set group =>   2
Atom  24H    basis set group =>   2
Atom  25H    basis set group =>   2
Atom  26H    basis set group =>   2
Atom  27H    basis set group =>   2
Atom  28H    basis set group =>   2
Atom  29H    basis set group =>   2
Atom  30H    basis set group =>   2
Atom  31H    basis set group =>   2
Atom  32H    basis set group =>   2
Atom  33H    basis set group =>   2
Atom  34H    basis set group =>   2
Atom  35H    basis set group =>   2
Atom  36H    basis set group =>   2
Atom  37H    basis set group =>   2
Atom  38H    basis set group =>   2
-------------------------
ECP PARAMETER INFORMATION
-------------------------

 Group 1, Type C  ECP vDZP-ECP (replacing 2 core electrons, lmax=3)

Atom   0C    ECP group =>   1
Atom   1C    ECP group =>   1
Atom   2C    ECP group =>   1
Atom   3C    ECP group =>   1
Atom   4C    ECP group =>   1
Atom   5C    ECP group =>   1
Atom   6C    ECP group =>   1
Atom   7C    ECP group =>   1
Atom   8C    ECP group =>   1
Atom   9C    ECP group =>   1
Atom  10C    ECP group =>   1
Atom  11C    ECP group =>   1
Atom  12C    ECP group =>   1
Atom  13C    ECP group =>   1
Atom  14C    ECP group =>   1



           ************************************************************
           *        Program running with 40 parallel MPI-processes    *
           *              working on a common directory               *
           ************************************************************
------------------------------------------------------------------------------
                             ORCA STARTUP CALCULATIONS
                           -- RI-GTO INTEGRALS CHOSEN --
------------------------------------------------------------------------------
------------------------------------------------------------------------------
                   ___                                                        
                  /   \      - P O W E R E D   B Y -                         
                 /     \                                                     
                 |  |  |   _    _      __       _____    __    __             
                 |  |  |  | |  | |    /  \     |  _  \  |  |  /  |          
                  \  \/   | |  | |   /    \    | | | |  |  | /  /          
                 / \  \   | |__| |  /  /\  \   | |_| |  |  |/  /          
                |  |  |   |  __  | /  /__\  \  |    /   |      \           
                |  |  |   | |  | | |   __   |  |    \   |  |\   \          
                \     /   | |  | | |  |  |  |  | |\  \  |  | \   \       
                 \___/    |_|  |_| |__|  |__|  |_| \__\ |__|  \__/        
                                                                              
                      - O R C A' S   B I G   F R I E N D -                    
                                      &                                       
                       - I N T E G R A L  F E E D E R -                       
                                                                              
 v1 FN, 2020, v2 2021, v3 2022-2024                                           
------------------------------------------------------------------------------


----------------------
SHARK INTEGRAL PACKAGE
----------------------

Number of atoms                             ...     39
Number of basis functions                   ...    315
Number of shells                            ...    147
Maximum angular momentum                    ...      2
Integral batch strategy                     ... SHARK/LIBINT Hybrid
RI-J (if used) integral strategy            ... SPLIT-RIJ (Revised 2003 algorithm where possible)
Printlevel                                  ...      1
Contraction scheme used                     ... SEGMENTED contraction
Prescreening option                         ... SCHWARTZ
   Thresh                                   ... 2.500e-11
   Tcut                                     ... 2.500e-12
   Tpresel                                  ... 2.500e-12 
Coulomb Range Separation                    ... NOT USED
Exchange Range Separation                   ... Long Range
   Mu parameter                             ... 3.000e-01
   Scaling (regular/separated)              ... 1.670e-01 8.330e-01
Multipole approximations                    ... NOT USED
Finite Nucleus Model                        ... NOT USED
CABS basis                                  ... NOT available
Auxiliary Coulomb fitting basis             ... AVAILABLE
   # of basis functions in Aux-J            ...    999
   # of shells in Aux-J                     ...    345
   Maximum angular momentum in Aux-J        ...      4
Auxiliary J/K fitting basis                 ... NOT available
Auxiliary Correlation fitting basis         ... NOT available
Auxiliary 'external' fitting basis          ... NOT available

Checking pre-screening integrals            ... done (  0.0 sec) Dimension = 147
Check shell pair data                       ... done (  0.0 sec)
Shell pair information
Shell pair cut-off parameter TPreSel        ...   2.5e-12
Total number of shell pairs                 ...     10878
Shell pairs after pre-screening             ...     10873
Total number of primitive shell pairs       ...    102036
Primitive shell pairs kept                  ...     80419
          la=0 lb=0:   3080 shell pairs
          la=1 lb=0:   4210 shell pairs
          la=1 lb=1:   1483 shell pairs
          la=2 lb=0:   1170 shell pairs
          la=2 lb=1:    810 shell pairs
          la=2 lb=2:    120 shell pairs

Calculating one electron integrals          ... done (  0.0 sec)
Calculating ECP integrals                   ... done (  0.2 sec)
Calculating RI/J V-Matrix + Cholesky decomp.... done (  0.0 sec)
Calculating Nuclear repulsion               ... done (  0.0 sec) ENN=    594.117088326698 Eh

Diagonalization of the overlap matrix:
Smallest eigenvalue                        ... 8.852e-04
Time for diagonalization                   ...    0.014 sec
Threshold for overlap eigenvalues          ... 1.000e-07
Number of eigenvalues below threshold      ... 0
Time for construction of square roots      ...    0.008 sec
Total time needed                          ...    0.025 sec

-------------------
DFT GRID GENERATION
-------------------

General Integration Accuracy     IntAcc      ... 4.388
Radial Grid Type                 RadialGrid  ... OptM3 with GC (2021)
Angular Grid (max. ang.)         AngularGrid ... 4 (Lebedev-302)
Angular grid pruning method      GridPruning ... 4 (adaptive)
Weight generation scheme         WeightScheme... mBecke (2022)
Basis function cutoff            BFCut       ... 1.0000e-11
Integration weight cutoff        WCut        ... 1.0000e-14
Partially contracted basis set               ... off
Rotationally invariant grid construction     ... off
Angular grids for H and He will be reduced by one unit

Total number of grid points                  ...   164291
Total number of batches                      ...     2585
Average number of points per batch           ...       63
Average number of grid points per atom       ...     4213

--------------------
COSX GRID GENERATION
--------------------

GRIDX 1
-------
General Integration Accuracy     IntAcc      ... 3.816
Radial Grid Type                 RadialGrid  ... OptM3 with GC (2021)
Angular Grid (max. ang.)         AngularGrid ... 1 (Lebedev-50)
Angular grid pruning method      GridPruning ... 4 (adaptive)
Weight generation scheme         WeightScheme... mBecke (2022)
Basis function cutoff            BFCut       ... 1.0000e-11
Integration weight cutoff        WCut        ... 1.0000e-14
Partially contracted basis set               ... on
Rotationally invariant grid construction     ... off
Angular grids for H and He will be reduced by one unit

Total number of grid points                  ...    20915
Total number of batches                      ...      187
Average number of points per batch           ...      111
Average number of grid points per atom       ...      536
UseSFitting                                  ... on

GRIDX 2
-------
General Integration Accuracy     IntAcc      ... 4.020
Radial Grid Type                 RadialGrid  ... OptM3 with GC (2021)
Angular Grid (max. ang.)         AngularGrid ... 2 (Lebedev-110)
Angular grid pruning method      GridPruning ... 4 (adaptive)
Weight generation scheme         WeightScheme... mBecke (2022)
Basis function cutoff            BFCut       ... 1.0000e-11
Integration weight cutoff        WCut        ... 1.0000e-14
Partially contracted basis set               ... on
Rotationally invariant grid construction     ... off
Angular grids for H and He will be reduced by one unit

Total number of grid points                  ...    43239
Total number of batches                      ...      357
Average number of points per batch           ...      121
Average number of grid points per atom       ...     1109
UseSFitting                                  ... on

GRIDX 3
-------
General Integration Accuracy     IntAcc      ... 4.338
Radial Grid Type                 RadialGrid  ... OptM3 with GC (2021)
Angular Grid (max. ang.)         AngularGrid ... 3 (Lebedev-194)
Angular grid pruning method      GridPruning ... 4 (adaptive)
Weight generation scheme         WeightScheme... mBecke (2022)
Basis function cutoff            BFCut       ... 1.0000e-11
Integration weight cutoff        WCut        ... 1.0000e-14
Partially contracted basis set               ... on
Rotationally invariant grid construction     ... off
Angular grids for H and He will be reduced by one unit

Total number of grid points                  ...    93708
Total number of batches                      ...      752
Average number of points per batch           ...      124
Average number of grid points per atom       ...     2403
UseSFitting                                  ... on
Initializing property integral containers    ... done (  0.0 sec)

SHARK setup successfully completed in   5.5 seconds

Maximum memory used throughout the entire STARTUP-calculation: 52.3 MB


           ************************************************************
           *        Program running with 40 parallel MPI-processes    *
           *              working on a common directory               *
           ************************************************************
-------------------------------------------------------------------------------
                                 ORCA GUESS
                   Start orbitals & Density for SCF / CASSCF
-------------------------------------------------------------------------------

------------
SCF SETTINGS
------------
Hamiltonian:
 Density Functional     Method          .... DFT(GTOs)
 Exchange Functional    Exchange        .... WB97X-V
 Correlation Functional Correlation     .... WB97X-V
 Gradients option       PostSCFGGA      .... off
 Hybrid DFT is turned on
   Fraction HF Exchange ScalHFX         ....  0.167000
   Scaling of DF-GGA-X  ScalDFX         ....  0.000000
   Scaling of DF-GGA-C  ScalDFC         ....  1.000000
   Scaling of DF-LDA-C  ScalLDAC        ....  1.000000
   Perturbative correction              ....  0.000000
 Long-range corrected/Screened/Range-Separated Hybrid DFT is turned on
   Amount of maximum screened exact exchange              ....  0.833000
   Range separation parameter mu (erf(mu*r12)/r12)        ....  0.300000
   NL short-range parameter             ....  6.000000
   NL long-range parameter              ....  0.010000
 RI-approximation to the Coulomb term is turned on
   Number of AuxJ basis functions       .... 999
   RIJ-COSX (HFX calculated with COS-X)).... on


General Settings:
 Integral files         IntName         .... ./output/alpha_longipinene/alpha_longipinene
 Hartree-Fock type      HFTyp           .... RHF
 Total Charge           Charge          ....    0
 Multiplicity           Mult            ....    1
 Number of Electrons    NEL             ....   84
 Basis Dimension        Dim             ....  315
 Nuclear Repulsion      ENuc            ....    594.1170883267 Eh

Convergence Acceleration:
 AO-DIIS                CNVDIIS         .... on
   Start iteration      DIISMaxIt       ....    12
   Startup error        DIISStart       ....  0.200000
   # of expansion vecs  DIISMaxEq       ....     5
   Bias factor          DIISBfac        ....   1.050
   Max. coefficient     DIISMaxC        ....  10.000
 MO-DIIS                CNVKDIIS        .... off
 Trust-Rad. Augm. Hess. CNVTRAH         .... auto
   Auto Start mean grad. ratio tolernc. ....  1.125000
   Auto Start start iteration           ....    50
   Auto Start num. interpolation iter.  ....    10
   Max. Number of Micro iterations      ....    24
   Max. Number of Macro iterations      .... Maxiter - #DIIS iter
   Number of Davidson start vectors     ....     2
   Converg. threshold    (grad. norm)   ....   1.000e-05
   Grad. Scal. Fac. for Micro threshold ....   0.100
   Minimum threshold for Micro iter.    ....   1.000e-02
   NR start threshold (gradient norm)   ....   1.000e-04
   Initial trust radius                 ....   0.400
   Minimum AH scaling param. (alpha)    ....   1.000
   Maximum AH scaling param. (alpha)    .... 1000.000
   Quad. conv. algorithm                .... NR
   White noise on init. David. guess    .... on
   Maximum white noise                  ....   0.010
   Pseudo random numbers                .... off
   Inactive MOs                         .... canonical
   Orbital update algorithm             .... Taylor
   Preconditioner                       .... Diag
   Full preconditioner red. dimension   ....   250
 SOSCF                  CNVSOSCF        .... on
   Start iteration      SOSCFMaxIt      ....   150
   Startup grad/error   SOSCFStart      ....  0.003300
   Hessian update       SOSCFHessUp     .... L-BFGS
 Level Shifting         CNVShift        .... on
   Level shift para.    LevelShift      ....    0.2500
   Turn off err/grad.   ShiftErr        ....    0.0010
 Zerner damping         CNVZerner       .... off
 Static damping         CNVDamp         .... on
   Fraction old density DampFac         ....    0.7000
   Max. Damping (<1)    DampMax         ....    0.9800
   Min. Damping (>=0)   DampMin         ....    0.0000
   Turn off err/grad.   DampErr         ....    0.1000

SCF Procedure:
 Maximum # iterations   MaxIter         ....   125
 SCF integral mode      SCFMode         .... Direct
   Integral package                     .... SHARK and LIBINT hybrid scheme
 Reset frequency        DirectResetFreq ....    20
 Integral Threshold     Thresh          ....  2.500e-11 Eh
 Primitive CutOff       TCut            ....  2.500e-12 Eh

Convergence Tolerance:
 Convergence Check Mode ConvCheckMode   .... Total+1el-Energy
 Convergence forced     ConvForced      .... 0
 Energy Change          TolE            ....  1.000e-08 Eh
 1-El. energy change                    ....  1.000e-05 Eh
 Orbital Gradient       TolG            ....  1.000e-05
 Orbital Rotation angle TolX            ....  1.000e-05
 DIIS Error             TolErr          ....  5.000e-07

------------------------------
INITIAL GUESS: MODEL POTENTIAL
------------------------------
Loading Hartree-Fock densities                     ... done
Atomic calculation to generate a density for atom 0 (C  with ECP)
  Multiplicity assumed   :    1
  Atomic configuration   : 1s2 2s2 2p2 
  Number of open shells  : 1
  Command: /home/aspe232/Project/Software/ORCA/6_0_1/build/orca ./output/alpha_longipinene/alpha_longipinene_atom6.inp "" > ./output/alpha_longipinene/alpha_longipinene_atom6.out
Returned from the atomic calculation with res=0
Calculating cut-offs                               ... done
Initializing the effective Hamiltonian             ... done
Setting up the integral package (SHARK)            ... done
Starting the Coulomb interaction                   ... done (   0.1 sec)
Making the grid                                    ... done (   1.1 sec)
Mapping shells                                     ... done
Starting the XC term evaluation                    ... done (   0.1 sec)
  promolecular density results
     # of electrons  =    113.992573084
     EX              =    -55.392067239
     EC              =     -4.578070824
     EX+EC           =    -59.970138063
Transforming the Hamiltonian                       ... done (   0.0 sec)
Diagonalizing the Hamiltonian                      ... done (   0.0 sec)
Back transforming the eigenvectors                 ... done (   0.0 sec)
Now organizing SCF variables                       ... done
                      ------------------
                      INITIAL GUESS DONE (   2.1 sec)
                      ------------------
             **** ENERGY FILE WAS UPDATED (./output/alpha_longipinene/alpha_longipinene.en.tmp) ****
Finished Guess after   3.1 sec
Maximum memory used throughout the entire GUESS-calculation: 35.2 MB


           ************************************************************
           *        Program running with 40 parallel MPI-processes    *
           *              working on a common directory               *
           ************************************************************

-------------------------------------------------------------------------------------------
                                      ORCA LEAN-SCF
                              memory conserving SCF solver
-------------------------------------------------------------------------------------------

----------------------------------------D-I-I-S--------------------------------------------
Iteration    Energy (Eh)           Delta-E    RMSDP     MaxDP     DIISErr   Damp  Time(sec)
-------------------------------------------------------------------------------------------
               ***  Starting incremental Fock matrix formation  ***
    1    -99.1826460745338636     0.00e+00  3.45e-03  8.21e-02  1.96e-01  0.700   8.9
    2    -99.4592359794739878    -2.77e-01  2.51e-03  5.84e-02  1.15e-01  0.700   6.4
                               ***Turning on AO-DIIS***
    3    -99.5987714728237279    -1.40e-01  1.32e-03  3.03e-02  5.95e-02  0.700   5.8
    4    -99.6808101741120254    -8.20e-02  2.89e-03  6.59e-02  3.65e-02  0.000   6.0
    5    -99.8538250114290804    -1.73e-01  2.36e-04  4.78e-03  5.31e-03  0.000   6.3
                              *** Initializing SOSCF ***
---------------------------------------S-O-S-C-F--------------------------------------
Iteration    Energy (Eh)           Delta-E    RMSDP     MaxDP     MaxGrad    Time(sec)
--------------------------------------------------------------------------------------
    6    -99.8543687289004538    -5.44e-04  1.11e-04  1.93e-03  1.39e-03     6.0
               *** Restarting incremental Fock matrix formation ***
    7    -99.8544368540760843    -6.81e-05  6.16e-05  1.36e-03  3.74e-04     8.6
    8    -99.8544489386704299    -1.21e-05  3.56e-05  7.74e-04  2.11e-04     7.7
    9    -99.8544511117776210    -2.17e-06  1.25e-05  1.98e-04  1.03e-04     7.7
   10    -99.8544515627023657    -4.51e-07  2.24e-06  6.67e-05  2.15e-05     7.2
   11    -99.8544515577253833     4.98e-09  9.18e-07  2.65e-05  1.00e-05     6.5
                 **** Energy Check signals convergence ****

               *****************************************************
               *                     SUCCESS                       *
               *           SCF CONVERGED AFTER  11 CYCLES          *
               *****************************************************

Recomputing exchange energy using gridx3       ... done (   10.191 sec)
Old exchange energy                            :    -15.886363925 Eh
New exchange energy                            :    -15.886338155 Eh
Exchange energy change after final integration :      0.000025771 Eh
Total energy after final integration           :    -99.854425787 Eh
             **** ENERGY FILE WAS UPDATED (./output/alpha_longipinene/alpha_longipinene.en.tmp) ****

----------------
TOTAL SCF ENERGY
----------------

Total Energy       :        -99.85442578714012 Eh           -2717.17706 eV

Components:
Nuclear Repulsion  :        594.11708832669819 Eh           16166.74787 eV
Electronic Energy  :       -693.97153988442358 Eh          -18883.92564 eV
One Electron Energy:      -1327.33311330186189 Eh          -36118.57025 eV
Two Electron Energy:        633.36157341743831 Eh           17234.64461 eV

Virial components:
Potential Energy   :       -177.61933840408068 Eh           -4833.26792 eV
Kinetic Energy     :         77.76491261694055 Eh            2116.09085 eV
Virial Ratio       :          2.28405501178931

DFT components:
N(Alpha)           :       42.000009216221 electrons
N(Beta)            :       42.000009216221 electrons
N(Total)           :       84.000018432442 electrons
E(X)               :      -16.067005618183 Eh       
E(C)               :       -3.151117746081 Eh       
E(XC)              :      -19.218123364265 Eh       

---------------
SCF CONVERGENCE
---------------

  Last Energy change         ...   -4.9770e-09  Tolerance :   1.0000e-08
  Last MAX-Density change    ...    2.6498e-05  Tolerance :   1.0000e-07
  Last RMS-Density change    ...    9.1850e-07  Tolerance :   5.0000e-09
  Last DIIS Error            ...    1.3907e-03  Tolerance :   5.0000e-07
  Last Orbital Gradient      ...    1.0031e-05  Tolerance :   1.0000e-05
  Last Orbital Rotation      ...    1.3180e-05  Tolerance :   1.0000e-05


----------------
ORBITAL ENERGIES
----------------

  NO   OCC          E(Eh)            E(eV) 
   0   2.0000      -1.026141       -27.9227 
   1   2.0000      -0.953601       -25.9488 
   2   2.0000      -0.920064       -25.0362 
   3   2.0000      -0.899884       -24.4871 
   4   2.0000      -0.868209       -23.6252 
   5   2.0000      -0.848101       -23.0780 
   6   2.0000      -0.811651       -22.0861 
   7   2.0000      -0.799059       -21.7435 
   8   2.0000      -0.795031       -21.6339 
   9   2.0000      -0.744714       -20.2647 
  10   2.0000      -0.733126       -19.9494 
  11   2.0000      -0.709636       -19.3102 
  12   2.0000      -0.667249       -18.1568 
  13   2.0000      -0.639655       -17.4059 
  14   2.0000      -0.613472       -16.6934 
  15   2.0000      -0.586499       -15.9595 
  16   2.0000      -0.579626       -15.7724 
  17   2.0000      -0.562027       -15.2935 
  18   2.0000      -0.554781       -15.0964 
  19   2.0000      -0.540668       -14.7123 
  20   2.0000      -0.535894       -14.5824 
  21   2.0000      -0.526874       -14.3370 
  22   2.0000      -0.523364       -14.2415 
  23   2.0000      -0.511892       -13.9293 
  24   2.0000      -0.505806       -13.7637 
  25   2.0000      -0.497761       -13.5448 
  26   2.0000      -0.490617       -13.3504 
  27   2.0000      -0.487919       -13.2769 
  28   2.0000      -0.477235       -12.9862 
  29   2.0000      -0.471540       -12.8313 
  30   2.0000      -0.466640       -12.6979 
  31   2.0000      -0.457670       -12.4538 
  32   2.0000      -0.455992       -12.4082 
  33   2.0000      -0.444756       -12.1024 
  34   2.0000      -0.435043       -11.8381 
  35   2.0000      -0.412063       -11.2128 
  36   2.0000      -0.408586       -11.1182 
  37   2.0000      -0.397050       -10.8043 
  38   2.0000      -0.386634       -10.5209 
  39   2.0000      -0.380293       -10.3483 
  40   2.0000      -0.369464       -10.0536 
  41   2.0000      -0.313983        -8.5439 
  42   0.0000       0.084890         2.3100 
  43   0.0000       0.086772         2.3612 
  44   0.0000       0.094216         2.5637 
  45   0.0000       0.096310         2.6207 
  46   0.0000       0.097664         2.6576 
  47   0.0000       0.112650         3.0654 
  48   0.0000       0.118685         3.2296 
  49   0.0000       0.120351         3.2749 
  50   0.0000       0.123711         3.3664 
  51   0.0000       0.129308         3.5186 
  52   0.0000       0.149792         4.0761 
*Only the first 10 virtual orbitals were printed.

                    ********************************
                    * MULLIKEN POPULATION ANALYSIS *
                    ********************************

-----------------------
MULLIKEN ATOMIC CHARGES
-----------------------
   0 C :   -0.077495
   1 C :   -0.077423
   2 C :   -0.044173
   3 C :   -0.061150
   4 C :   -0.013564
   5 C :   -0.022274
   6 C :    0.007519
   7 C :   -0.148140
   8 C :   -0.030712
   9 C :   -0.054960
  10 C :   -0.019582
  11 C :   -0.192998
  12 C :   -0.043770
  13 C :   -0.030441
  14 C :   -0.037264
  15 H :    0.036432
  16 H :    0.049069
  17 H :    0.053574
  18 H :    0.019764
  19 H :    0.047613
  20 H :    0.044292
  21 H :    0.032990
  22 H :    0.049395
  23 H :    0.021744
  24 H :    0.033809
  25 H :    0.033094
  26 H :    0.027304
  27 H :    0.040330
  28 H :    0.035514
  29 H :    0.026559
  30 H :    0.029040
  31 H :    0.032518
  32 H :    0.034391
  33 H :    0.033623
  34 H :    0.022351
  35 H :    0.036064
  36 H :    0.035411
  37 H :    0.032958
  38 H :    0.038590
Sum of atomic charges:    0.0000000

--------------------------------
MULLIKEN REDUCED ORBITAL CHARGES
--------------------------------
  0 C s       :     0.953068  s :     0.953068
      pz      :     1.005054  p :     3.050868
      px      :     1.026803
      py      :     1.019011
      dz2     :     0.016481  d :     0.073559
      dxz     :     0.018179
      dyz     :     0.012385
      dx2y2   :     0.017696
      dxy     :     0.008818

  1 C s       :     1.092058  s :     1.092058
      pz      :     0.960124  p :     2.867564
      px      :     0.962520
      py      :     0.944920
      dz2     :     0.029071  d :     0.117801
      dxz     :     0.028791
      dyz     :     0.024582
      dx2y2   :     0.018265
      dxy     :     0.017093

  2 C s       :     1.038962  s :     1.038962
      pz      :     0.948617  p :     2.918338
      px      :     0.979268
      py      :     0.990452
      dz2     :     0.023627  d :     0.086873
      dxz     :     0.019883
      dyz     :     0.021021
      dx2y2   :     0.009426
      dxy     :     0.012917

  3 C s       :     0.995405  s :     0.995405
      pz      :     1.000361  p :     2.967765
      px      :     0.961019
      py      :     1.006386
      dz2     :     0.016784  d :     0.097980
      dxz     :     0.017841
      dyz     :     0.023808
      dx2y2   :     0.014322
      dxy     :     0.025225

  4 C s       :     1.055353  s :     1.055353
      pz      :     0.941335  p :     2.842737
      px      :     0.952995
      py      :     0.948407
      dz2     :     0.021917  d :     0.115475
      dxz     :     0.023567
      dyz     :     0.030067
      dx2y2   :     0.015654
      dxy     :     0.024271

  5 C s       :     1.033993  s :     1.033993
      pz      :     0.951452  p :     2.868515
      px      :     0.935269
      py      :     0.981794
      dz2     :     0.019473  d :     0.119766
      dxz     :     0.025325
      dyz     :     0.022997
      dx2y2   :     0.030983
      dxy     :     0.020988

  6 C s       :     1.024555  s :     1.024555
      pz      :     0.968740  p :     2.851877
      px      :     0.952221
      py      :     0.930917
      dz2     :     0.028456  d :     0.116049
      dxz     :     0.023609
      dyz     :     0.019103
      dx2y2   :     0.023697
      dxy     :     0.021184

  7 C s       :     1.096705  s :     1.096705
      pz      :     0.979682  p :     2.909747
      px      :     1.003582
      py      :     0.926482
      dz2     :     0.029119  d :     0.141689
      dxz     :     0.021361
      dyz     :     0.027858
      dx2y2   :     0.028551
      dxy     :     0.034800

  8 C s       :     0.994771  s :     0.994771
      pz      :     1.034268  p :     2.937176
      px      :     0.921153
      py      :     0.981755
      dz2     :     0.013842  d :     0.098765
      dxz     :     0.016436
      dyz     :     0.026279
      dx2y2   :     0.020752
      dxy     :     0.021456

  9 C s       :     0.993002  s :     0.993002
      pz      :     0.986467  p :     2.961006
      px      :     0.960663
      py      :     1.013876
      dz2     :     0.018899  d :     0.100952
      dxz     :     0.017412
      dyz     :     0.025445
      dx2y2   :     0.015224
      dxy     :     0.023972

 10 C s       :     0.983521  s :     0.983521
      pz      :     0.983760  p :     2.936963
      px      :     1.012607
      py      :     0.940595
      dz2     :     0.020051  d :     0.099098
      dxz     :     0.009926
      dyz     :     0.030140
      dx2y2   :     0.025790
      dxy     :     0.013191

 11 C s       :     1.083653  s :     1.083653
      pz      :     0.993566  p :     2.966617
      px      :     0.991844
      py      :     0.981207
      dz2     :     0.030027  d :     0.142728
      dxz     :     0.025009
      dyz     :     0.029427
      dx2y2   :     0.032710
      dxy     :     0.025555

 12 C s       :     0.957435  s :     0.957435
      pz      :     0.962951  p :     3.011627
      px      :     1.020541
      py      :     1.028135
      dz2     :     0.017792  d :     0.074708
      dxz     :     0.010313
      dyz     :     0.019850
      dx2y2   :     0.021032
      dxy     :     0.005721

 13 C s       :     0.949884  s :     0.949884
      pz      :     0.994649  p :     3.006802
      px      :     1.019966
      py      :     0.992187
      dz2     :     0.024141  d :     0.073756
      dxz     :     0.007669
      dyz     :     0.011086
      dx2y2   :     0.021724
      dxy     :     0.009136

 14 C s       :     0.943994  s :     0.943994
      pz      :     1.034134  p :     3.021171
      px      :     0.978120
      py      :     1.008917
      dz2     :     0.018233  d :     0.072099
      dxz     :     0.009273
      dyz     :     0.010873
      dx2y2   :     0.018546
      dxy     :     0.015174

 15 H s       :     0.919356  s :     0.919356
      pz      :     0.019933  p :     0.044212
      px      :     0.014038
      py      :     0.010240

 16 H s       :     0.906610  s :     0.906610
      pz      :     0.010901  p :     0.044321
      px      :     0.021437
      py      :     0.011983

 17 H s       :     0.902069  s :     0.902069
      pz      :     0.011315  p :     0.044358
      px      :     0.010589
      py      :     0.022454

 18 H s       :     0.931943  s :     0.931943
      pz      :     0.010833  p :     0.048293
      px      :     0.021859
      py      :     0.015600

 19 H s       :     0.909690  s :     0.909690
      pz      :     0.018476  p :     0.042697
      px      :     0.009928
      py      :     0.014293

 20 H s       :     0.912457  s :     0.912457
      pz      :     0.010517  p :     0.043251
      px      :     0.014913
      py      :     0.017821

 21 H s       :     0.925481  s :     0.925481
      pz      :     0.014417  p :     0.041529
      px      :     0.013328
      py      :     0.013784

 22 H s       :     0.910400  s :     0.910400
      pz      :     0.010792  p :     0.040205
      px      :     0.009336
      py      :     0.020077

 23 H s       :     0.934965  s :     0.934965
      pz      :     0.020790  p :     0.043291
      px      :     0.012407
      py      :     0.010094

 24 H s       :     0.924916  s :     0.924916
      pz      :     0.015773  p :     0.041275
      px      :     0.009366
      py      :     0.016136

 25 H s       :     0.924322  s :     0.924322
      pz      :     0.018994  p :     0.042584
      px      :     0.011374
      py      :     0.012216

 26 H s       :     0.928886  s :     0.928886
      pz      :     0.017921  p :     0.043810
      px      :     0.010191
      py      :     0.015699

 27 H s       :     0.917370  s :     0.917370
      pz      :     0.010649  p :     0.042300
      px      :     0.014788
      py      :     0.016863

 28 H s       :     0.922656  s :     0.922656
      pz      :     0.010175  p :     0.041831
      px      :     0.022395
      py      :     0.009261

 29 H s       :     0.931179  s :     0.931179
      pz      :     0.018290  p :     0.042262
      px      :     0.009594
      py      :     0.014378

 30 H s       :     0.927706  s :     0.927706
      pz      :     0.016909  p :     0.043255
      px      :     0.011362
      py      :     0.014984

 31 H s       :     0.924364  s :     0.924364
      pz      :     0.010400  p :     0.043118
      px      :     0.011112
      py      :     0.021607

 32 H s       :     0.922597  s :     0.922597
      pz      :     0.009496  p :     0.043012
      px      :     0.023534
      py      :     0.009982

 33 H s       :     0.923295  s :     0.923295
      pz      :     0.009839  p :     0.043082
      px      :     0.023489
      py      :     0.009754

 34 H s       :     0.932648  s :     0.932648
      pz      :     0.021882  p :     0.045001
      px      :     0.011834
      py      :     0.011285

 35 H s       :     0.920895  s :     0.920895
      pz      :     0.010339  p :     0.043041
      px      :     0.011468
      py      :     0.021235

 36 H s       :     0.921295  s :     0.921295
      pz      :     0.022573  p :     0.043294
      px      :     0.009993
      py      :     0.010728

[...]
 81:   1507.16   0.002411   12.18  0.000499  (-0.012202  0.018265 -0.004083)
 82:   1510.12   0.000895    4.52  0.000185  ( 0.004181 -0.005063 -0.011912)
 83:   1511.72   0.001555    7.86  0.000321  ( 0.003375  0.003207 -0.017301)
 84:   1515.72   0.000437    2.21  0.000090  (-0.001836  0.000722  0.009283)
 85:   1518.79   0.001358    6.87  0.000279  (-0.012340 -0.004014  0.010523)
 86:   1522.35   0.000279    1.41  0.000057  (-0.000049 -0.004836  0.005808)
 87:   1526.60   0.002357   11.91  0.000482  ( 0.005428 -0.008070 -0.019677)
 88:   1531.46   0.002028   10.25  0.000413  ( 0.016620  0.011639 -0.001218)
 89:   1538.79   0.002212   11.18  0.000449  (-0.000342 -0.017051  0.012557)
 90:   1542.06   0.003209   16.22  0.000649  ( 0.021950  0.010939  0.006927)
 91:   1543.27   0.000079    0.40  0.000016  ( 0.003345 -0.001704 -0.001354)
 92:   1788.04   0.000769    3.89  0.000134  ( 0.004954 -0.001263 -0.010395)
 93:   3071.76   0.006178   31.22  0.000628  (-0.002177  0.024955  0.000406)
 94:   3080.37   0.008956   45.26  0.000907  ( 0.004482 -0.007442 -0.028841)
 95:   3081.10   0.004550   22.99  0.000461  (-0.019413 -0.007585  0.005143)
 96:   3088.88   0.007494   37.87  0.000757  ( 0.010112  0.001763  0.025530)
 97:   3090.31   0.006009   30.36  0.000607  (-0.008422 -0.013988 -0.018443)
 98:   3094.36   0.004401   22.24  0.000444  (-0.011809  0.017420  0.000976)
 99:   3095.74   0.009942   50.24  0.001002  (-0.019093  0.024190 -0.007250)
100:   3102.33   0.007493   37.87  0.000754  (-0.016325 -0.015713  0.015504)
101:   3105.73   0.005009   25.32  0.000503  ( 0.005916 -0.020980  0.005307)
102:   3121.07   0.009824   49.65  0.000982  (-0.015473 -0.012152 -0.024397)
103:   3122.33   0.003487   17.62  0.000348  ( 0.010899 -0.014612  0.004021)
104:   3125.69   0.005395   27.26  0.000539  ( 0.007105 -0.014090  0.017017)
105:   3132.08   0.007348   37.13  0.000732  ( 0.019900 -0.003237 -0.018044)
106:   3142.05   0.003961   20.02  0.000393  (-0.010643 -0.000901  0.016714)
107:   3152.07   0.009118   46.08  0.000903  ( 0.002286  0.022241  0.020071)
108:   3166.26   0.002002   10.12  0.000197  (-0.006862  0.012110 -0.001897)
109:   3169.91   0.003892   19.67  0.000383  (-0.003993 -0.007582 -0.017598)
110:   3176.50   0.000547    2.76  0.000054  (-0.005618 -0.004672 -0.000558)
111:   3180.11   0.008637   43.65  0.000848  ( 0.027545  0.006040 -0.007235)
112:   3182.85   0.004978   25.16  0.000488  (-0.000720 -0.020948 -0.006978)
113:   3195.48   0.004761   24.06  0.000465  (-0.008504  0.007817 -0.018207)
114:   3201.63   0.002697   13.63  0.000263  ( 0.013480  0.006779 -0.005937)
115:   3227.43   0.005834   29.48  0.000564  (-0.020366 -0.011007  0.005307)
116:   3229.76   0.000986    4.98  0.000095  ( 0.007853  0.002868 -0.005037)

* The epsilon (eps) is given for a Dirac delta lineshape.
** The dipole moment derivative (T) already includes vibrational overlap.

The first frequency considered to be a vibration is 6
The total number of vibrations considered is 111


--------------------------
THERMOCHEMISTRY AT 298.15K
--------------------------

Temperature         ...   298.15 K
Pressure            ...     1.00 atm
Total Mass          ...   204.36 AMU
Quasi RRHO          ...     True
Cut-Off Frequency   ...     1.00 cm^-1

Throughout the following assumptions are being made:
  (1) The electronic state is orbitally nondegenerate
  (2) There are no thermally accessible electronically excited states
  (3) Hindered rotations indicated by low frequency modes are not
      treated as such but are treated as vibrations and this may
      cause some error
  (4) All equations used are the standard statistical mechanics
      equations for an ideal gas
  (5) All vibrations are strictly harmonic

freq.      97.32  E(vib)   ...       0.46 
freq.     118.00  E(vib)   ...       0.44 
freq.     151.09  E(vib)   ...       0.40 
freq.     191.09  E(vib)   ...       0.36 
freq.     199.14  E(vib)   ...       0.35 
freq.     209.93  E(vib)   ...       0.34 
freq.     229.06  E(vib)   ...       0.32 
freq.     240.23  E(vib)   ...       0.31 
freq.     269.13  E(vib)   ...       0.29 
freq.     278.82  E(vib)   ...       0.28 
freq.     287.10  E(vib)   ...       0.27 
freq.     310.39  E(vib)   ...       0.26 
freq.     343.61  E(vib)   ...       0.23 
freq.     347.71  E(vib)   ...       0.23 
freq.     359.52  E(vib)   ...       0.22 
freq.     395.26  E(vib)   ...       0.20 
freq.     404.10  E(vib)   ...       0.19 
freq.     436.51  E(vib)   ...       0.17 
freq.     456.21  E(vib)   ...       0.16 
freq.     472.83  E(vib)   ...       0.15 
freq.     505.53  E(vib)   ...       0.14 
freq.     534.03  E(vib)   ...       0.13 
freq.     564.60  E(vib)   ...       0.11 
freq.     588.97  E(vib)   ...       0.10 
freq.     665.17  E(vib)   ...       0.08 
freq.     689.96  E(vib)   ...       0.07 
freq.     782.45  E(vib)   ...       0.05 
freq.     823.19  E(vib)   ...       0.05 
freq.     848.28  E(vib)   ...       0.04 
freq.     873.26  E(vib)   ...       0.04 
freq.     905.57  E(vib)   ...       0.03 
freq.     921.09  E(vib)   ...       0.03 
freq.     938.20  E(vib)   ...       0.03 
freq.     938.80  E(vib)   ...       0.03 
freq.     952.77  E(vib)   ...       0.03 
freq.     971.06  E(vib)   ...       0.03 
freq.     979.69  E(vib)   ...       0.03 
freq.     985.34  E(vib)   ...       0.02 
freq.    1008.16  E(vib)   ...       0.02 
freq.    1019.54  E(vib)   ...       0.02 
freq.    1034.01  E(vib)   ...       0.02 
freq.    1048.58  E(vib)   ...       0.02 
freq.    1056.08  E(vib)   ...       0.02 
freq.    1075.90  E(vib)   ...       0.02 
freq.    1085.88  E(vib)   ...       0.02 
freq.    1089.89  E(vib)   ...       0.02 
freq.    1094.57  E(vib)   ...       0.02 
freq.    1128.56  E(vib)   ...       0.01 
freq.    1147.57  E(vib)   ...       0.01 
freq.    1175.37  E(vib)   ...       0.01 
freq.    1186.44  E(vib)   ...       0.01 
freq.    1209.38  E(vib)   ...       0.01 
freq.    1220.69  E(vib)   ...       0.01 
freq.    1229.39  E(vib)   ...       0.01 
freq.    1242.79  E(vib)   ...       0.01 
freq.    1243.75  E(vib)   ...       0.01 
freq.    1270.64  E(vib)   ...       0.01 
freq.    1283.83  E(vib)   ...       0.01 
freq.    1303.12  E(vib)   ...       0.01 
freq.    1322.48  E(vib)   ...       0.01 
freq.    1344.13  E(vib)   ...       0.01 
freq.    1347.49  E(vib)   ...       0.01 
freq.    1366.58  E(vib)   ...       0.01 
freq.    1372.01  E(vib)   ...       0.01 
freq.    1385.52  E(vib)   ...       0.00 
freq.    1404.88  E(vib)   ...       0.00 
freq.    1414.36  E(vib)   ...       0.00 
freq.    1431.54  E(vib)   ...       0.00 
freq.    1439.14  E(vib)   ...       0.00 
freq.    1441.64  E(vib)   ...       0.00 
freq.    1446.12  E(vib)   ...       0.00 
freq.    1448.74  E(vib)   ...       0.00 
freq.    1448.96  E(vib)   ...       0.00 
freq.    1469.16  E(vib)   ...       0.00 
freq.    1505.99  E(vib)   ...       0.00 
freq.    1507.16  E(vib)   ...       0.00 
freq.    1510.12  E(vib)   ...       0.00 
freq.    1511.72  E(vib)   ...       0.00 
freq.    1515.72  E(vib)   ...       0.00 
freq.    1518.79  E(vib)   ...       0.00 
freq.    1522.35  E(vib)   ...       0.00 
freq.    1526.60  E(vib)   ...       0.00 
freq.    1531.46  E(vib)   ...       0.00 
freq.    1538.79  E(vib)   ...       0.00 
freq.    1542.06  E(vib)   ...       0.00 
freq.    1543.27  E(vib)   ...       0.00 
freq.    1788.04  E(vib)   ...       0.00 
freq.    3071.76  E(vib)   ...       0.00 
freq.    3080.37  E(vib)   ...       0.00 
freq.    3081.10  E(vib)   ...       0.00 
freq.    3088.88  E(vib)   ...       0.00 
freq.    3090.31  E(vib)   ...       0.00 
freq.    3094.36  E(vib)   ...       0.00 
freq.    3095.74  E(vib)   ...       0.00 
freq.    3102.33  E(vib)   ...       0.00 
freq.    3105.73  E(vib)   ...       0.00 
freq.    3121.07  E(vib)   ...       0.00 
freq.    3122.33  E(vib)   ...       0.00 
freq.    3125.69  E(vib)   ...       0.00 
freq.    3132.08  E(vib)   ...       0.00 
freq.    3142.05  E(vib)   ...       0.00 
freq.    3152.07  E(vib)   ...       0.00 
freq.    3166.26  E(vib)   ...       0.00 
freq.    3169.91  E(vib)   ...       0.00 
freq.    3176.50  E(vib)   ...       0.00 
freq.    3180.11  E(vib)   ...       0.00 
freq.    3182.85  E(vib)   ...       0.00 
freq.    3195.48  E(vib)   ...       0.00 
freq.    3201.63  E(vib)   ...       0.00 
freq.    3227.43  E(vib)   ...       0.00 
freq.    3229.76  E(vib)   ...       0.00 

------------
INNER ENERGY
------------

The inner energy is: U= E(el) + E(ZPE) + E(vib) + E(rot) + E(trans)
    E(el)   - is the total energy from the electronic structure calculation
              = E(kin-el) + E(nuc-el) + E(el-el) + E(nuc-nuc)
    E(ZPE)  - the the zero temperature vibrational energy from the frequency calculation
    E(vib)  - the the finite temperature correction to E(ZPE) due to population
              of excited vibrational states
    E(rot)  - is the rotational thermal energy
    E(trans)- is the translational thermal energy

Summary of contributions to the inner energy U:
Electronic energy                ...    -99.93106153 Eh
Zero point energy                ...      0.36655667 Eh     230.02 kcal/mol
Thermal vibrational correction   ...      0.01128972 Eh       7.08 kcal/mol
Thermal rotational correction    ...      0.00141627 Eh       0.89 kcal/mol
Thermal translational correction ...      0.00141627 Eh       0.89 kcal/mol
-----------------------------------------------------------------------
Total thermal energy                    -99.55038260 Eh


Summary of corrections to the electronic energy:
(perhaps to be used in another calculation)
Total thermal correction                  0.01412227 Eh       8.86 kcal/mol
Non-thermal (ZPE) correction              0.36655667 Eh     230.02 kcal/mol
-----------------------------------------------------------------------
Total correction                          0.38067893 Eh     238.88 kcal/mol


--------
ENTHALPY
--------

The enthalpy is H = U + kB*T
                kB is Boltzmann's constant
Total thermal energy              ...    -99.55038260 Eh 
Thermal Enthalpy correction       ...      0.00094421 Eh       0.59 kcal/mol
-----------------------------------------------------------------------
Total Enthalpy                    ...    -99.54943839 Eh


Note: Only C1 symmetry has been detected, increase convergence thresholds 
      if your molecule has a higher symmetry. Symmetry factor of 1.0 is   
      used for the rotational entropy correction. 
 

Note: Rotational entropy computed according to Herzberg 
Infrared and Raman Spectra, Chapter V,1, Van Nostrand Reinhold, 1945 
Point Group:  C1, Symmetry Number:   1  
Rotational constants in cm-1:     0.029763     0.018379     0.016139 

Vibrational entropy computed according to the QRRHO of S. Grimme
Chem.Eur.J. 2012 18 9955 using a reference frequency of 100.0 cm-1


-------
ENTROPY
-------

The entropy contributions are T*S = T*(S(el)+S(vib)+S(rot)+S(trans))
     S(el)   - electronic entropy
     S(vib)  - vibrational entropy
     S(rot)  - rotational entropy
     S(trans)- translational entropy
The entropies will be listed as multiplied by the temperature to get
units of energy

Electronic entropy                ...      0.00000000 Eh      0.00 kcal/mol
Vibrational entropy               ...      0.01842080 Eh     11.56 kcal/mol
Rotational entropy                ...      0.01500479 Eh      9.42 kcal/mol
Translational entropy             ...      0.01988345 Eh     12.48 kcal/mol
-----------------------------------------------------------------------
Final entropy term                ...      0.05330903 Eh     33.45 kcal/mol

In case the symmetry of your molecule has not been determined correctly
or in case you have a reason to use a different symmetry number we print 
out the resulting rotational entropy values for sn=1,12:

 non-linear molecules -----------------------------------
|  sn= 1 | S(rot)=       0.01500479 Eh      9.42 kcal/mol|
|  sn= 2 | S(rot)=       0.01435033 Eh      9.00 kcal/mol|
|  sn= 3 | S(rot)=       0.01396750 Eh      8.76 kcal/mol|
|  sn= 4 | S(rot)=       0.01369587 Eh      8.59 kcal/mol|
|  sn= 5 | S(rot)=       0.01348519 Eh      8.46 kcal/mol|
|  sn= 6 | S(rot)=       0.01331304 Eh      8.35 kcal/mol|
|  sn= 7 | S(rot)=       0.01316750 Eh      8.26 kcal/mol|
|  sn= 8 | S(rot)=       0.01304142 Eh      8.18 kcal/mol|
|  sn= 9 | S(rot)=       0.01293021 Eh      8.11 kcal/mol|
|  sn=10 | S(rot)=       0.01283073 Eh      8.05 kcal/mol|
|  sn=11 | S(rot)=       0.01274074 Eh      7.99 kcal/mol|
|  sn=12 | S(rot)=       0.01265859 Eh      7.94 kcal/mol|
 linear molecules ---------------------------------------
|  Dinfh | S(rot)=       0.00922198 Eh      5.79 kcal/mol|
|  Cinfv | S(rot)=       0.00987644 Eh      6.20 kcal/mol|
 --------------------------------------------------------


-------------------
GIBBS FREE ENERGY
-------------------

The Gibbs free energy is G = H - T*S

Total enthalpy                    ...    -99.54943839 Eh 
Total entropy correction          ...     -0.05330903 Eh    -33.45 kcal/mol
-----------------------------------------------------------------------
Final Gibbs free energy         ...    -99.60274742 Eh

For completeness - the Gibbs free energy minus the electronic energy
G-E(el)                           ...      0.32831411 Eh    206.02 kcal/mol


Maximum memory used throughout the entire PROP-calculation: 242.3 MB

--------------------------------
SUGGESTED CITATIONS FOR THIS RUN
--------------------------------

Below you find a list of papers that are relevant to this ORCA run
We neither can nor want to force you to cite these papers, but we appreciate if you do
You receive ORCA, which is the product of decades of hard work by many enthusiastic individuals, for free
The only thing we kindly ask in return is that you cite our papers,
We deeply appreciate it, if you show your appreciation for ORCA by not just citing the generic ORCA reference.

Please note that relegating all ORCA citations to the supporting information does *not* help us.
SI sections are not indexed - citations you put there will not count into any citation statistics
But we need these citations in order to attract the funding resources that allow us to do what we are doing

Therefore, if you are a happy ORCA user, please consider citing a few of the papers listed below in the main body of your paper

In addition to the list printed below, the program has created the file ./output/alpha_longipinene/alpha_longipinene.bibtex that contains the list in bibtex format
You can import this file easily into all common literature databanks and citation aid programs


List of essential papers. We consider these as the minimum necessary citations

  1. Neese,F.
     Software update: the ORCA program system, version 5.0
     WIRES Comput. Molec. Sci., 2022 12(1)e1606
     doi.org/10.1002/wcms.1606
  2. Mueller,M.; Hansen,A.; Grimme,S.
     wB97X-3c: A composite range-separated hybrid DFT method with a molecule-optimized polarized valence double-zeta basis set
     J. Chem. Phys., 2023 158 014103
     doi.org/10.1063/5.0133026

List of papers to cite with high priority. The work reported in these papers was absolutely
necessary for this run to complete.
Our perspective: the developers of density functionals and basis sets usually get cited in chemistry papers
Good! But without the algorithms to do something with them, the functionals or basis sets would not do anything.
Hence, in our opinion, the algorithm design and method developments papers are equally worthy of getting cited

  1. Neese,F.
     An improvement of the resolution of the identity approximation for the formation of the Coulomb matrix
     J. Comp. Chem., 2003 24(14)1740-1747
     doi.org/10.1002/jcc.10318
  2. Neese,F.; Wennmohs,F.; Hansen,A.; Becker,U.
     Efficient, approximate and parallel Hartree-Fock and hybrid DFT calculations. A 'chain-of-spheres' algorithm for the Hartree-Fock exchange
     Chem. Phys., 2009 356(1-3)98-109
     doi.org/10.1016/j.chemphys.2008.10.036
  3. Bykov,D.; Petrenko,T.; Izsak,R.; Kossmann,S.; Becker,U.; Valeev,E.; Neese,F.
     Efficient implementation of the analytic second derivatives of Hartree-Fock and hybrid DFT energies: a detailed analysis of different approximations
     Molec. Phys., 2015 113 1961-1977
     doi.org/10.1080/00268976.2015.1025114
  4. Helmich-Paris,B.; de Souza,B.; Neese,F.; Izsák,R.
     An improved chain of spheres for exchange algorithm
     J. Chem. Phys., 2021 155 104109
     doi.org/doi: 10.1063/5.0058766.
  5. Neese,F.
     The SHARK Integral Generation and Digestion System
     J. Comp. Chem., 2022  1-16
     doi.org/10.1002/jcc.26942
  6. Caldeweyher,E.; Bannwarth,C.; Grimme,S.
     Extension of the D3 dispersion coefficient model
     J. Chem. Phys., 2017 147 034112
     doi.org/10.1063/1.4993215
  7. Caldeweyher,E.; Ehlert,S.; Hansen,A.; Neugebauer,H.; Spicher,S.; Bannwarth,C.; Grimme,S.
     A generally applicable atomic-charge dependent London dispersion correction
     J. Chem. Phys., 2019 150 154122
     doi.org/10.1063/1.5090222
  8. Caldeweyher,E.; Mewes,J.; Ehlert,S.; Grimme,S.
     Extension and evaluation of the D4 London-dispersion model for periodic systems
     Phys. Chem. Chem. Phys., 2020 22(16)8499-8512
     doi.org/10.1039/D0CP00502A
  9. Wittmann,L.; Gordiy,I.; Friede,M.; Helmich-Paris,B.; Grimme,S.; Hansen,A.; Bursch,M.
     Extension of the D3 and D4 London Dispersion Corrections to the full Actinides Series
     Phys. Chem. Chem. Phys., 2024 26(32)21379-21394
     doi.org/https://doi.org/10.1039/D4CP01514B 

List of suggested additional citations. These are papers that are important in the 'surrounding' of 
of this run, or papers that preceded the highly important papers. If you like your results we are grateful for a citation.

  1. Izsak,R.; Neese,F.
     An overlap fitted chain of spheres exchange method
     J. Chem. Phys., 2011 135 144105
     doi.org/10.1063/1.3646921
  2. Izsak,R.; Hansen,A.; Neese,F.
     The resolution of identity and chain of spheres approximations for the LPNO-CCSD singles Fock term
     Molec. Phys., 2012 110 2413-2417
     doi.org/10.1080/00268976.2012.687466
  3. Neese,F.
     The ORCA program system
     WIRES Comput. Molec. Sci., 2012 2(1)73-78
     doi.org/10.1002/wcms.81
  4. Izsak,R.; Neese,F.; Klopper,W.
     Robust fitting techniques in the chain of spheres approximation to the Fock exchange: The role of the complementary space
     J. Chem. Phys., 2013 139 
     doi.org/10.1063/1.4819264
  5. Neese,F.
     Software update: the ORCA program system, version 4.0
     WIRES Comput. Molec. Sci., 2018 8(1)1-6
     doi.org/10.1002/wcms.1327
  6. Neese,F.; Wennmohs,F.; Becker,U.; Riplinger,C.
     The ORCA quantum chemistry program package
     J. Chem. Phys., 2020 152 Art. No. L224108
     doi.org/10.1063/5.0004608

List of optional additional citations

  1. Neese,F.
     Approximate second-order SCF convergence for spin unrestricted wavefunctions
     Chem. Phys. Lett., 2000 325(1-3)93-98
     doi.org/10.1016/s0009-2614(00)00662-x

Timings for individual modules:

Sum of individual times          ...     2310.588 sec (=  38.510 min)
Startup calculation              ...       99.549 sec (=   1.659 min)   4.3 %
SCF iterations                   ...     1417.640 sec (=  23.627 min)  61.4 %
Property integrals               ...      150.360 sec (=   2.506 min)   6.5 %
SCF Response                     ...       86.160 sec (=   1.436 min)   3.7 %
Property calculations            ...      226.964 sec (=   3.783 min)   9.8 %
SCF Gradient evaluation          ...      329.288 sec (=   5.488 min)  14.3 %
Geometry relaxation              ...        0.627 sec (=   0.010 min)   0.0 %
                             ****ORCA TERMINATED NORMALLY****
TOTAL RUN TIME: 0 days 0 hours 38 minutes 40 seconds 305 msec
