
                                 *****************
                                 * O   R   C   A *
                                 *****************

                                            #,                                       
                                            ###                                      
                                            ####                                     
                                            #####                                    
                                            ######                                   
                                           ########,                                 
                                     ,,################,,,,,                         
                               ,,#################################,,                 
                          ,,##########################################,,             
                       ,#########################################, ''#####,          
                    ,#############################################,,   '####,        
                  ,##################################################,,,,####,       
                ,###########''''           ''''###############################       
              ,#####''   ,,,,##########,,,,          '''####'''          '####       
            ,##' ,,,,###########################,,,                        '##       
           ' ,,###''''                  '''############,,,                           
         ,,##''                                '''############,,,,        ,,,,,,###''
      ,#''                                            '''#######################'''  
     '                                                          ''''####''''         
             ,#######,   #######,   ,#######,      ##                                
            ,#'     '#,  ##    ##  ,#'     '#,    #''#        ,####,   ,####,        
            ##       ##  ##   ,#'  ##            #'  '#       #'       #'  '#        
            ##       ##  #######   ##           ,######,      #####,   #    #        
            '#,     ,#'  ##    ##  '#,     ,#' ,#      #,     #,   #   #,  ,#        
             '#######'   ##     ##  '#######'  #'      '#     '####' # '####'        



                #########################################################
                #                        -***-                          #
                #          Department of theory and spectroscopy        #
                #                                                       #
                #                      Frank Neese                      #
                #                                                       #
                #     Directorship, Architecture, Infrastructure        #
                #                    SHARK, DRIVERS                     #
                #        Core code/Algorithms in most modules           #
                #                                                       #
                #        Max Planck Institute fuer Kohlenforschung      #
                #                Kaiser Wilhelm Platz 1                 #
                #                 D-45470 Muelheim/Ruhr                 #
                #                      Germany                          #
                #                                                       #
                #                  All rights reserved                  #
                #                        -***-                          #
                #########################################################


                         Program Version 6.0.1  -  RELEASE   -


 With contributions from (in alphabetic order):
[Max-Planck-Institut fuer Kohlenforschung]                               
  Daniel Aravena         : Magnetic Suceptibility                        
  Michael Atanasov       : Ab Initio Ligand Field Theory (pilot matlab implementation)
  Alexander A. Auer      : GIAO ZORA, VPT2 properties, NMR spectrum      
  Ute Becker             : All parallelization in ORCA, NUMFREQ, NUMCALC 
  Giovanni Bistoni       : ED, misc. LED, open-shell LED, HFLD           
  Martin Brehm           : Molecular dynamics                            
  Dmytro Bykov           : pre 5.0 version of the SCF Hessian            
  Marcos Casanova-Páez   : Triplet and SCS-CIS(D). UHF-(DLPNO)-IP/EA/STEOM-CCSD. UHF-CVS-IP/STEOM-CCSD   
  Vijay G. Chilkuri      : MRCI spin determinant printing, contributions to CSF-ICE 
  Pauline Colinet        : FMM embedding                                 
  Dipayan Datta          : RHF DLPNO-CCSD density                        
  Achintya Kumar Dutta   : EOM-CC, STEOM-CC                              
  Nicolas Foglia         : Exact transition moments, OPA infrastructure, MCD improvements    
  Dmitry Ganyushin       : Spin-Orbit,Spin-Spin,Magnetic field MRCI      
  Miquel Garcia-Rates    : C-PCM and meta-GGA Hessian, CCSD/C-PCM, Gaussian charge scheme 
  Tiago L. C. Gouveia    : GS-ROHF, GS-ROCIS                             
  Yang Guo               : DLPNO-NEVPT2, F12-NEVPT2, CIM, IAO-localization        
  Andreas Hansen         : Spin unrestricted coupled pair/coupled cluster methods 
  Ingolf Harden          : AUTO-CI MPn and infrastructure                
  Benjamin Helmich-Paris : MC-RPA, TRAH-(SCF,CASSCF), AVAS, COSX integrals, SCF dyn. polar. 
  Lee Huntington         : MR-EOM, pCC                                   
  Robert Izsak           : Overlap fitted RIJCOSX, COSX-SCS-MP3, EOM     
  Riya Kayal             : Wick's Theorem for AUTO-CI, AUTO-CI UHF-CCSDT 
  Emily Kempfer          : AUTO-CI, RHF CISDT and CCSDT                  
  Christian Kollmar      : KDIIS, OOCD, Brueckner-CCSD(T), CCSD density, CASPT2, CASPT2-K, improved NEVPT2 
  Axel Koslowski         : Symmetry handling                             
  Simone Kossmann        : meta-GGA functionals, TD-DFT gradient, OOMP2, (MP2 Hessian; deprecated post 5.0) 
  Lucas Lang             : DCDCAS                                        
  Marvin Lechner         : AUTO-CI (C++ implementation), FIC-MRCC        
  Spencer Leger          : CASSCF response                               
  Dagmar Lenk            : GEPOL surface, SMD, ORCA-2-JSON               
  Dimitrios Liakos       : Extrapolation schemes; Compound Job, initial MDCI parallelization 
  Dimitrios Manganas     : Further ROCIS development; embedding schemes. LFT, Crystal Embedding 
  Dimitrios Pantazis     : SARC Basis sets                               
  Anastasios Papadopoulos: AUTO-CI, single reference methods and gradients 
  Taras Petrenko         : pre 6.0 DFT Hessian and TD-DFT gradient, (ASA, deprecated), ECA, 1-Electron XAS/XES, NRVS 
  Peter Pinski           : DLPNO-MP2, DLPNO-MP2 Gradient                 
  Christoph Reimann      : Effective Core Potentials                     
  Marius Retegan         : Local ZFS, SOC                                
  Christoph Riplinger    : Optimizer, TS searches, QM/MM, DLPNO-CCSD(T), (RO)-DLPNO pert. Triples 
  Michael Roemelt        : Original ROCIS implementation                 
  Masaaki Saitow         : Open-shell DLPNO-CCSD energy and density      
  Barbara Sandhoefer     : DKH picture change effects                    
  Kantharuban Sivalingam : CASSCF convergence/infrastructure, NEVPT2 and variants, FIC-MRCI 
  Bernardo de Souza      : ESD, SOC TD-DFT                               
  Georgi L. Stoychev     : AutoAux, RI-MP2 NMR, DLPNO-MP2 response, X2C  
  Van Anh Tran           : RI-MP2 g-tensors                              
  Willem Van den Heuvel  : Paramagnetic NMR                              
  Zikuan Wang            : NOTCH, Electric field optimization            
  Frank Wennmohs         : Technical directorship and infrastructure     
  Hang Xu                : AUTO-CI-Response properties                   
                                                                         
[FACCTs GmbH]                                                            
  Markus Bursch, Miquel Garcia-Rates, Christoph Riplinger, Bernardo de Souza, Georgi L. Stoychev 
                                                                 
  APM, Basis sets (HGBS, AHGBS, def-TZVP (Ac-Lr), def2-XVPD (La-Lu)), CI-OPT, improved COSX, DLPNO-Multilevel,           
  DOCKER, DRACO, updates on ESD, GOAT, IRC, LR-CPCM, MBIS, meta-GGA TD-DFT gradient, ML-optimized integration grids, 
  MM, NACMEs, nearIR, NEB, NEB-TS, NL-DFT gradient (VV10), 2- and 3-layer-ONIOM, interface openCOSMO-RS, QMMM,   
  Crystal-QMMM, SF, symmetry and pop. for TD-DFT, r2SCAN hybrids, SOLVATOR                                   
                                                                         
[Other institutions]                                                     
  V. Asgeirsson          : NEB                                           
  Christoph Bannwarth    : sTDA-DFT, sTD-DFT, PBEh-3c, B97-3c, D3        
  Sebastian Ehlert       : rSCAN, r2SCAN, r2SCAN-3c, D4, dhf basis sets  
  Marvin Friede          : D4 for Fr, Ra, Ac-Lr                          
  Lars Goerigk           : TD-DFT with DH, B97 family of functionals     
  Stefan Grimme          : VdW corrections, initial TS optimization, DFT functionals, gCP, sTDA/sTD-DF 
  Waldemar Hujo          : DFT-NL                                        
  H. Jonsson             : NEB                                           
  Holger Kruse           : gCP                                           
  Marcel Mueller         : wB97X-3c, vDZP basis set                      
  Hagen Neugebauer       : wr2SCAN                                       
  Tobias Risthaus        : range-separated hybrid DFT                    
  Lukas Wittmann         : regularized MP2, r2SCAN double-hybrids, wr2SCAN        
                                                                         
We gratefully acknowledge several colleagues who have allowed us to      
interface, adapt or use parts of their codes:                            
  Ed Valeev, F. Pavosevic, A. Kumar             : LibInt (2-el integral package), F12 methods 
  Garnet Chan, S. Sharma, J. Yang, R. Olivares  : DMRG                   
  Ulf Ekstrom                                   : XCFun DFT Library      
  Mihaly Kallay                                 : mrcc  (arbitrary order and MRCC methods)
  Frank Weinhold                                : gennbo (NPA and NBO analysis)           
  Simon Mueller                                 : openCOSMO-RS                            
  Christopher J. Cramer and Donald G. Truhlar   : smd solvation model                     
  S Lehtola, MJT Oliveira, MAL Marques          : LibXC Library                           
  Liviu Ungur et al                             : ANISO software                          


 Your calculation uses the libint2 library for the computation of 2-el integrals
 For citations please refer to: http://libint.valeyev.net

 Your ORCA version has been built with support for libXC version: 6.2.2
 For citations please refer to: https://libxc.gitlab.io

 This ORCA versions uses:
   CBLAS   interface :  Fast vector & matrix operations
   LAPACKE interface :  Fast linear algebra routines
   SCALAPACK package :  Parallel linear algebra routines
   Shared memory     :  Shared parallel matrices
   BLAS/LAPACK       :  OpenBLAS 0.3.27  USE64BITINT DYNAMIC_ARCH NO_AFFINITY SkylakeX SINGLE_THREADED
        Core in use  :  SkylakeX
   Copyright (c) 2011-2014, The OpenBLAS Project


Your calculation utilizes the atom-pairwise dispersion correction
based on EEQ partial charges (D4)


================================================================================

cite the ECPs for C  [vDZP-ECP] as follows:
   B-Ne (ecp-2-mwb), Al-Ar (ecp-10-mwb), Ga-Kr (ecp-28-mwb), Y-Cd (ecp-28-mwb), In-Xe (ecp-46-mwb):
     A. Bergner, M. Dolg, W. Küchle, H. Stoll, and H. Preuß, Mol. Phys. 80, 1431 (1993)., T. Leininger, A. Berning, A. Nicklass, H. Stoll, H.-J. Werner, and H.-J.Flad, Chem. Phys. 217, 19 (1997).
   Na-Mg, K-Ca, Rb-Sr, Cs-Ba (CRENBL):
     L. Fernandez Pacios and P. A. Christiansen, J. Chem. Phys. 82, 2664 (1985)., M. M. Hurley, L. F. Pacios, P. A. Christiansen, R. B. Ross, and W. C. Ermler, J. Chem. Phys. 84, 6840 (1986)., L. A. LaJohn, P. A. Christiansen, R. B. Ross, T. Atashroo, and W. C. Ermler, J. Chem. Phys. 87, 2812 (1987)., R. B. Ross, J. M. Powers, T. Atashroo, W. C. Ermler, L. A. LaJohn, and P. A. Christiansen, J. Chem. Phys. 93, 6654 (1990). 
   Sc-Zn (ecp-10-mdf):
     M. Dolg, U. Wedig, H. Stoll, and H. Preuss, J. Chem. Phys. 86, 866 (1986). 
   Y-Cd (ecp-28-mwb), Hf-Hg (ecp-60-mwb):
     D. Andrae, U. Häußermann, M. Dolg, H. Stoll, and H. Preuß, Theor. Chim. Acta 77, 123 (1990). 
   La (ecp-46-mwb):
     M. Dolg, H. Stoll, and H. Preuss, J. Chem. Phys. 90, 1730 (1989)., M. Dolg, H. Stoll, and H. Preuss, Theor. Chim. Acta 85, 441 (1993).
   Ce-Lu (SBKJC-ecp):
     T. R. Cundari and W. J. Stevens, J. Chem. Phys. 98, 5555 (1993).
   Tl-Rn (ecp-78-mwb):
     W. Küchle, M. Dolg, H. Stoll, and H. Preuss, Mol. Phys. 74, 1245 (1991).

ECP parameters for C  [vDZP-ECP] have been obtained from:
MM, AH, SG, J. Chem. Phys. 158, 014103 (2023), 10.1063/5.0133026

----- Orbital basis set information -----
Your calculation utilizes the basis: vDZP
   Marcel Mueller, Andreas Hansen, Stefan Grimme 
   J. Chem. Phys. 158, 014103 (2023). DOI: 10.1063/5.0133026

----- AuxJ basis set information -----
Your calculation utilizes the auxiliary basis: def2/J
   F. Weigend, Phys. Chem. Chem. Phys. 8, 1057 (2006).

================================================================================
                                        WARNINGS
                       Please study these warnings very carefully!
================================================================================

WARNING: Frozen-Core approximation turned on, but there are no core electrons.
  ===> : Turning off frozen-core approximation


WARNING: Geometry Optimization
  ===> : Switching off AutoStart
         For restart on a previous wavefunction, please use MOREAD

================================================================================
                                       INPUT FILE
================================================================================
NAME = ./output/beta_gurjunene/beta_gurjunene.inp
|  1> ! wB97X-3c OPT FREQ TightSCF
|  2> %pal
|  3>   nprocs 40
|  4> end
|  5> * xyz 0 1
|  6> C     -3.110948    -1.696215     0.507592
|  7> C     -1.660423    -1.305826     0.171326
|  8> C     -0.696118    -2.172956     1.063296
|  9> C      0.837699    -2.144679     0.767345
| 10> C      1.204381    -1.159557    -0.339562
| 11> C      1.052010     0.278236     0.224537
| 12> C      2.363638    -0.179209    -0.415458
| 13> C      3.545211    -0.447263     0.523786
| 14> C      2.690420     0.371298    -1.808129
| 15> C     -0.238078     0.787393    -0.424324
| 16> C     -1.425434     0.229333     0.381955
| 17> C     -2.568734     1.188035     0.024550
| 18> C     -1.903415     2.566367    -0.054185
| 19> C     -0.469385     2.258554    -0.344678
| 20> C      0.449999     3.194789    -0.604809
| 21> H     -3.253518    -2.792907     0.402365
| 22> H     -3.822752    -1.210027    -0.191389
| 23> H     -3.363026    -1.401572     1.548977
| 24> H     -1.505016    -1.566334    -0.897974
| 25> H     -0.848830    -1.884630     2.126856
| 26> H     -1.016411    -3.236179     0.995447
| 27> H      1.161686    -3.152859     0.430875
| 28> H      1.391079    -1.939988     1.708003
| 29> H      0.780327    -1.393203    -1.342137
| 30> H      1.104722     0.367485     1.333610
| 31> H      4.095522    -1.346619     0.176744
| 32> H      4.236559     0.421054     0.505403
| 33> H      3.230763    -0.603051     1.575920
| 34> H      3.234452     1.333375    -1.708025
| 35> H      1.784097     0.544086    -2.423637
| 36> H      3.342391    -0.350013    -2.343620
| 37> H     -0.333369     0.511659    -1.499309
| 38> H     -1.241479     0.390099     1.471781
| 39> H     -3.372187     1.176755     0.792809
| 40> H     -2.993538     0.922882    -0.969219
| 41> H     -2.355069     3.178592    -0.864469
| 42> H     -1.983518     3.095969     0.919822
| 43> H      0.187943     4.247409    -0.566957
| 44> H      1.468345     2.919718    -0.855118
| 45> *
| 46> 
| 47>                          ****END OF INPUT****
================================================================================

                       *****************************
                       * Geometry Optimization Run *
                       *****************************

Geometry optimization settings:
Update method            Update   .... BFGS
Choice of coordinates    CoordSys .... (2022) Redundant Internals
Initial Hessian          InHess   .... Almloef's Model
Max. no of cycles        MaxIter  .... 117

Convergence Tolerances:
Energy Change            TolE     ....  5.0000e-06 Eh
Max. Gradient            TolMAXG  ....  3.0000e-04 Eh/bohr
RMS Gradient             TolRMSG  ....  1.0000e-04 Eh/bohr
Max. Displacement        TolMAXD  ....  4.0000e-03 bohr
RMS Displacement         TolRMSD  ....  2.0000e-03 bohr
Strict Convergence                .... False

------------------------------------------------------------------------------
                        ORCA OPTIMIZATION COORDINATE SETUP
------------------------------------------------------------------------------

The optimization will be done in redundant internal coordinates (2022)
Making redundant internal coordinates   ...  (2022 redundants) done
Evaluating the initial hessian          ...  (Almloef) done
Evaluating the coordinates              ...  done
Calculating the B-matrix                .... done
Calculating the G-matrix                .... done
Diagonalizing the G-matrix              .... done
Small eigenvalue found = 2.094e-02
Small eigenvalue found = 2.940e-02
The first mode is                       ....  112
The number of degrees of freedom        ....  111

    -----------------------------------------------------------------
                    Redundant Internal Coordinates


    -----------------------------------------------------------------
         Definition                    Initial Value    Approx d2E/dq
    -----------------------------------------------------------------
      1. B(C   1,C   0)                  1.5393         0.361003   
      2. B(C   2,C   1)                  1.5740         0.317843   
      3. B(C   3,C   2)                  1.5624         0.331698   
      4. B(C   4,C   3)                  1.5265         0.378426   
      5. B(C   5,C   4)                  1.5520         0.344583   
      6. B(C   6,C   5)                  1.5295         0.374330   
      7. B(C   6,C   4)                  1.5201         0.387404   
      8. B(C   7,C   6)                  1.5330         0.369455   
      9. B(C   8,C   6)                  1.5328         0.369796   
     10. B(C   9,C   5)                  1.5312         0.371925   
     11. B(C  10,C   9)                  1.5399         0.360216   
     12. B(C  10,C   1)                  1.5673         0.325788   
     13. B(C  11,C  10)                  1.5343         0.367761   
     14. B(C  12,C  11)                  1.5325         0.370119   
     15. B(C  13,C   9)                  1.4914         0.430548   
     16. B(C  13,C  12)                  1.4952         0.424544   
     17. B(C  14,C  13)                  1.3377         0.757115   
     18. B(H  15,C   0)                  1.1109         0.333468   
     19. B(H  16,C   0)                  1.1098         0.334858   
     20. B(H  17,C   0)                  1.1112         0.333078   
     21. B(H  18,C   1)                  1.1115         0.332760   
     22. B(H  19,C   2)                  1.1125         0.331556   
     23. B(H  20,C   2)                  1.1125         0.331544   
     24. B(H  21,C   3)                  1.1111         0.333207   
     25. B(H  22,C   3)                  1.1104         0.334112   
     26. B(H  23,C   4)                  1.1134         0.330487   
     27. B(H  24,C   5)                  1.1139         0.329824   
     28. B(H  25,C   7)                  1.1100         0.334579   
     29. B(H  26,C   7)                  1.1101         0.334495   
     30. B(H  27,C   7)                  1.1091         0.335682   
     31. B(H  28,C   8)                  1.1098         0.334877   
     32. B(H  29,C   8)                  1.1091         0.335686   
     33. B(H  30,C   8)                  1.1100         0.334588   
     34. B(H  31,C   9)                  1.1139         0.329870   
     35. B(H  32,C  10)                  1.1169         0.326249   
     36. B(H  33,C  11)                  1.1117         0.332503   
     37. B(H  34,C  11)                  1.1128         0.331158   
     38. B(H  35,C  12)                  1.1115         0.332786   
     39. B(H  36,C  12)                  1.1116         0.332669   
     40. B(H  37,C  14)                  1.0854         0.366223   
     41. B(H  38,C  14)                  1.0841         0.367944   
     42. A(H  15,C   0,H  16)          106.8886         0.284124   
     43. A(C   1,C   0,H  17)          110.5629         0.318416   
     44. A(H  16,C   0,H  17)          109.1832         0.284072   
     45. A(H  15,C   0,H  17)          108.7482         0.283888   
     46. A(C   1,C   0,H  16)          110.8363         0.318693   
     47. A(C   1,C   0,H  15)          110.5244         0.318477   
     48. A(C   0,C   1,C  10)          111.1215         0.352930   
     49. A(C   2,C   1,H  18)          109.2932         0.311851   
     50. A(C  10,C   1,H  18)          109.7492         0.313100   
     51. A(C   2,C   1,C  10)          111.8151         0.345432   
     52. A(C   0,C   1,C   2)          108.2884         0.351459   
     53. A(C   0,C   1,H  18)          106.4077         0.318367   
     54. A(C   1,C   2,H  20)          108.3952         0.311666   
     55. A(C   3,C   2,H  20)          106.7616         0.313827   
     56. A(C   1,C   2,C   3)          118.9563         0.346478   
     57. A(C   1,C   2,H  19)          108.3544         0.311668   
     58. A(C   3,C   2,H  19)          108.1296         0.313829   
     59. A(H  19,C   2,H  20)          105.4550         0.283432   
     60. A(C   2,C   3,H  22)          109.3979         0.314220   
     61. A(H  21,C   3,H  22)          106.1693         0.283991   
     62. A(C   4,C   3,H  22)          112.0621         0.321040   
     63. A(C   4,C   3,H  21)          107.2135         0.320897   
     64. A(C   2,C   3,H  21)          109.0986         0.314082   
     65. A(C   2,C   3,C   4)          112.6352         0.356848   
     66. A(C   5,C   4,C   6)           59.7053         0.360606   
     67. A(C   6,C   4,H  23)          112.3860         0.321699   
     68. A(C   3,C   4,H  23)          115.2175         0.320467   
     69. A(C   3,C   4,C   6)          129.4642         0.366427   
     70. A(C   5,C   4,H  23)          118.9681         0.315611   
     71. A(C   3,C   4,C   5)          108.1026         0.359169   
     72. A(C   4,C   5,C   9)          103.6947         0.358111   
     73. A(C   6,C   5,C   9)          130.1411         0.363202   
     74. A(C   6,C   5,H  24)          113.5790         0.319793   
     75. A(C   4,C   5,H  24)          115.5610         0.315508   
     76. A(C   9,C   5,H  24)          115.7947         0.319456   
     77. A(C   4,C   5,C   6)           59.1113         0.358504   
     78. A(C   7,C   6,C   8)          117.0749         0.362035   
     79. A(C   5,C   6,C   8)          117.1044         0.362846   
     80. A(C   4,C   6,C   8)          116.0772         0.364982   
     81. A(C   5,C   6,C   7)          117.1875         0.362789   
     82. A(C   4,C   6,C   7)          116.3868         0.364925   
     83. A(C   4,C   6,C   5)           61.1834         0.365745   
     84. A(H  25,C   7,H  27)          108.8649         0.284379   
     85. A(C   6,C   7,H  27)          112.7831         0.320028   
     86. A(H  25,C   7,H  26)          108.6525         0.284222   
     87. A(C   6,C   7,H  26)          109.4569         0.319843   
     88. A(C   6,C   7,H  25)          109.4044         0.319856   
     89. A(H  26,C   7,H  27)          107.5868         0.284368   
     90. A(H  28,C   8,H  29)          108.3966         0.284419   
     91. A(C   6,C   8,H  29)          112.7039         0.320077   
     92. A(C   6,C   8,H  28)          109.5067         0.319951   
     93. A(C   6,C   8,H  30)          109.2786         0.319905   
     94. A(H  28,C   8,H  30)          108.5980         0.284274   
     95. A(H  29,C   8,H  30)          108.2691         0.284381   
     96. A(C  10,C   9,C  13)          102.1187         0.369983   
     97. A(C   5,C   9,C  13)          115.8528         0.372025   
     98. A(C   5,C   9,C  10)          107.8941         0.360827   
     99. A(C  13,C   9,H  31)          106.4074         0.327226   
    100. A(C  10,C   9,H  31)          110.4651         0.317801   
    101. A(C   5,C   9,H  31)          113.4988         0.319464   
    102. A(C   9,C  10,C  11)          103.0708         0.360135   
    103. A(C   1,C  10,C  11)          117.9711         0.354040   
    104. A(C   1,C  10,C   9)          113.5918         0.352799   
    105. A(C  11,C  10,H  32)          105.0758         0.318304   
    106. A(C   9,C  10,H  32)          109.3748         0.317230   
    107. A(C   1,C  10,H  32)          107.2672         0.312099   
    108. A(C  10,C  11,C  12)          104.5042         0.361805   
    109. A(H  33,C  11,H  34)          109.8056         0.283506   
    110. A(C  12,C  11,H  34)          109.5206         0.319413   
    111. A(C  10,C  11,H  34)          110.0967         0.319080   
    112. A(C  12,C  11,H  33)          111.0011         0.319625   
    113. A(C  10,C  11,H  33)          111.7916         0.319291   
    114. A(C  11,C  12,C  13)          103.9574         0.370816   
    115. A(H  35,C  12,H  36)          110.3087         0.283744   
    116. A(C  13,C  12,H  36)          109.7212         0.326925   
    117. A(C  11,C  12,H  36)          110.6222         0.319651   
    118. A(C  13,C  12,H  35)          111.1921         0.326944   
    119. A(C  11,C  12,H  35)          110.8819         0.319669   
    120. A(C  12,C  13,C  14)          123.5640         0.420372   
    121. A(C   9,C  13,C  14)          124.9889         0.421427   
    122. A(C   9,C  13,C  12)          111.2360         0.380630   
    123. A(H  37,C  14,H  38)          118.7439         0.292602   
    124. A(C  13,C  14,H  38)          120.8570         0.366467   
    125. A(C  13,C  14,H  37)          120.3991         0.366173   
    126. D(C   2,C   1,C   0,H  17)     66.3766         0.010452   
    127. D(C   2,C   1,C   0,H  16)   -172.4065         0.010452   
    128. D(C   2,C   1,C   0,H  15)    -54.0868         0.010452   
    129. D(C  10,C   1,C   0,H  15)   -177.2646         0.010452   
    130. D(C  10,C   1,C   0,H  17)    -56.8012         0.010452   
    131. D(C  10,C   1,C   0,H  16)     64.4158         0.010452   
    132. D(C   3,C   2,C   1,C   0)    170.3945         0.008294   
    133. D(H  19,C   2,C   1,C   0)    -65.6699         0.008294   
    134. D(H  19,C   2,C   1,C  10)     57.0873         0.008294   
    135. D(H  19,C   2,C   1,H  18)    178.8059         0.008294   
    136. D(C   3,C   2,C   1,C  10)    -66.8483         0.008294   
    137. D(C   3,C   2,C   1,H  18)     54.8703         0.008294   
    138. D(C   4,C   3,C   2,H  19)   -120.0474         0.008950   
    139. D(C   4,C   3,C   2,H  20)    126.9072         0.008950   
    140. D(C   4,C   3,C   2,C   1)      3.9980         0.008950   
    141. D(H  21,C   3,C   2,H  20)      7.9807         0.008950   
    142. D(H  21,C   3,C   2,H  19)    121.0260         0.008950   
    143. D(H  21,C   3,C   2,C   1)   -114.9285         0.008950   
    144. D(C   6,C   4,C   3,H  22)     13.6141         0.011419   
    145. D(C   6,C   4,C   3,H  21)   -102.4981         0.011419   
    146. D(C   6,C   4,C   3,C   2)    137.4814         0.011419   
    147. D(C   5,C   4,C   3,H  22)    -51.6583         0.011419   
    148. D(C   5,C   4,C   3,C   2)     72.2090         0.011419   
    149. D(C   5,C   4,C   3,H  21)   -167.7705         0.011419   
    150. D(H  24,C   5,C   4,C   3)     22.3637         0.009591   
    151. D(C   9,C   5,C   4,H  23)     28.4483         0.009591   
    152. D(C   9,C   5,C   4,C   6)    128.8608         0.009591   
    153. D(C   6,C   5,C   4,H  23)   -100.4125         0.009591   
    154. D(C   6,C   5,C   4,C   3)    125.6948         0.009591   
    155. D(C   9,C   5,C   4,C   3)   -105.4444         0.009591   
    156. D(C   5,C   6,C   4,C   3)    -89.1486         0.011939   
    157. D(C   8,C   6,C   5,C   4)    106.3817         0.011186   
    158. D(C   7,C   6,C   5,H  24)     -0.0106         0.011186   
    159. D(C   7,C   6,C   5,C   9)    171.5380         0.011186   
    160. D(C   4,C   6,C   5,H  24)    106.7078         0.011186   
    161. D(C   7,C   6,C   5,C   4)   -106.7184         0.011186   
    162. D(C   4,C   6,C   5,C   9)    -81.7436         0.011186   
    163. D(C   8,C   6,C   4,C   3)    162.8098         0.011939   
    164. D(C   7,C   6,C   4,H  23)   -140.5196         0.011939   
    165. D(C   7,C   6,C   4,C   5)    108.0111         0.011939   
    166. D(C   7,C   6,C   4,C   3)     18.8625         0.011939   
    167. D(C   5,C   6,C   4,H  23)    111.4693         0.011939   
    168. D(H  26,C   7,C   6,C   8)     46.2684         0.010914   
    169. D(H  25,C   7,C   6,C   8)    -72.6827         0.010914   
    170. D(H  25,C   7,C   6,C   5)    140.4076         0.010914   
    171. D(H  26,C   7,C   6,C   4)   -170.1500         0.010914   
    172. D(H  25,C   7,C   6,C   4)     70.8989         0.010914   
    173. D(H  26,C   7,C   6,C   5)   -100.6413         0.010914   
    174. D(H  29,C   8,C   6,C   7)   -179.6423         0.010932   
    175. D(H  29,C   8,C   6,C   5)    -32.7048         0.010932   
    176. D(H  29,C   8,C   6,C   4)     36.6638         0.010932   
    177. D(H  28,C   8,C   6,C   7)    -58.9020         0.010932   
    178. D(H  28,C   8,C   6,C   5)     88.0354         0.010932   
    179. D(H  28,C   8,C   6,C   4)    157.4041         0.010932   
    180. D(C  13,C   9,C   5,H  24)     67.1511         0.011051   
    181. D(C  13,C   9,C   5,C   6)   -104.2447         0.011051   
    182. D(C  13,C   9,C   5,C   4)   -165.1860         0.011051   
    183. D(C  10,C   9,C   5,H  24)    -46.5269         0.011051   
    184. D(C  10,C   9,C   5,C   6)    142.0773         0.011051   
    185. D(C  10,C   9,C   5,C   4)     81.1360         0.011051   
    186. D(C   9,C  10,C   1,H  18)    -39.8872         0.008666   
    187. D(C   9,C  10,C   1,C   2)     81.5685         0.008666   
    188. D(C   9,C  10,C   1,C   0)   -157.3020         0.008666   
    189. D(C  11,C  10,C   9,H  31)    -76.5057         0.010409   
    190. D(C  11,C  10,C   9,C   5)    158.9029         0.010409   
    191. D(C   1,C  10,C   9,H  31)     52.3092         0.010409   
    192. D(C   1,C  10,C   9,C  13)    165.1703         0.010409   
    193. D(C   1,C  10,C   9,C   5)    -72.2821         0.010409   
    194. D(C  11,C  10,C   1,H  18)     80.8663         0.008666   
    195. D(C  11,C  10,C   9,C  13)     36.3553         0.010409   
    196. D(C  11,C  10,C   1,C   2)   -157.6780         0.008666   
    197. D(C  11,C  10,C   1,C   0)    -36.5484         0.008666   
    198. D(H  33,C  11,C  10,H  32)    -43.4971         0.010820   
    199. D(H  33,C  11,C  10,C   9)   -158.0321         0.010820   
    200. D(H  33,C  11,C  10,C   1)     75.9171         0.010820   
    201. D(C  12,C  11,C  10,H  32)     76.6420         0.010820   
    202. D(C  12,C  11,C  10,C   9)    -37.8930         0.010820   
    203. D(C  12,C  11,C  10,C   1)   -163.9438         0.010820   
    204. D(H  35,C  12,C  11,H  34)     25.6229         0.010950   
    205. D(H  35,C  12,C  11,H  33)    -95.7877         0.010950   
    206. D(H  35,C  12,C  11,C  10)    143.5453         0.010950   
    207. D(C  13,C  12,C  11,H  34)    -93.9478         0.010950   
    208. D(C  13,C  12,C  11,H  33)    144.6415         0.010950   
    209. D(C  13,C  12,C  11,C  10)     23.9745         0.010950   
    210. D(C  14,C  13,C  12,H  35)     54.7989         0.013320   
    211. D(C  14,C  13,C  12,C  11)    174.1586         0.013320   
    212. D(C   9,C  13,C  12,H  36)    117.5434         0.013320   
    213. D(C   9,C  13,C  12,H  35)   -120.1513         0.013320   
    214. D(C   9,C  13,C  12,C  11)     -0.7916         0.013320   
    215. D(C  14,C  13,C   9,C  10)    162.7556         0.013690   
    216. D(C  14,C  13,C   9,C   5)     45.8028         0.013690   
    217. D(C  12,C  13,C   9,H  31)     93.4690         0.013690   
    218. D(C  12,C  13,C   9,C  10)    -22.3808         0.013690   
    219. D(C  12,C  13,C   9,C   5)   -139.3336         0.013690   
    220. D(H  38,C  14,C  13,C  12)   -177.1344         0.040955   
    221. D(H  38,C  14,C  13,C   9)     -2.8818         0.040955   
    222. D(H  37,C  14,C  13,C  12)      2.9689         0.040955   
    223. D(H  37,C  14,C  13,C   9)    177.2214         0.040955   
    -----------------------------------------------------------------

Number of atoms                         .... 39
Number of degrees of freedom            .... 223


         *************************************************************
         *                GEOMETRY OPTIMIZATION CYCLE   1            *
         *************************************************************
---------------------------------
CARTESIAN COORDINATES (ANGSTROEM)
---------------------------------
  C     -3.110948   -1.696215    0.507592
  C     -1.660423   -1.305826    0.171326
  C     -0.696118   -2.172956    1.063296
  C      0.837699   -2.144679    0.767345
  C      1.204381   -1.159557   -0.339562
  C      1.052010    0.278236    0.224537
  C      2.363638   -0.179209   -0.415458
  C      3.545211   -0.447263    0.523786
  C      2.690420    0.371298   -1.808129
  C     -0.238078    0.787393   -0.424324
  C     -1.425434    0.229333    0.381955
  C     -2.568734    1.188035    0.024550
  C     -1.903415    2.566367   -0.054185
  C     -0.469385    2.258554   -0.344678
  C      0.449999    3.194789   -0.604809
  H     -3.253518   -2.792907    0.402365
  H     -3.822752   -1.210027   -0.191389
  H     -3.363026   -1.401572    1.548977
  H     -1.505016   -1.566334   -0.897974
  H     -0.848830   -1.884630    2.126856
  H     -1.016411   -3.236179    0.995447
  H      1.161686   -3.152859    0.430875
  H      1.391079   -1.939988    1.708003
  H      0.780327   -1.393203   -1.342137
  H      1.104722    0.367485    1.333610
  H      4.095522   -1.346619    0.176744
  H      4.236559    0.421054    0.505403
  H      3.230763   -0.603051    1.575920
  H      3.234452    1.333375   -1.708025
  H      1.784097    0.544086   -2.423637
  H      3.342391   -0.350013   -2.343620
  H     -0.333369    0.511659   -1.499309
  H     -1.241479    0.390099    1.471781
  H     -3.372187    1.176755    0.792809
  H     -2.993538    0.922882   -0.969219
  H     -2.355069    3.178592   -0.864469
  H     -1.983518    3.095969    0.919822
  H      0.187943    4.247409   -0.566957
  H      1.468345    2.919718   -0.855118

----------------------------
CARTESIAN COORDINATES (A.U.)
----------------------------
  NO LB      ZA    FRAG     MASS         X           Y           Z
   0 C     4.0000*   0    12.011   -5.878840   -3.205382    0.959210
   1 C     4.0000*   0    12.011   -3.137745   -2.467654    0.323759
   2 C     4.0000*   0    12.011   -1.315472   -4.106292    2.009338
   3 C     4.0000*   0    12.011    1.583022   -4.052856    1.450072
   4 C     4.0000*   0    12.011    2.275950   -2.191245   -0.641679
   5 C     4.0000*   0    12.011    1.988011    0.525790    0.424313
   6 C     4.0000*   0    12.011    4.466628   -0.338656   -0.785102
   7 C     4.0000*   0    12.011    6.699478   -0.845205    0.989812
   8 C     4.0000*   0    12.011    5.084157    0.701652   -3.416869
   9 C     4.0000*   0    12.011   -0.449902    1.487957   -0.801856
  10 C     4.0000*   0    12.011   -2.693680    0.433377    0.721790
  11 C     4.0000*   0    12.011   -4.854204    2.245061    0.046393
  12 C     4.0000*   0    12.011   -3.596933    4.849731   -0.102395
  13 C     4.0000*   0    12.011   -0.887009    4.268049   -0.651347
  14 C     4.0000*   0    12.011    0.850375    6.037276   -1.142923
  15 H     1.0000    0     1.008   -6.148258   -5.277829    0.760360
  16 H     1.0000    0     1.008   -7.223954   -2.286620   -0.361673
  17 H     1.0000    0     1.008   -6.355198   -2.648587    2.927142
  18 H     1.0000    0     1.008   -2.844068   -2.959942   -1.696925
  19 H     1.0000    0     1.008   -1.604056   -3.561435    4.019175
  20 H     1.0000    0     1.008   -1.920738   -6.115492    1.881122
  21 H     1.0000    0     1.008    2.195268   -5.958040    0.814236
  22 H     1.0000    0     1.008    2.628758   -3.666046    3.227658
  23 H     1.0000    0     1.008    1.474604   -2.632772   -2.536271
  24 H     1.0000    0     1.008    2.087622    0.694446    2.520158
  25 H     1.0000    0     1.008    7.739415   -2.544741    0.333998
  26 H     1.0000    0     1.008    8.005936    0.795677    0.955073
  27 H     1.0000    0     1.008    6.105257   -1.139601    2.978057
  28 H     1.0000    0     1.008    6.112228    2.519714   -3.227699
  29 H     1.0000    0     1.008    3.371455    1.028174   -4.580010
  30 H     1.0000    0     1.008    6.316204   -0.661429   -4.428800
  31 H     1.0000    0     1.008   -0.629976    0.966895   -2.833283
  32 H     1.0000    0     1.008   -2.346055    0.737180    2.781263
  33 H     1.0000    0     1.008   -6.372510    2.223745    1.498192
  34 H     1.0000    0     1.008   -5.656967    1.743994   -1.831558
  35 H     1.0000    0     1.008   -4.450435    6.006668   -1.633610
  36 H     1.0000    0     1.008   -3.748306    5.850534    1.738212
  37 H     1.0000    0     1.008    0.355161    8.026440   -1.071393
  38 H     1.0000    0     1.008    2.774770    5.517467   -1.615939
* core charge reduced due to ECP

--------------------------------
INTERNAL COORDINATES (ANGSTROEM)
--------------------------------
 C      0   0   0     0.000000000000     0.00000000     0.00000000
 C      1   0   0     1.539318410759     0.00000000     0.00000000
 C      2   1   0     1.573978732647   108.28837585     0.00000000
 C      3   2   1     1.562363969317   118.95630502   170.39453854
 C      4   3   2     1.526487520636   112.63520012     3.99803653
 C      5   4   3     1.551990114109   108.10262475    72.20902583
 C      5   4   3     1.520104995048   129.46421459   137.48140043
 C      7   5   4     1.533018914685   116.38683175    18.86246244
 C      7   5   4     1.532767740662   116.07718585   162.80979870
 C      6   5   4     1.531204916304   103.69471000   254.55564551
 C     10   6   5     1.539912679400   107.89406784    81.13601983
 C     11  10   6     1.534269451182   103.07079713   158.90292879
 C     12  11  10     1.532529828163   104.50424815   322.10698089
 C     10   6   5     1.491362163086   115.85278368   194.81398690
 C     14  10   6     1.337711124213   124.98886347    45.80280186
 H      1   2   3     1.110915059441   110.52435260   305.91318042
 H      1   2   3     1.109782926577   110.83627615   187.59352826
 H      1   2   3     1.111233788974   110.56287122    66.37655522
 H      2   1   3     1.111493699358   106.40773077   117.39166172
 H      3   2   1     1.112480431657   108.35443830   294.33012607
 H      3   2   1     1.112490107992   108.39518580    48.29766286
 H      4   3   2     1.111128502680   109.09863894   245.07149187
 H      4   3   2     1.110389707645   109.39786317   129.32729055
 H      5   4   3     1.113359276630   115.21752147   296.38757436
 H      6   5   4     1.113906126329   115.56102684    22.36369324
 H      8   7   5     1.110009712219   109.40443401    70.89886583
 H      8   7   5     1.110078557708   109.45690205   189.84996821
 H      8   7   5     1.109113790196   112.78307893   309.58219623
 H      9   7   5     1.109767444904   109.50669393   157.40406984
 H      9   7   5     1.109110982426   112.70391463    36.66382573
 H      9   7   5     1.110002862448   109.27855589   276.24339142
 H     10   6   5     1.113868198515   113.49879392   318.38308962
 H     11  10   6     1.116873251115   109.37481825    47.51444771
 H     12  11  10     1.111704031067   111.79164968   201.96789992
 H     12  11  10     1.112807879729   110.09668800    79.63449902
 H     13  12  11     1.111472422958   110.88193110   143.54529739
 H     13  12  11     1.111568443715   110.62222506   266.26143186
 H     15  14  10     1.085410054053   120.39907340   177.22141687
 H     15  14  10     1.084134321124   120.85698149   357.11815551

---------------------------
INTERNAL COORDINATES (A.U.)
---------------------------
 C      0   0   0     0.000000000000     0.00000000     0.00000000
 C      1   0   0     2.908890229238     0.00000000     0.00000000
 C      2   1   0     2.974388745319   108.28837585     0.00000000
 C      3   2   1     2.952440023515   118.95630502   170.39453854
 C      4   3   2     2.884643360850   112.63520012     3.99803653
 C      5   4   3     2.932836278219   108.10262475    72.20902583
 C      5   4   3     2.872582135446   129.46421459   137.48140043
 C      7   5   4     2.896985906875   116.38683175    18.86246244
 C      7   5   4     2.896511256760   116.07718585   162.80979870
 C      6   5   4     2.893557946729   103.69471000   254.55564551
 C     10   6   5     2.910013234219   107.89406784    81.13601983
 C     11  10   6     2.899349078375   103.07079713   158.90292879
 C     12  11  10     2.896061667294   104.50424815   322.10698089
 C     10   6   5     2.818266054726   115.85278368   194.81398690
 C     14  10   6     2.527907671062   124.98886347    45.80280186
 H      1   2   3     2.099325220393   110.52435260   305.91318042
 H      1   2   3     2.097185799331   110.83627615   187.59352826
 H      1   2   3     2.099927531921   110.56287122    66.37655522
 H      2   1   3     2.100418691366   106.40773077   117.39166172
 H      3   2   1     2.102283345178   108.35443830   294.33012607
 H      3   2   1     2.102301630800   108.39518580    48.29766286
 H      4   3   2     2.099728569660   109.09863894   245.07149187
 H      4   3   2     2.098332449375   109.39786317   129.32729055
 H      5   4   3     2.103944121490   115.21752147   296.38757436
 H      6   5   4     2.104977517660   115.56102684    22.36369324
 H      8   7   5     2.097614362087   109.40443401    70.89886583
 H      8   7   5     2.097744461206   109.45690205   189.84996821
 H      8   7   5     2.095921314827   112.78307893   309.58219623
 H      9   7   5     2.097156543210   109.50669393   157.40406984
 H      9   7   5     2.095916008909   112.70391463    36.66382573
 H      9   7   5     2.097601417896   109.27855589   276.24339142
 H     10   6   5     2.104905844477   113.49879392   318.38308962
 H     11  10   6     2.110584570910   109.37481825    47.51444771
 H     12  11  10     2.100816160692   111.79164968   201.96789992
 H     12  11  10     2.102902132357   110.09668800    79.63449902
 H     13  12  11     2.100378484797   110.88193110   143.54529739
 H     13  12  11     2.100559937730   110.62222506   266.26143186
 H     15  14  10     2.051127745165   120.39907340   177.22141687
 H     15  14  10     2.048716959308   120.85698149   357.11815551

---------------------
BASIS SET INFORMATION
---------------------
There are 2 groups of distinct atoms

 Group   1 Type C   : 6s6p2d contracted to 2s2p1d pattern {42/42/2}
 Group   2 Type H   : 8s2p contracted to 2s1p pattern {53/2}

Atom   0C    basis set group =>   1
Atom   1C    basis set group =>   1
Atom   2C    basis set group =>   1
Atom   3C    basis set group =>   1
Atom   4C    basis set group =>   1
Atom   5C    basis set group =>   1
Atom   6C    basis set group =>   1
Atom   7C    basis set group =>   1
Atom   8C    basis set group =>   1
Atom   9C    basis set group =>   1
Atom  10C    basis set group =>   1
Atom  11C    basis set group =>   1
Atom  12C    basis set group =>   1
Atom  13C    basis set group =>   1
Atom  14C    basis set group =>   1
Atom  15H    basis set group =>   2
Atom  16H    basis set group =>   2
Atom  17H    basis set group =>   2
Atom  18H    basis set group =>   2
Atom  19H    basis set group =>   2
Atom  20H    basis set group =>   2
Atom  21H    basis set group =>   2
Atom  22H    basis set group =>   2
Atom  23H    basis set group =>   2
Atom  24H    basis set group =>   2
Atom  25H    basis set group =>   2
Atom  26H    basis set group =>   2
Atom  27H    basis set group =>   2
Atom  28H    basis set group =>   2
Atom  29H    basis set group =>   2
Atom  30H    basis set group =>   2
Atom  31H    basis set group =>   2
Atom  32H    basis set group =>   2
Atom  33H    basis set group =>   2
Atom  34H    basis set group =>   2
Atom  35H    basis set group =>   2
Atom  36H    basis set group =>   2
Atom  37H    basis set group =>   2
Atom  38H    basis set group =>   2
---------------------------------
AUXILIARY/J BASIS SET INFORMATION
---------------------------------
There are 2 groups of distinct atoms

 Group   1 Type C   : 12s5p4d2f1g contracted to 6s4p3d1f1g pattern {711111/2111/211/2/1}
 Group   2 Type H   : 5s2p1d contracted to 3s1p1d pattern {311/2/1}

Atom   0C    basis set group =>   1
Atom   1C    basis set group =>   1
Atom   2C    basis set group =>   1
Atom   3C    basis set group =>   1
Atom   4C    basis set group =>   1
Atom   5C    basis set group =>   1
Atom   6C    basis set group =>   1
Atom   7C    basis set group =>   1
Atom   8C    basis set group =>   1
Atom   9C    basis set group =>   1
Atom  10C    basis set group =>   1
Atom  11C    basis set group =>   1
Atom  12C    basis set group =>   1
Atom  13C    basis set group =>   1
Atom  14C    basis set group =>   1
Atom  15H    basis set group =>   2
Atom  16H    basis set group =>   2
Atom  17H    basis set group =>   2
Atom  18H    basis set group =>   2
Atom  19H    basis set group =>   2
Atom  20H    basis set group =>   2
Atom  21H    basis set group =>   2
Atom  22H    basis set group =>   2
Atom  23H    basis set group =>   2
Atom  24H    basis set group =>   2
Atom  25H    basis set group =>   2
Atom  26H    basis set group =>   2
Atom  27H    basis set group =>   2
Atom  28H    basis set group =>   2
Atom  29H    basis set group =>   2
Atom  30H    basis set group =>   2
Atom  31H    basis set group =>   2
Atom  32H    basis set group =>   2
Atom  33H    basis set group =>   2
Atom  34H    basis set group =>   2
Atom  35H    basis set group =>   2
Atom  36H    basis set group =>   2
Atom  37H    basis set group =>   2
Atom  38H    basis set group =>   2
-------------------------
ECP PARAMETER INFORMATION
-------------------------

 Group 1, Type C  ECP vDZP-ECP (replacing 2 core electrons, lmax=3)

Atom   0C    ECP group =>   1
Atom   1C    ECP group =>   1
Atom   2C    ECP group =>   1
Atom   3C    ECP group =>   1
Atom   4C    ECP group =>   1
Atom   5C    ECP group =>   1
Atom   6C    ECP group =>   1
Atom   7C    ECP group =>   1
Atom   8C    ECP group =>   1
Atom   9C    ECP group =>   1
Atom  10C    ECP group =>   1
Atom  11C    ECP group =>   1
Atom  12C    ECP group =>   1
Atom  13C    ECP group =>   1
Atom  14C    ECP group =>   1



           ************************************************************
           *        Program running with 40 parallel MPI-processes    *
           *              working on a common directory               *
           ************************************************************
------------------------------------------------------------------------------
                             ORCA STARTUP CALCULATIONS
                           -- RI-GTO INTEGRALS CHOSEN --
------------------------------------------------------------------------------
------------------------------------------------------------------------------
                   ___                                                        
                  /   \      - P O W E R E D   B Y -                         
                 /     \                                                     
                 |  |  |   _    _      __       _____    __    __             
                 |  |  |  | |  | |    /  \     |  _  \  |  |  /  |          
                  \  \/   | |  | |   /    \    | | | |  |  | /  /          
                 / \  \   | |__| |  /  /\  \   | |_| |  |  |/  /          
                |  |  |   |  __  | /  /__\  \  |    /   |      \           
                |  |  |   | |  | | |   __   |  |    \   |  |\   \          
                \     /   | |  | | |  |  |  |  | |\  \  |  | \   \       
                 \___/    |_|  |_| |__|  |__|  |_| \__\ |__|  \__/        
                                                                              
                      - O R C A' S   B I G   F R I E N D -                    
                                      &                                       
                       - I N T E G R A L  F E E D E R -                       
                                                                              
 v1 FN, 2020, v2 2021, v3 2022-2024                                           
------------------------------------------------------------------------------


----------------------
SHARK INTEGRAL PACKAGE
----------------------

Number of atoms                             ...     39
Number of basis functions                   ...    315
Number of shells                            ...    147
Maximum angular momentum                    ...      2
Integral batch strategy                     ... SHARK/LIBINT Hybrid
RI-J (if used) integral strategy            ... SPLIT-RIJ (Revised 2003 algorithm where possible)
Printlevel                                  ...      1
Contraction scheme used                     ... SEGMENTED contraction
Prescreening option                         ... SCHWARTZ
   Thresh                                   ... 2.500e-11
   Tcut                                     ... 2.500e-12
   Tpresel                                  ... 2.500e-12 
Coulomb Range Separation                    ... NOT USED
Exchange Range Separation                   ... Long Range
   Mu parameter                             ... 3.000e-01
   Scaling (regular/separated)              ... 1.670e-01 8.330e-01
Multipole approximations                    ... NOT USED
Finite Nucleus Model                        ... NOT USED
CABS basis                                  ... NOT available
Auxiliary Coulomb fitting basis             ... AVAILABLE
   # of basis functions in Aux-J            ...    999
   # of shells in Aux-J                     ...    345
   Maximum angular momentum in Aux-J        ...      4
Auxiliary J/K fitting basis                 ... NOT available
Auxiliary Correlation fitting basis         ... NOT available
Auxiliary 'external' fitting basis          ... NOT available

Checking pre-screening integrals            ... done (  0.0 sec) Dimension = 147
Check shell pair data                       ... done (  0.0 sec)
Shell pair information
Shell pair cut-off parameter TPreSel        ...   2.5e-12
Total number of shell pairs                 ...     10878
Shell pairs after pre-screening             ...     10836
Total number of primitive shell pairs       ...    102036
Primitive shell pairs kept                  ...     78506
          la=0 lb=0:   3077 shell pairs
          la=1 lb=0:   4191 shell pairs
          la=1 lb=1:   1468 shell pairs
          la=2 lb=0:   1170 shell pairs
          la=2 lb=1:    810 shell pairs
          la=2 lb=2:    120 shell pairs

Calculating one electron integrals          ... done (  0.0 sec)
Calculating ECP integrals                   ... done (  0.2 sec)
Calculating RI/J V-Matrix + Cholesky decomp.... done (  0.1 sec)
Calculating Nuclear repulsion               ... done (  0.0 sec) ENN=    576.508450500908 Eh

Diagonalization of the overlap matrix:
Smallest eigenvalue                        ... 8.630e-04
Time for diagonalization                   ...    0.017 sec
Threshold for overlap eigenvalues          ... 1.000e-07
Number of eigenvalues below threshold      ... 0
Time for construction of square roots      ...    0.010 sec
Total time needed                          ...    0.031 sec

-------------------
DFT GRID GENERATION
-------------------

General Integration Accuracy     IntAcc      ... 4.388
Radial Grid Type                 RadialGrid  ... OptM3 with GC (2021)
Angular Grid (max. ang.)         AngularGrid ... 4 (Lebedev-302)
Angular grid pruning method      GridPruning ... 4 (adaptive)
Weight generation scheme         WeightScheme... mBecke (2022)
Basis function cutoff            BFCut       ... 1.0000e-11
Integration weight cutoff        WCut        ... 1.0000e-14
Partially contracted basis set               ... off
Rotationally invariant grid construction     ... off
Angular grids for H and He will be reduced by one unit

Total number of grid points                  ...   164522
Total number of batches                      ...     2591
Average number of points per batch           ...       63
Average number of grid points per atom       ...     4219

--------------------
COSX GRID GENERATION
--------------------

GRIDX 1
-------
General Integration Accuracy     IntAcc      ... 3.816
Radial Grid Type                 RadialGrid  ... OptM3 with GC (2021)
Angular Grid (max. ang.)         AngularGrid ... 1 (Lebedev-50)
Angular grid pruning method      GridPruning ... 4 (adaptive)
Weight generation scheme         WeightScheme... mBecke (2022)
Basis function cutoff            BFCut       ... 1.0000e-11
Integration weight cutoff        WCut        ... 1.0000e-14
Partially contracted basis set               ... on
Rotationally invariant grid construction     ... off
Angular grids for H and He will be reduced by one unit

Total number of grid points                  ...    20971
Total number of batches                      ...      189
Average number of points per batch           ...      110
Average number of grid points per atom       ...      538
UseSFitting                                  ... on

GRIDX 2
-------
General Integration Accuracy     IntAcc      ... 4.020
Radial Grid Type                 RadialGrid  ... OptM3 with GC (2021)
Angular Grid (max. ang.)         AngularGrid ... 2 (Lebedev-110)
Angular grid pruning method      GridPruning ... 4 (adaptive)
Weight generation scheme         WeightScheme... mBecke (2022)
Basis function cutoff            BFCut       ... 1.0000e-11
Integration weight cutoff        WCut        ... 1.0000e-14
Partially contracted basis set               ... on
Rotationally invariant grid construction     ... off
Angular grids for H and He will be reduced by one unit

Total number of grid points                  ...    43355
Total number of batches                      ...      359
Average number of points per batch           ...      120
Average number of grid points per atom       ...     1112
UseSFitting                                  ... on

GRIDX 3
-------
General Integration Accuracy     IntAcc      ... 4.338
Radial Grid Type                 RadialGrid  ... OptM3 with GC (2021)
Angular Grid (max. ang.)         AngularGrid ... 3 (Lebedev-194)
Angular grid pruning method      GridPruning ... 4 (adaptive)
Weight generation scheme         WeightScheme... mBecke (2022)
Basis function cutoff            BFCut       ... 1.0000e-11
Integration weight cutoff        WCut        ... 1.0000e-14
Partially contracted basis set               ... on
Rotationally invariant grid construction     ... off
Angular grids for H and He will be reduced by one unit

Total number of grid points                  ...    94127
Total number of batches                      ...      753
Average number of points per batch           ...      125
Average number of grid points per atom       ...     2414
UseSFitting                                  ... on
Initializing property integral containers    ... done (  0.0 sec)

SHARK setup successfully completed in   5.3 seconds

Maximum memory used throughout the entire STARTUP-calculation: 51.9 MB


           ************************************************************
           *        Program running with 40 parallel MPI-processes    *
           *              working on a common directory               *
           ************************************************************
-------------------------------------------------------------------------------
                                 ORCA GUESS
                   Start orbitals & Density for SCF / CASSCF
-------------------------------------------------------------------------------

------------
SCF SETTINGS
------------
Hamiltonian:
 Density Functional     Method          .... DFT(GTOs)
 Exchange Functional    Exchange        .... WB97X-V
 Correlation Functional Correlation     .... WB97X-V
 Gradients option       PostSCFGGA      .... off
 Hybrid DFT is turned on
   Fraction HF Exchange ScalHFX         ....  0.167000
   Scaling of DF-GGA-X  ScalDFX         ....  0.000000
   Scaling of DF-GGA-C  ScalDFC         ....  1.000000
   Scaling of DF-LDA-C  ScalLDAC        ....  1.000000
   Perturbative correction              ....  0.000000
 Long-range corrected/Screened/Range-Separated Hybrid DFT is turned on
   Amount of maximum screened exact exchange              ....  0.833000
   Range separation parameter mu (erf(mu*r12)/r12)        ....  0.300000
   NL short-range parameter             ....  6.000000
   NL long-range parameter              ....  0.010000
 RI-approximation to the Coulomb term is turned on
   Number of AuxJ basis functions       .... 999
   RIJ-COSX (HFX calculated with COS-X)).... on


General Settings:
 Integral files         IntName         .... ./output/beta_gurjunene/beta_gurjunene
 Hartree-Fock type      HFTyp           .... RHF
 Total Charge           Charge          ....    0
 Multiplicity           Mult            ....    1
 Number of Electrons    NEL             ....   84
 Basis Dimension        Dim             ....  315
 Nuclear Repulsion      ENuc            ....    576.5084505009 Eh

Convergence Acceleration:
 AO-DIIS                CNVDIIS         .... on
   Start iteration      DIISMaxIt       ....    12
   Startup error        DIISStart       ....  0.200000
   # of expansion vecs  DIISMaxEq       ....     5
   Bias factor          DIISBfac        ....   1.050
   Max. coefficient     DIISMaxC        ....  10.000
 MO-DIIS                CNVKDIIS        .... off
 Trust-Rad. Augm. Hess. CNVTRAH         .... auto
   Auto Start mean grad. ratio tolernc. ....  1.125000
   Auto Start start iteration           ....    50
   Auto Start num. interpolation iter.  ....    10
   Max. Number of Micro iterations      ....    24
   Max. Number of Macro iterations      .... Maxiter - #DIIS iter
   Number of Davidson start vectors     ....     2
   Converg. threshold    (grad. norm)   ....   1.000e-05
   Grad. Scal. Fac. for Micro threshold ....   0.100
   Minimum threshold for Micro iter.    ....   1.000e-02
   NR start threshold (gradient norm)   ....   1.000e-04
   Initial trust radius                 ....   0.400
   Minimum AH scaling param. (alpha)    ....   1.000
   Maximum AH scaling param. (alpha)    .... 1000.000
   Quad. conv. algorithm                .... NR
   White noise on init. David. guess    .... on
   Maximum white noise                  ....   0.010
   Pseudo random numbers                .... off
   Inactive MOs                         .... canonical
   Orbital update algorithm             .... Taylor
   Preconditioner                       .... Diag
   Full preconditioner red. dimension   ....   250
 SOSCF                  CNVSOSCF        .... on
   Start iteration      SOSCFMaxIt      ....   150
   Startup grad/error   SOSCFStart      ....  0.003300
   Hessian update       SOSCFHessUp     .... L-BFGS
 Level Shifting         CNVShift        .... on
   Level shift para.    LevelShift      ....    0.2500
   Turn off err/grad.   ShiftErr        ....    0.0010
 Zerner damping         CNVZerner       .... off
 Static damping         CNVDamp         .... on
   Fraction old density DampFac         ....    0.7000
   Max. Damping (<1)    DampMax         ....    0.9800
   Min. Damping (>=0)   DampMin         ....    0.0000
   Turn off err/grad.   DampErr         ....    0.1000

SCF Procedure:
 Maximum # iterations   MaxIter         ....   125
 SCF integral mode      SCFMode         .... Direct
   Integral package                     .... SHARK and LIBINT hybrid scheme
 Reset frequency        DirectResetFreq ....    20
 Integral Threshold     Thresh          ....  2.500e-11 Eh
 Primitive CutOff       TCut            ....  2.500e-12 Eh

Convergence Tolerance:
 Convergence Check Mode ConvCheckMode   .... Total+1el-Energy
 Convergence forced     ConvForced      .... 0
 Energy Change          TolE            ....  1.000e-08 Eh
 1-El. energy change                    ....  1.000e-05 Eh
 Orbital Gradient       TolG            ....  1.000e-05
 Orbital Rotation angle TolX            ....  1.000e-05
 DIIS Error             TolErr          ....  5.000e-07

------------------------------
INITIAL GUESS: MODEL POTENTIAL
------------------------------
Loading Hartree-Fock densities                     ... done
Atomic calculation to generate a density for atom 0 (C  with ECP)
  Multiplicity assumed   :    1
  Atomic configuration   : 1s2 2s2 2p2 
  Number of open shells  : 1
  Command: /home/aspe232/Project/Software/ORCA/6_0_1/build/orca ./output/beta_gurjunene/beta_gurjunene_atom6.inp "" > ./output/beta_gurjunene/beta_gurjunene_atom6.out
Returned from the atomic calculation with res=0
Calculating cut-offs                               ... done
Initializing the effective Hamiltonian             ... done
Setting up the integral package (SHARK)            ... done
Starting the Coulomb interaction                   ... done (   0.1 sec)
Making the grid                                    ... done (   1.0 sec)
Mapping shells                                     ... done
Starting the XC term evaluation                    ... done (   0.1 sec)
  promolecular density results
     # of electrons  =    113.992779522
     EX              =    -55.406411218
     EC              =     -4.571199722
     EX+EC           =    -59.977610940
Transforming the Hamiltonian                       ... done (   0.0 sec)
Diagonalizing the Hamiltonian                      ... done (   0.0 sec)
Back transforming the eigenvectors                 ... done (   0.0 sec)
Now organizing SCF variables                       ... done
                      ------------------
                      INITIAL GUESS DONE (   1.8 sec)
                      ------------------
             **** ENERGY FILE WAS UPDATED (./output/beta_gurjunene/beta_gurjunene.en.tmp) ****
Finished Guess after   2.8 sec
Maximum memory used throughout the entire GUESS-calculation: 34.7 MB


           ************************************************************
           *        Program running with 40 parallel MPI-processes    *
           *              working on a common directory               *
           ************************************************************

-------------------------------------------------------------------------------------------
                                      ORCA LEAN-SCF
                              memory conserving SCF solver
-------------------------------------------------------------------------------------------

----------------------------------------D-I-I-S--------------------------------------------
Iteration    Energy (Eh)           Delta-E    RMSDP     MaxDP     DIISErr   Damp  Time(sec)
-------------------------------------------------------------------------------------------
               ***  Starting incremental Fock matrix formation  ***
    1    -99.1604246807950176     0.00e+00  3.54e-03  8.27e-02  1.86e-01  0.700   8.4
    2    -99.4284014186129070    -2.68e-01  2.58e-03  5.94e-02  1.13e-01  0.700   6.1
                               ***Turning on AO-DIIS***
    3    -99.5681441740952096    -1.40e-01  1.34e-03  3.19e-02  5.95e-02  0.700   5.9
    4    -99.6503892812933145    -8.22e-02  2.91e-03  6.60e-02  3.81e-02  0.000   5.8
    5    -99.8228083521904637    -1.72e-01  2.24e-04  7.25e-03  6.60e-03  0.000   6.2
                              *** Initializing SOSCF ***
---------------------------------------S-O-S-C-F--------------------------------------
Iteration    Energy (Eh)           Delta-E    RMSDP     MaxDP     MaxGrad    Time(sec)
--------------------------------------------------------------------------------------
    6    -99.8232855340825154    -4.77e-04  1.02e-04  2.06e-03  2.35e-03     5.8
               *** Restarting incremental Fock matrix formation ***
    7    -99.8234592748337946    -1.74e-04  5.80e-05  1.19e-03  2.09e-04     8.9
    8    -99.8234714483515972    -1.22e-05  3.36e-05  9.94e-04  2.13e-04     7.6
    9    -99.8234746938165927    -3.25e-06  1.12e-05  1.95e-04  5.25e-05     7.2
   10    -99.8234750297276605    -3.36e-07  2.27e-06  6.30e-05  1.11e-05     6.9
   11    -99.8234750372763529    -7.55e-09  7.89e-07  2.18e-05  5.04e-06     6.7
                 **** Energy Check signals convergence ****

               *****************************************************
               *                     SUCCESS                       *
               *           SCF CONVERGED AFTER  11 CYCLES          *
               *****************************************************

Recomputing exchange energy using gridx3       ... done (    9.647 sec)
Old exchange energy                            :    -15.890070605 Eh
New exchange energy                            :    -15.890087972 Eh
Exchange energy change after final integration :     -0.000017367 Eh
Total energy after final integration           :    -99.823492404 Eh
             **** ENERGY FILE WAS UPDATED (./output/beta_gurjunene/beta_gurjunene.en.tmp) ****

----------------
TOTAL SCF ENERGY
----------------

Total Energy       :        -99.82349240409354 Eh           -2716.33532 eV

Components:
Nuclear Repulsion  :        576.50845050090822 Eh           15687.59248 eV
Electronic Energy  :       -676.33192553818458 Eh          -18403.92733 eV
One Electron Energy:      -1291.84336075118563 Eh          -35152.84498 eV
Two Electron Energy:        615.51143521300105 Eh           16748.91765 eV

Virial components:
Potential Energy   :       -177.80128130076093 Eh           -4838.21883 eV
Kinetic Energy     :         77.97778889666741 Eh            2121.88351 eV
Virial Ratio       :          2.28015289759466

DFT components:
N(Alpha)           :       41.999986400437 electrons
N(Beta)            :       41.999986400437 electrons
N(Total)           :       83.999972800874 electrons
E(X)               :      -16.089355799951 Eh       
E(C)               :       -3.146249596096 Eh       
E(XC)              :      -19.235605396046 Eh       

---------------
SCF CONVERGENCE
---------------

  Last Energy change         ...    7.5487e-09  Tolerance :   1.0000e-08
  Last MAX-Density change    ...    2.1770e-05  Tolerance :   1.0000e-07
  Last RMS-Density change    ...    7.8923e-07  Tolerance :   5.0000e-09
  Last DIIS Error            ...    2.3549e-03  Tolerance :   5.0000e-07
  Last Orbital Gradient      ...    5.0381e-06  Tolerance :   1.0000e-05
  Last Orbital Rotation      ...    1.3881e-05  Tolerance :   1.0000e-05


----------------
ORBITAL ENERGIES
----------------

  NO   OCC          E(Eh)            E(eV) 
   0   2.0000      -1.019210       -27.7341 
   1   2.0000      -0.984512       -26.7899 
   2   2.0000      -0.934998       -25.4426 
   3   2.0000      -0.883069       -24.0295 
   4   2.0000      -0.868121       -23.6228 
   5   2.0000      -0.862913       -23.4811 
   6   2.0000      -0.822404       -22.3788 
   7   2.0000      -0.820579       -22.3291 
   8   2.0000      -0.766888       -20.8681 
   9   2.0000      -0.757681       -20.6175 
  10   2.0000      -0.724285       -19.7088 
  11   2.0000      -0.693547       -18.8724 
  12   2.0000      -0.676877       -18.4188 
  13   2.0000      -0.649138       -17.6639 
  14   2.0000      -0.617819       -16.8117 
  15   2.0000      -0.591393       -16.0926 
  16   2.0000      -0.587774       -15.9942 
  17   2.0000      -0.568566       -15.4715 
  18   2.0000      -0.565699       -15.3935 
  19   2.0000      -0.548210       -14.9176 
  20   2.0000      -0.541333       -14.7304 
  21   2.0000      -0.529286       -14.4026 
  22   2.0000      -0.525004       -14.2861 
  23   2.0000      -0.515743       -14.0341 
  24   2.0000      -0.506290       -13.7769 
  25   2.0000      -0.502071       -13.6620 
  26   2.0000      -0.492510       -13.4019 
  27   2.0000      -0.490998       -13.3607 
  28   2.0000      -0.484266       -13.1775 
  29   2.0000      -0.472580       -12.8596 
  30   2.0000      -0.458236       -12.4692 
  31   2.0000      -0.455869       -12.4048 
  32   2.0000      -0.447657       -12.1814 
  33   2.0000      -0.439155       -11.9500 
  34   2.0000      -0.433944       -11.8082 
  35   2.0000      -0.427970       -11.6456 
  36   2.0000      -0.416624       -11.3369 
  37   2.0000      -0.405343       -11.0300 
  38   2.0000      -0.402848       -10.9621 
  39   2.0000      -0.361513        -9.8373 
  40   2.0000      -0.338588        -9.2135 
  41   2.0000      -0.317406        -8.6370 
  42   0.0000       0.072522         1.9734 
  43   0.0000       0.089876         2.4457 
  44   0.0000       0.090924         2.4742 
  45   0.0000       0.093503         2.5444 
  46   0.0000       0.099067         2.6957 
  47   0.0000       0.115742         3.1495 
  48   0.0000       0.118091         3.2134 
  49   0.0000       0.121359         3.3024 
  50   0.0000       0.123519         3.3611 
  51   0.0000       0.139794         3.8040 
  52   0.0000       0.143233         3.8976 
*Only the first 10 virtual orbitals were printed.

                    ********************************
                    * MULLIKEN POPULATION ANALYSIS *
                    ********************************

-----------------------
MULLIKEN ATOMIC CHARGES
-----------------------
   0 C :   -0.066992
   1 C :   -0.090927
   2 C :   -0.053442
   3 C :   -0.049670
   4 C :   -0.057620
   5 C :   -0.033336
   6 C :   -0.085781
   7 C :   -0.047495
   8 C :   -0.052145
   9 C :   -0.099410
  10 C :   -0.066273
  11 C :   -0.060533
  12 C :   -0.071710
  13 C :   -0.024196
  14 C :   -0.033117
  15 H :    0.034810
  16 H :    0.035585
  17 H :    0.032569
  18 H :    0.037872
  19 H :    0.031017
  20 H :    0.036756
  21 H :    0.030428
  22 H :    0.029741
  23 H :    0.041413
  24 H :    0.047581
  25 H :    0.044883
  26 H :    0.036443
  27 H :    0.030333
  28 H :    0.034875
  29 H :    0.035678
  30 H :    0.037877
  31 H :    0.052920
  32 H :    0.036868
  33 H :    0.048593
  34 H :    0.034293
  35 H :    0.057290
  36 H :    0.055668
  37 H :    0.019938
  38 H :    0.009219
Sum of atomic charges:   -0.0000000

--------------------------------
MULLIKEN REDUCED ORBITAL CHARGES
--------------------------------
  0 C s       :     0.959899  s :     0.959899
      pz      :     1.030870  p :     3.032326
      px      :     0.962645
      py      :     1.038811
      dz2     :     0.017158  d :     0.074767
      dxz     :     0.018138
      dyz     :     0.006110
      dx2y2   :     0.020002
      dxy     :     0.013360

  1 C s       :     1.066032  s :     1.066032
      pz      :     1.023122  p :     2.906548
      px      :     0.965704
      py      :     0.917722
      dz2     :     0.029464  d :     0.118347
      dxz     :     0.017929
      dyz     :     0.016922
      dx2y2   :     0.028846
      dxy     :     0.025186

  2 C s       :     1.015472  s :     1.015472
      pz      :     1.006366  p :     2.944049
      px      :     0.923825
      py      :     1.013858
      dz2     :     0.025845  d :     0.093921
      dxz     :     0.016189
      dyz     :     0.007770
      dx2y2   :     0.026046
      dxy     :     0.018071

  3 C s       :     0.999318  s :     0.999318
      pz      :     0.993957  p :     2.949156
      px      :     0.937385
      py      :     1.017813
      dz2     :     0.018901  d :     0.101196
      dxz     :     0.024166
      dyz     :     0.014020
      dx2y2   :     0.026854
      dxy     :     0.017256

  4 C s       :     1.050811  s :     1.050811
      pz      :     0.989073  p :     2.890354
      px      :     1.051918
      py      :     0.849363
      dz2     :     0.024624  d :     0.116455
      dxz     :     0.018901
      dyz     :     0.025310
      dx2y2   :     0.024629
      dxy     :     0.022992

  5 C s       :     1.047004  s :     1.047004
      pz      :     0.992093  p :     2.871621
      px      :     0.918200
      py      :     0.961328
      dz2     :     0.028228  d :     0.114711
      dxz     :     0.019812
      dyz     :     0.013904
      dx2y2   :     0.030070
      dxy     :     0.022697

  6 C s       :     1.102531  s :     1.102531
      pz      :     0.974860  p :     2.833134
      px      :     0.855945
      py      :     1.002329
      dz2     :     0.029449  d :     0.150116
      dxz     :     0.034569
      dyz     :     0.021310
      dx2y2   :     0.029754
      dxy     :     0.035033

  7 C s       :     0.955320  s :     0.955320
      pz      :     0.995661  p :     3.017870
      px      :     0.984381
      py      :     1.037828
      dz2     :     0.021104  d :     0.074305
      dxz     :     0.013677
      dyz     :     0.006633
      dx2y2   :     0.006903
      dxy     :     0.025987

  8 C s       :     0.954448  s :     0.954448
      pz      :     0.961414  p :     3.022967
      px      :     1.034680
      py      :     1.026872
      dz2     :     0.015071  d :     0.074731
      dxz     :     0.020246
      dyz     :     0.014617
      dx2y2   :     0.008341
      dxy     :     0.016455

  9 C s       :     1.010925  s :     1.010925
      pz      :     1.029433  p :     2.956797
      px      :     0.934920
      py      :     0.992443
      dz2     :     0.029450  d :     0.131689
      dxz     :     0.018549
      dyz     :     0.019742
      dx2y2   :     0.036137
      dxy     :     0.027810

 10 C s       :     1.048844  s :     1.048844
      pz      :     1.024930  p :     2.895851
      px      :     0.946101
      py      :     0.924820
      dz2     :     0.030515  d :     0.121578
      dxz     :     0.017979
      dyz     :     0.015920
      dx2y2   :     0.028135
      dxy     :     0.029029

 11 C s       :     0.997002  s :     0.997002
      pz      :     1.033007  p :     2.965181
      px      :     0.986938
      py      :     0.945236
      dz2     :     0.016131  d :     0.098350
      dxz     :     0.024504
      dyz     :     0.014058
      dx2y2   :     0.021738
      dxy     :     0.021919

 12 C s       :     0.990358  s :     0.990358
      pz      :     1.049509  p :     2.984247
      px      :     0.957682
      py      :     0.977056
      dz2     :     0.014169  d :     0.097105
      dxz     :     0.016714
      dyz     :     0.022320
      dx2y2   :     0.022402
      dxy     :     0.021501

 13 C s       :     1.045082  s :     1.045082
      pz      :     0.931158  p :     2.855705
      px      :     0.946053
      py      :     0.978494
      dz2     :     0.008070  d :     0.123409
      dxz     :     0.018927
      dyz     :     0.021366
      dx2y2   :     0.041749
      dxy     :     0.033297

 14 C s       :     0.971841  s :     0.971841
      pz      :     1.016878  p :     2.997400
      px      :     0.989648
      py      :     0.990874
      dz2     :     0.004599  d :     0.063876
      dxz     :     0.007844
      dyz     :     0.007279
      dx2y2   :     0.030516
      dxy     :     0.013638

 15 H s       :     0.921678  s :     0.921678
      pz      :     0.010180  p :     0.043512
      px      :     0.010353
      py      :     0.022980

 16 H s       :     0.920221  s :     0.920221
      pz      :     0.015149  p :     0.044194
      px      :     0.015970
      py      :     0.013075

 17 H s       :     0.924568  s :     0.924568
      pz      :     0.021918  p :     0.042864
      px      :     0.010301
      py      :     0.010645

 18 H s       :     0.922172  s :     0.922172
      pz      :     0.021039  p :     0.039956
      px      :     0.009489
      py      :     0.009427

 19 H s       :     0.927369  s :     0.927369
      pz      :     0.021602  p :     0.041614
      px      :     0.009554
      py      :     0.010458

 20 H s       :     0.920972  s :     0.920972
      pz      :     0.009769  p :     0.042272
      px      :     0.010735
      py      :     0.021767

 21 H s       :     0.927477  s :     0.927477
      pz      :     0.011009  p :     0.042095
      px      :     0.010503
      py      :     0.020583

 22 H s       :     0.926730  s :     0.926730
      pz      :     0.019663  p :     0.043529
      px      :     0.013615
      py      :     0.010251

 23 H s       :     0.913832  s :     0.913832
      pz      :     0.020756  p :     0.044755
      px      :     0.014146
      py      :     0.009854

 24 H s       :     0.908159  s :     0.908159
      pz      :     0.023687  p :     0.044260
      px      :     0.009661
      py      :     0.010912

 25 H s       :     0.912179  s :     0.912179
      pz      :     0.010842  p :     0.042938
      px      :     0.013056
      py      :     0.019040

 26 H s       :     0.920015  s :     0.920015
      pz      :     0.009974  p :     0.043542
      px      :     0.015543
      py      :     0.018025

 27 H s       :     0.924299  s :     0.924299
      pz      :     0.022761  p :     0.045368
      px      :     0.011353
      py      :     0.011254

 28 H s       :     0.921421  s :     0.921421
      pz      :     0.009567  p :     0.043704
      px      :     0.013758
      py      :     0.020379

 29 H s       :     0.919477  s :     0.919477
      pz      :     0.014614  p :     0.044844
      px      :     0.019302
      py      :     0.010928

 30 H s       :     0.919002  s :     0.919002
      pz      :     0.013215  p :     0.043121
      px      :     0.014597
      py      :     0.015309

 31 H s       :     0.905539  s :     0.905539
      pz      :     0.022308  p :     0.041541
      px      :     0.008677
      py      :     0.010555

 32 H s       :     0.924566  s :     0.924566
      pz      :     0.021823  p :     0.038566
      px      :     0.008823
      py      :     0.007920

 33 H s       :     0.909014  s :     0.909014
      pz      :     0.015722  p :     0.042393
      px      :     0.016660
      py      :     0.010011

 34 H s       :     0.924299  s :     0.924299
      pz      :     0.020266  p :     0.041408
      px      :     0.010889
      py      :     0.010252

 35 H s       :     0.899346  s :     0.899346
      pz      :     0.016909  p :     0.043364
      px      :     0.012518
      py      :     0.013937

 36 H s       :     0.901184  s :     0.901184
      pz      :     0.020201  p :     0.043148
      px      :     0.010318
[...]
 81:   1504.51   0.001563    7.90  0.000324  (-0.004916  0.016502  0.005261)
 82:   1509.63   0.000211    1.07  0.000044  (-0.001667  0.003475  0.005368)
 83:   1511.34   0.001127    5.70  0.000233  ( 0.009074 -0.005578 -0.010922)
 84:   1520.09   0.000421    2.13  0.000086  (-0.006537  0.000323 -0.006600)
 85:   1526.31   0.000562    2.84  0.000115  ( 0.010113  0.003002 -0.001923)
 86:   1528.50   0.000518    2.62  0.000106  (-0.010042  0.001477 -0.001640)
 87:   1530.69   0.001805    9.12  0.000368  (-0.007915  0.017262 -0.002717)
 88:   1531.98   0.003904   19.73  0.000795  ( 0.013810  0.010775  0.022100)
 89:   1535.35   0.001925    9.73  0.000391  (-0.002004 -0.012261  0.015395)
 90:   1541.16   0.000853    4.31  0.000173  ( 0.003429 -0.012085 -0.003867)
 91:   1586.78   0.000243    1.23  0.000048  (-0.000028  0.005955 -0.003498)
 92:   1792.17   0.005762   29.12  0.001003  (-0.022138 -0.022452 -0.003015)
 93:   3038.24   0.001329    6.72  0.000137  ( 0.000701  0.003113  0.011241)
 94:   3060.54   0.002617   13.23  0.000267  (-0.003167 -0.003272 -0.015689)
 95:   3081.80   0.002212   11.18  0.000224  ( 0.002600 -0.005593 -0.013635)
 96:   3089.63   0.003191   16.13  0.000322  ( 0.003448  0.006029  0.016554)
 97:   3092.50   0.005892   29.78  0.000595  (-0.004442  0.004368 -0.023575)
 98:   3093.98   0.007270   36.74  0.000733  ( 0.022800  0.001492 -0.014533)
 99:   3095.40   0.014564   73.60  0.001468  ( 0.033833  0.009437 -0.015317)
100:   3099.78   0.006761   34.17  0.000681  ( 0.016952  0.010802  0.016631)
101:   3103.97   0.011924   60.26  0.001199  ( 0.010555 -0.029352  0.015031)
102:   3120.06   0.005332   26.95  0.000533  ( 0.014725 -0.017507  0.003159)
103:   3139.04   0.004330   21.88  0.000430  (-0.001374 -0.020381  0.003636)
104:   3157.15   0.003619   18.29  0.000358  ( 0.009167  0.013439  0.009647)
105:   3167.81   0.001607    8.12  0.000158  (-0.011815  0.002075 -0.003797)
106:   3174.04   0.000954    4.82  0.000094  ( 0.001868  0.001841  0.009325)
107:   3175.33   0.000105    0.53  0.000010  (-0.001541  0.002812  0.000199)
108:   3176.90   0.006191   31.28  0.000608  ( 0.004246 -0.023343 -0.006721)
109:   3178.06   0.005401   27.30  0.000530  (-0.005313 -0.018356 -0.012853)
110:   3181.80   0.005179   26.17  0.000508  (-0.012232 -0.001509  0.018869)
111:   3188.34   0.004811   24.31  0.000471  (-0.005419 -0.009902 -0.018533)
112:   3197.35   0.004548   22.98  0.000444  ( 0.012595  0.001984 -0.016772)
113:   3197.77   0.004173   21.09  0.000407  (-0.009043  0.013937 -0.011454)
114:   3199.32   0.005102   25.79  0.000498  ( 0.019235  0.000837  0.011270)
115:   3201.72   0.001819    9.19  0.000177  (-0.005348 -0.012188 -0.000418)
116:   3296.62   0.001103    5.58  0.000104  (-0.007131  0.007306  0.000469)

* The epsilon (eps) is given for a Dirac delta lineshape.
** The dipole moment derivative (T) already includes vibrational overlap.

The first frequency considered to be a vibration is 6
The total number of vibrations considered is 111


--------------------------
THERMOCHEMISTRY AT 298.15K
--------------------------

Temperature         ...   298.15 K
Pressure            ...     1.00 atm
Total Mass          ...   204.36 AMU
Quasi RRHO          ...     True
Cut-Off Frequency   ...     1.00 cm^-1

Throughout the following assumptions are being made:
  (1) The electronic state is orbitally nondegenerate
  (2) There are no thermally accessible electronically excited states
  (3) Hindered rotations indicated by low frequency modes are not
      treated as such but are treated as vibrations and this may
      cause some error
  (4) All equations used are the standard statistical mechanics
      equations for an ideal gas
  (5) All vibrations are strictly harmonic

freq.      61.58  E(vib)   ...       0.51 
freq.      82.58  E(vib)   ...       0.48 
freq.     132.26  E(vib)   ...       0.42 
freq.     135.72  E(vib)   ...       0.42 
freq.     146.41  E(vib)   ...       0.41 
freq.     169.69  E(vib)   ...       0.38 
freq.     202.18  E(vib)   ...       0.35 
freq.     218.33  E(vib)   ...       0.33 
freq.     227.99  E(vib)   ...       0.33 
freq.     244.13  E(vib)   ...       0.31 
freq.     270.63  E(vib)   ...       0.29 
freq.     291.00  E(vib)   ...       0.27 
freq.     314.51  E(vib)   ...       0.25 
freq.     331.26  E(vib)   ...       0.24 
freq.     357.30  E(vib)   ...       0.22 
freq.     382.80  E(vib)   ...       0.20 
freq.     403.47  E(vib)   ...       0.19 
freq.     445.03  E(vib)   ...       0.17 
freq.     456.60  E(vib)   ...       0.16 
freq.     471.92  E(vib)   ...       0.15 
freq.     535.89  E(vib)   ...       0.12 
freq.     557.18  E(vib)   ...       0.12 
freq.     590.14  E(vib)   ...       0.10 
freq.     599.90  E(vib)   ...       0.10 
freq.     635.20  E(vib)   ...       0.09 
freq.     720.66  E(vib)   ...       0.07 
freq.     747.05  E(vib)   ...       0.06 
freq.     795.35  E(vib)   ...       0.05 
freq.     841.53  E(vib)   ...       0.04 
freq.     865.92  E(vib)   ...       0.04 
freq.     902.27  E(vib)   ...       0.03 
freq.     919.13  E(vib)   ...       0.03 
freq.     928.82  E(vib)   ...       0.03 
freq.     937.35  E(vib)   ...       0.03 
freq.     960.53  E(vib)   ...       0.03 
freq.     979.97  E(vib)   ...       0.02 
freq.     989.45  E(vib)   ...       0.02 
freq.     995.78  E(vib)   ...       0.02 
freq.    1008.08  E(vib)   ...       0.02 
freq.    1015.39  E(vib)   ...       0.02 
freq.    1028.29  E(vib)   ...       0.02 
freq.    1053.83  E(vib)   ...       0.02 
freq.    1065.99  E(vib)   ...       0.02 
freq.    1080.61  E(vib)   ...       0.02 
freq.    1089.42  E(vib)   ...       0.02 
freq.    1110.76  E(vib)   ...       0.01 
freq.    1126.17  E(vib)   ...       0.01 
freq.    1148.78  E(vib)   ...       0.01 
freq.    1159.80  E(vib)   ...       0.01 
freq.    1165.04  E(vib)   ...       0.01 
freq.    1177.24  E(vib)   ...       0.01 
freq.    1183.45  E(vib)   ...       0.01 
freq.    1215.39  E(vib)   ...       0.01 
freq.    1228.64  E(vib)   ...       0.01 
freq.    1247.00  E(vib)   ...       0.01 
freq.    1258.56  E(vib)   ...       0.01 
freq.    1274.44  E(vib)   ...       0.01 
freq.    1290.33  E(vib)   ...       0.01 
freq.    1304.03  E(vib)   ...       0.01 
freq.    1319.90  E(vib)   ...       0.01 
freq.    1334.05  E(vib)   ...       0.01 
freq.    1344.61  E(vib)   ...       0.01 
freq.    1352.46  E(vib)   ...       0.01 
freq.    1363.24  E(vib)   ...       0.01 
freq.    1370.34  E(vib)   ...       0.01 
freq.    1379.02  E(vib)   ...       0.01 
freq.    1393.85  E(vib)   ...       0.00 
freq.    1396.89  E(vib)   ...       0.00 
freq.    1421.68  E(vib)   ...       0.00 
freq.    1441.99  E(vib)   ...       0.00 
freq.    1444.54  E(vib)   ...       0.00 
freq.    1448.67  E(vib)   ...       0.00 
freq.    1456.63  E(vib)   ...       0.00 
freq.    1466.23  E(vib)   ...       0.00 
freq.    1478.82  E(vib)   ...       0.00 
freq.    1504.51  E(vib)   ...       0.00 
freq.    1509.63  E(vib)   ...       0.00 
freq.    1511.34  E(vib)   ...       0.00 
freq.    1520.09  E(vib)   ...       0.00 
freq.    1526.31  E(vib)   ...       0.00 
freq.    1528.50  E(vib)   ...       0.00 
freq.    1530.69  E(vib)   ...       0.00 
freq.    1531.98  E(vib)   ...       0.00 
freq.    1535.35  E(vib)   ...       0.00 
freq.    1541.16  E(vib)   ...       0.00 
freq.    1586.78  E(vib)   ...       0.00 
freq.    1792.17  E(vib)   ...       0.00 
freq.    3038.24  E(vib)   ...       0.00 
freq.    3060.54  E(vib)   ...       0.00 
freq.    3081.80  E(vib)   ...       0.00 
freq.    3089.63  E(vib)   ...       0.00 
freq.    3092.50  E(vib)   ...       0.00 
freq.    3093.98  E(vib)   ...       0.00 
freq.    3095.40  E(vib)   ...       0.00 
freq.    3099.78  E(vib)   ...       0.00 
freq.    3103.97  E(vib)   ...       0.00 
freq.    3120.06  E(vib)   ...       0.00 
freq.    3139.04  E(vib)   ...       0.00 
freq.    3157.15  E(vib)   ...       0.00 
freq.    3167.81  E(vib)   ...       0.00 
freq.    3174.04  E(vib)   ...       0.00 
freq.    3175.33  E(vib)   ...       0.00 
freq.    3176.90  E(vib)   ...       0.00 
freq.    3178.06  E(vib)   ...       0.00 
freq.    3181.80  E(vib)   ...       0.00 
freq.    3188.34  E(vib)   ...       0.00 
freq.    3197.35  E(vib)   ...       0.00 
freq.    3197.77  E(vib)   ...       0.00 
freq.    3199.32  E(vib)   ...       0.00 
freq.    3201.72  E(vib)   ...       0.00 
freq.    3296.62  E(vib)   ...       0.00 

------------
INNER ENERGY
------------

The inner energy is: U= E(el) + E(ZPE) + E(vib) + E(rot) + E(trans)
    E(el)   - is the total energy from the electronic structure calculation
              = E(kin-el) + E(nuc-el) + E(el-el) + E(nuc-nuc)
    E(ZPE)  - the the zero temperature vibrational energy from the frequency calculation
    E(vib)  - the the finite temperature correction to E(ZPE) due to population
              of excited vibrational states
    E(rot)  - is the rotational thermal energy
    E(trans)- is the translational thermal energy

Summary of contributions to the inner energy U:
Electronic energy                ...    -99.90713801 Eh
Zero point energy                ...      0.36591323 Eh     229.61 kcal/mol
Thermal vibrational correction   ...      0.01195461 Eh       7.50 kcal/mol
Thermal rotational correction    ...      0.00141627 Eh       0.89 kcal/mol
Thermal translational correction ...      0.00141627 Eh       0.89 kcal/mol
-----------------------------------------------------------------------
Total thermal energy                    -99.52643764 Eh


Summary of corrections to the electronic energy:
(perhaps to be used in another calculation)
Total thermal correction                  0.01478715 Eh       9.28 kcal/mol
Non-thermal (ZPE) correction              0.36591323 Eh     229.61 kcal/mol
-----------------------------------------------------------------------
Total correction                          0.38070037 Eh     238.89 kcal/mol


--------
ENTHALPY
--------

The enthalpy is H = U + kB*T
                kB is Boltzmann's constant
Total thermal energy              ...    -99.52643764 Eh 
Thermal Enthalpy correction       ...      0.00094421 Eh       0.59 kcal/mol
-----------------------------------------------------------------------
Total Enthalpy                    ...    -99.52549343 Eh


Note: Only C1 symmetry has been detected, increase convergence thresholds 
      if your molecule has a higher symmetry. Symmetry factor of 1.0 is   
      used for the rotational entropy correction. 
 

Note: Rotational entropy computed according to Herzberg 
Infrared and Raman Spectra, Chapter V,1, Van Nostrand Reinhold, 1945 
Point Group:  C1, Symmetry Number:   1  
Rotational constants in cm-1:     0.024840     0.019148     0.012100 

Vibrational entropy computed according to the QRRHO of S. Grimme
Chem.Eur.J. 2012 18 9955 using a reference frequency of 100.0 cm-1


-------
ENTROPY
-------

The entropy contributions are T*S = T*(S(el)+S(vib)+S(rot)+S(trans))
     S(el)   - electronic entropy
     S(vib)  - vibrational entropy
     S(rot)  - rotational entropy
     S(trans)- translational entropy
The entropies will be listed as multiplied by the temperature to get
units of energy

Electronic entropy                ...      0.00000000 Eh      0.00 kcal/mol
Vibrational entropy               ...      0.02010975 Eh     12.62 kcal/mol
Rotational entropy                ...      0.01520676 Eh      9.54 kcal/mol
Translational entropy             ...      0.01988345 Eh     12.48 kcal/mol
-----------------------------------------------------------------------
Final entropy term                ...      0.05519996 Eh     34.64 kcal/mol

In case the symmetry of your molecule has not been determined correctly
or in case you have a reason to use a different symmetry number we print 
out the resulting rotational entropy values for sn=1,12:

 non-linear molecules -----------------------------------
|  sn= 1 | S(rot)=       0.01520676 Eh      9.54 kcal/mol|
|  sn= 2 | S(rot)=       0.01455230 Eh      9.13 kcal/mol|
|  sn= 3 | S(rot)=       0.01416947 Eh      8.89 kcal/mol|
|  sn= 4 | S(rot)=       0.01389784 Eh      8.72 kcal/mol|
|  sn= 5 | S(rot)=       0.01368716 Eh      8.59 kcal/mol|
|  sn= 6 | S(rot)=       0.01351501 Eh      8.48 kcal/mol|
|  sn= 7 | S(rot)=       0.01336946 Eh      8.39 kcal/mol|
|  sn= 8 | S(rot)=       0.01324339 Eh      8.31 kcal/mol|
|  sn= 9 | S(rot)=       0.01313218 Eh      8.24 kcal/mol|
|  sn=10 | S(rot)=       0.01303270 Eh      8.18 kcal/mol|
|  sn=11 | S(rot)=       0.01294271 Eh      8.12 kcal/mol|
|  sn=12 | S(rot)=       0.01286055 Eh      8.07 kcal/mol|
 linear molecules ---------------------------------------
|  Dinfh | S(rot)=       0.00949392 Eh      5.96 kcal/mol|
|  Cinfv | S(rot)=       0.01014838 Eh      6.37 kcal/mol|
 --------------------------------------------------------


-------------------
GIBBS FREE ENERGY
-------------------

The Gibbs free energy is G = H - T*S

Total enthalpy                    ...    -99.52549343 Eh 
Total entropy correction          ...     -0.05519996 Eh    -34.64 kcal/mol
-----------------------------------------------------------------------
Final Gibbs free energy         ...    -99.58069339 Eh

For completeness - the Gibbs free energy minus the electronic energy
G-E(el)                           ...      0.32644462 Eh    204.85 kcal/mol


Maximum memory used throughout the entire PROP-calculation: 241.6 MB

--------------------------------
SUGGESTED CITATIONS FOR THIS RUN
--------------------------------

Below you find a list of papers that are relevant to this ORCA run
We neither can nor want to force you to cite these papers, but we appreciate if you do
You receive ORCA, which is the product of decades of hard work by many enthusiastic individuals, for free
The only thing we kindly ask in return is that you cite our papers,
We deeply appreciate it, if you show your appreciation for ORCA by not just citing the generic ORCA reference.

Please note that relegating all ORCA citations to the supporting information does *not* help us.
SI sections are not indexed - citations you put there will not count into any citation statistics
But we need these citations in order to attract the funding resources that allow us to do what we are doing

Therefore, if you are a happy ORCA user, please consider citing a few of the papers listed below in the main body of your paper

In addition to the list printed below, the program has created the file ./output/beta_gurjunene/beta_gurjunene.bibtex that contains the list in bibtex format
You can import this file easily into all common literature databanks and citation aid programs


List of essential papers. We consider these as the minimum necessary citations

  1. Neese,F.
     Software update: the ORCA program system, version 5.0
     WIRES Comput. Molec. Sci., 2022 12(1)e1606
     doi.org/10.1002/wcms.1606
  2. Mueller,M.; Hansen,A.; Grimme,S.
     wB97X-3c: A composite range-separated hybrid DFT method with a molecule-optimized polarized valence double-zeta basis set
     J. Chem. Phys., 2023 158 014103
     doi.org/10.1063/5.0133026

List of papers to cite with high priority. The work reported in these papers was absolutely
necessary for this run to complete.
Our perspective: the developers of density functionals and basis sets usually get cited in chemistry papers
Good! But without the algorithms to do something with them, the functionals or basis sets would not do anything.
Hence, in our opinion, the algorithm design and method developments papers are equally worthy of getting cited

  1. Neese,F.
     An improvement of the resolution of the identity approximation for the formation of the Coulomb matrix
     J. Comp. Chem., 2003 24(14)1740-1747
     doi.org/10.1002/jcc.10318
  2. Neese,F.; Wennmohs,F.; Hansen,A.; Becker,U.
     Efficient, approximate and parallel Hartree-Fock and hybrid DFT calculations. A 'chain-of-spheres' algorithm for the Hartree-Fock exchange
     Chem. Phys., 2009 356(1-3)98-109
     doi.org/10.1016/j.chemphys.2008.10.036
  3. Bykov,D.; Petrenko,T.; Izsak,R.; Kossmann,S.; Becker,U.; Valeev,E.; Neese,F.
     Efficient implementation of the analytic second derivatives of Hartree-Fock and hybrid DFT energies: a detailed analysis of different approximations
     Molec. Phys., 2015 113 1961-1977
     doi.org/10.1080/00268976.2015.1025114
  4. Helmich-Paris,B.; de Souza,B.; Neese,F.; Izsák,R.
     An improved chain of spheres for exchange algorithm
     J. Chem. Phys., 2021 155 104109
     doi.org/doi: 10.1063/5.0058766.
  5. Neese,F.
     The SHARK Integral Generation and Digestion System
     J. Comp. Chem., 2022  1-16
     doi.org/10.1002/jcc.26942
  6. Caldeweyher,E.; Bannwarth,C.; Grimme,S.
     Extension of the D3 dispersion coefficient model
     J. Chem. Phys., 2017 147 034112
     doi.org/10.1063/1.4993215
  7. Caldeweyher,E.; Ehlert,S.; Hansen,A.; Neugebauer,H.; Spicher,S.; Bannwarth,C.; Grimme,S.
     A generally applicable atomic-charge dependent London dispersion correction
     J. Chem. Phys., 2019 150 154122
     doi.org/10.1063/1.5090222
  8. Caldeweyher,E.; Mewes,J.; Ehlert,S.; Grimme,S.
     Extension and evaluation of the D4 London-dispersion model for periodic systems
     Phys. Chem. Chem. Phys., 2020 22(16)8499-8512
     doi.org/10.1039/D0CP00502A
  9. Wittmann,L.; Gordiy,I.; Friede,M.; Helmich-Paris,B.; Grimme,S.; Hansen,A.; Bursch,M.
     Extension of the D3 and D4 London Dispersion Corrections to the full Actinides Series
     Phys. Chem. Chem. Phys., 2024 26(32)21379-21394
     doi.org/https://doi.org/10.1039/D4CP01514B 

List of suggested additional citations. These are papers that are important in the 'surrounding' of 
of this run, or papers that preceded the highly important papers. If you like your results we are grateful for a citation.

  1. Izsak,R.; Neese,F.
     An overlap fitted chain of spheres exchange method
     J. Chem. Phys., 2011 135 144105
     doi.org/10.1063/1.3646921
  2. Izsak,R.; Hansen,A.; Neese,F.
     The resolution of identity and chain of spheres approximations for the LPNO-CCSD singles Fock term
     Molec. Phys., 2012 110 2413-2417
     doi.org/10.1080/00268976.2012.687466
  3. Neese,F.
     The ORCA program system
     WIRES Comput. Molec. Sci., 2012 2(1)73-78
     doi.org/10.1002/wcms.81
  4. Izsak,R.; Neese,F.; Klopper,W.
     Robust fitting techniques in the chain of spheres approximation to the Fock exchange: The role of the complementary space
     J. Chem. Phys., 2013 139 
     doi.org/10.1063/1.4819264
  5. Neese,F.
     Software update: the ORCA program system, version 4.0
     WIRES Comput. Molec. Sci., 2018 8(1)1-6
     doi.org/10.1002/wcms.1327
  6. Neese,F.; Wennmohs,F.; Becker,U.; Riplinger,C.
     The ORCA quantum chemistry program package
     J. Chem. Phys., 2020 152 Art. No. L224108
     doi.org/10.1063/5.0004608

List of optional additional citations

  1. Neese,F.
     Approximate second-order SCF convergence for spin unrestricted wavefunctions
     Chem. Phys. Lett., 2000 325(1-3)93-98
     doi.org/10.1016/s0009-2614(00)00662-x

Timings for individual modules:

Sum of individual times          ...     1826.084 sec (=  30.435 min)
Startup calculation              ...       76.898 sec (=   1.282 min)   4.2 %
SCF iterations                   ...     1063.671 sec (=  17.728 min)  58.2 %
Property integrals               ...      142.549 sec (=   2.376 min)   7.8 %
SCF Response                     ...       86.057 sec (=   1.434 min)   4.7 %
Property calculations            ...      215.787 sec (=   3.596 min)  11.8 %
SCF Gradient evaluation          ...      240.623 sec (=   4.010 min)  13.2 %
Geometry relaxation              ...        0.499 sec (=   0.008 min)   0.0 %
                             ****ORCA TERMINATED NORMALLY****
TOTAL RUN TIME: 0 days 0 hours 30 minutes 33 seconds 471 msec
