
                                 *****************
                                 * O   R   C   A *
                                 *****************

                                            #,                                       
                                            ###                                      
                                            ####                                     
                                            #####                                    
                                            ######                                   
                                           ########,                                 
                                     ,,################,,,,,                         
                               ,,#################################,,                 
                          ,,##########################################,,             
                       ,#########################################, ''#####,          
                    ,#############################################,,   '####,        
                  ,##################################################,,,,####,       
                ,###########''''           ''''###############################       
              ,#####''   ,,,,##########,,,,          '''####'''          '####       
            ,##' ,,,,###########################,,,                        '##       
           ' ,,###''''                  '''############,,,                           
         ,,##''                                '''############,,,,        ,,,,,,###''
      ,#''                                            '''#######################'''  
     '                                                          ''''####''''         
             ,#######,   #######,   ,#######,      ##                                
            ,#'     '#,  ##    ##  ,#'     '#,    #''#        ,####,   ,####,        
            ##       ##  ##   ,#'  ##            #'  '#       #'       #'  '#        
            ##       ##  #######   ##           ,######,      #####,   #    #        
            '#,     ,#'  ##    ##  '#,     ,#' ,#      #,     #,   #   #,  ,#        
             '#######'   ##     ##  '#######'  #'      '#     '####' # '####'        



                #########################################################
                #                        -***-                          #
                #          Department of theory and spectroscopy        #
                #                                                       #
                #                      Frank Neese                      #
                #                                                       #
                #     Directorship, Architecture, Infrastructure        #
                #                    SHARK, DRIVERS                     #
                #        Core code/Algorithms in most modules           #
                #                                                       #
                #        Max Planck Institute fuer Kohlenforschung      #
                #                Kaiser Wilhelm Platz 1                 #
                #                 D-45470 Muelheim/Ruhr                 #
                #                      Germany                          #
                #                                                       #
                #                  All rights reserved                  #
                #                        -***-                          #
                #########################################################


                         Program Version 6.0.1  -  RELEASE   -


 With contributions from (in alphabetic order):
[Max-Planck-Institut fuer Kohlenforschung]                               
  Daniel Aravena         : Magnetic Suceptibility                        
  Michael Atanasov       : Ab Initio Ligand Field Theory (pilot matlab implementation)
  Alexander A. Auer      : GIAO ZORA, VPT2 properties, NMR spectrum      
  Ute Becker             : All parallelization in ORCA, NUMFREQ, NUMCALC 
  Giovanni Bistoni       : ED, misc. LED, open-shell LED, HFLD           
  Martin Brehm           : Molecular dynamics                            
  Dmytro Bykov           : pre 5.0 version of the SCF Hessian            
  Marcos Casanova-Páez   : Triplet and SCS-CIS(D). UHF-(DLPNO)-IP/EA/STEOM-CCSD. UHF-CVS-IP/STEOM-CCSD   
  Vijay G. Chilkuri      : MRCI spin determinant printing, contributions to CSF-ICE 
  Pauline Colinet        : FMM embedding                                 
  Dipayan Datta          : RHF DLPNO-CCSD density                        
  Achintya Kumar Dutta   : EOM-CC, STEOM-CC                              
  Nicolas Foglia         : Exact transition moments, OPA infrastructure, MCD improvements    
  Dmitry Ganyushin       : Spin-Orbit,Spin-Spin,Magnetic field MRCI      
  Miquel Garcia-Rates    : C-PCM and meta-GGA Hessian, CCSD/C-PCM, Gaussian charge scheme 
  Tiago L. C. Gouveia    : GS-ROHF, GS-ROCIS                             
  Yang Guo               : DLPNO-NEVPT2, F12-NEVPT2, CIM, IAO-localization        
  Andreas Hansen         : Spin unrestricted coupled pair/coupled cluster methods 
  Ingolf Harden          : AUTO-CI MPn and infrastructure                
  Benjamin Helmich-Paris : MC-RPA, TRAH-(SCF,CASSCF), AVAS, COSX integrals, SCF dyn. polar. 
  Lee Huntington         : MR-EOM, pCC                                   
  Robert Izsak           : Overlap fitted RIJCOSX, COSX-SCS-MP3, EOM     
  Riya Kayal             : Wick's Theorem for AUTO-CI, AUTO-CI UHF-CCSDT 
  Emily Kempfer          : AUTO-CI, RHF CISDT and CCSDT                  
  Christian Kollmar      : KDIIS, OOCD, Brueckner-CCSD(T), CCSD density, CASPT2, CASPT2-K, improved NEVPT2 
  Axel Koslowski         : Symmetry handling                             
  Simone Kossmann        : meta-GGA functionals, TD-DFT gradient, OOMP2, (MP2 Hessian; deprecated post 5.0) 
  Lucas Lang             : DCDCAS                                        
  Marvin Lechner         : AUTO-CI (C++ implementation), FIC-MRCC        
  Spencer Leger          : CASSCF response                               
  Dagmar Lenk            : GEPOL surface, SMD, ORCA-2-JSON               
  Dimitrios Liakos       : Extrapolation schemes; Compound Job, initial MDCI parallelization 
  Dimitrios Manganas     : Further ROCIS development; embedding schemes. LFT, Crystal Embedding 
  Dimitrios Pantazis     : SARC Basis sets                               
  Anastasios Papadopoulos: AUTO-CI, single reference methods and gradients 
  Taras Petrenko         : pre 6.0 DFT Hessian and TD-DFT gradient, (ASA, deprecated), ECA, 1-Electron XAS/XES, NRVS 
  Peter Pinski           : DLPNO-MP2, DLPNO-MP2 Gradient                 
  Christoph Reimann      : Effective Core Potentials                     
  Marius Retegan         : Local ZFS, SOC                                
  Christoph Riplinger    : Optimizer, TS searches, QM/MM, DLPNO-CCSD(T), (RO)-DLPNO pert. Triples 
  Michael Roemelt        : Original ROCIS implementation                 
  Masaaki Saitow         : Open-shell DLPNO-CCSD energy and density      
  Barbara Sandhoefer     : DKH picture change effects                    
  Kantharuban Sivalingam : CASSCF convergence/infrastructure, NEVPT2 and variants, FIC-MRCI 
  Bernardo de Souza      : ESD, SOC TD-DFT                               
  Georgi L. Stoychev     : AutoAux, RI-MP2 NMR, DLPNO-MP2 response, X2C  
  Van Anh Tran           : RI-MP2 g-tensors                              
  Willem Van den Heuvel  : Paramagnetic NMR                              
  Zikuan Wang            : NOTCH, Electric field optimization            
  Frank Wennmohs         : Technical directorship and infrastructure     
  Hang Xu                : AUTO-CI-Response properties                   
                                                                         
[FACCTs GmbH]                                                            
  Markus Bursch, Miquel Garcia-Rates, Christoph Riplinger, Bernardo de Souza, Georgi L. Stoychev 
                                                                 
  APM, Basis sets (HGBS, AHGBS, def-TZVP (Ac-Lr), def2-XVPD (La-Lu)), CI-OPT, improved COSX, DLPNO-Multilevel,           
  DOCKER, DRACO, updates on ESD, GOAT, IRC, LR-CPCM, MBIS, meta-GGA TD-DFT gradient, ML-optimized integration grids, 
  MM, NACMEs, nearIR, NEB, NEB-TS, NL-DFT gradient (VV10), 2- and 3-layer-ONIOM, interface openCOSMO-RS, QMMM,   
  Crystal-QMMM, SF, symmetry and pop. for TD-DFT, r2SCAN hybrids, SOLVATOR                                   
                                                                         
[Other institutions]                                                     
  V. Asgeirsson          : NEB                                           
  Christoph Bannwarth    : sTDA-DFT, sTD-DFT, PBEh-3c, B97-3c, D3        
  Sebastian Ehlert       : rSCAN, r2SCAN, r2SCAN-3c, D4, dhf basis sets  
  Marvin Friede          : D4 for Fr, Ra, Ac-Lr                          
  Lars Goerigk           : TD-DFT with DH, B97 family of functionals     
  Stefan Grimme          : VdW corrections, initial TS optimization, DFT functionals, gCP, sTDA/sTD-DF 
  Waldemar Hujo          : DFT-NL                                        
  H. Jonsson             : NEB                                           
  Holger Kruse           : gCP                                           
  Marcel Mueller         : wB97X-3c, vDZP basis set                      
  Hagen Neugebauer       : wr2SCAN                                       
  Tobias Risthaus        : range-separated hybrid DFT                    
  Lukas Wittmann         : regularized MP2, r2SCAN double-hybrids, wr2SCAN        
                                                                         
We gratefully acknowledge several colleagues who have allowed us to      
interface, adapt or use parts of their codes:                            
  Ed Valeev, F. Pavosevic, A. Kumar             : LibInt (2-el integral package), F12 methods 
  Garnet Chan, S. Sharma, J. Yang, R. Olivares  : DMRG                   
  Ulf Ekstrom                                   : XCFun DFT Library      
  Mihaly Kallay                                 : mrcc  (arbitrary order and MRCC methods)
  Frank Weinhold                                : gennbo (NPA and NBO analysis)           
  Simon Mueller                                 : openCOSMO-RS                            
  Christopher J. Cramer and Donald G. Truhlar   : smd solvation model                     
  S Lehtola, MJT Oliveira, MAL Marques          : LibXC Library                           
  Liviu Ungur et al                             : ANISO software                          


 Your calculation uses the libint2 library for the computation of 2-el integrals
 For citations please refer to: http://libint.valeyev.net

 Your ORCA version has been built with support for libXC version: 6.2.2
 For citations please refer to: https://libxc.gitlab.io

 This ORCA versions uses:
   CBLAS   interface :  Fast vector & matrix operations
   LAPACKE interface :  Fast linear algebra routines
   SCALAPACK package :  Parallel linear algebra routines
   Shared memory     :  Shared parallel matrices
   BLAS/LAPACK       :  OpenBLAS 0.3.27  USE64BITINT DYNAMIC_ARCH NO_AFFINITY SkylakeX SINGLE_THREADED
        Core in use  :  SkylakeX
   Copyright (c) 2011-2014, The OpenBLAS Project


Your calculation utilizes the atom-pairwise dispersion correction
based on EEQ partial charges (D4)


================================================================================

cite the ECPs for C  [vDZP-ECP], O  [vDZP-ECP] as follows:
   B-Ne (ecp-2-mwb), Al-Ar (ecp-10-mwb), Ga-Kr (ecp-28-mwb), Y-Cd (ecp-28-mwb), In-Xe (ecp-46-mwb):
     A. Bergner, M. Dolg, W. Küchle, H. Stoll, and H. Preuß, Mol. Phys. 80, 1431 (1993)., T. Leininger, A. Berning, A. Nicklass, H. Stoll, H.-J. Werner, and H.-J.Flad, Chem. Phys. 217, 19 (1997).
   Na-Mg, K-Ca, Rb-Sr, Cs-Ba (CRENBL):
     L. Fernandez Pacios and P. A. Christiansen, J. Chem. Phys. 82, 2664 (1985)., M. M. Hurley, L. F. Pacios, P. A. Christiansen, R. B. Ross, and W. C. Ermler, J. Chem. Phys. 84, 6840 (1986)., L. A. LaJohn, P. A. Christiansen, R. B. Ross, T. Atashroo, and W. C. Ermler, J. Chem. Phys. 87, 2812 (1987)., R. B. Ross, J. M. Powers, T. Atashroo, W. C. Ermler, L. A. LaJohn, and P. A. Christiansen, J. Chem. Phys. 93, 6654 (1990). 
   Sc-Zn (ecp-10-mdf):
     M. Dolg, U. Wedig, H. Stoll, and H. Preuss, J. Chem. Phys. 86, 866 (1986). 
   Y-Cd (ecp-28-mwb), Hf-Hg (ecp-60-mwb):
     D. Andrae, U. Häußermann, M. Dolg, H. Stoll, and H. Preuß, Theor. Chim. Acta 77, 123 (1990). 
   La (ecp-46-mwb):
     M. Dolg, H. Stoll, and H. Preuss, J. Chem. Phys. 90, 1730 (1989)., M. Dolg, H. Stoll, and H. Preuss, Theor. Chim. Acta 85, 441 (1993).
   Ce-Lu (SBKJC-ecp):
     T. R. Cundari and W. J. Stevens, J. Chem. Phys. 98, 5555 (1993).
   Tl-Rn (ecp-78-mwb):
     W. Küchle, M. Dolg, H. Stoll, and H. Preuss, Mol. Phys. 74, 1245 (1991).

ECP parameters for C  [vDZP-ECP], O  [vDZP-ECP] have been obtained from:
MM, AH, SG, J. Chem. Phys. 158, 014103 (2023), 10.1063/5.0133026

----- Orbital basis set information -----
Your calculation utilizes the basis: vDZP
   Marcel Mueller, Andreas Hansen, Stefan Grimme 
   J. Chem. Phys. 158, 014103 (2023). DOI: 10.1063/5.0133026

----- AuxJ basis set information -----
Your calculation utilizes the auxiliary basis: def2/J
   F. Weigend, Phys. Chem. Chem. Phys. 8, 1057 (2006).

================================================================================
                                        WARNINGS
                       Please study these warnings very carefully!
================================================================================

WARNING: Frozen-Core approximation turned on, but there are no core electrons.
  ===> : Turning off frozen-core approximation


WARNING: Geometry Optimization
  ===> : Switching off AutoStart
         For restart on a previous wavefunction, please use MOREAD

================================================================================
                                       INPUT FILE
================================================================================
NAME = ./output/geranyl_acetate/geranyl_acetate.inp
|  1> ! wB97X-3c OPT FREQ TightSCF
|  2> %pal
|  3>   nprocs 40
|  4> end
|  5> * xyz 0 1
|  6> C     -3.837082    -1.366796     1.587311
|  7> C     -3.105955    -0.470926     0.621009
|  8> C     -2.001463    -0.950538     0.007482
|  9> C     -1.147023    -0.159365    -0.950918
| 10> C     -0.058246     0.611679    -0.197426
| 11> C      0.785416     1.423749    -1.160246
| 12> C      1.916910     0.946253    -1.725845
| 13> C      2.503773    -0.406650    -1.433877
| 14> O      3.049455    -0.418757    -0.118910
| 15> C      3.639926    -1.554474     0.441400
| 16> O      3.743804    -2.621388    -0.222911
| 17> C      4.194970    -1.487591     1.823306
| 18> C      0.310321     2.798029    -1.554437
| 19> C     -3.630552     0.920342     0.352670
| 20> H     -4.173652    -2.287354     1.064889
| 21> H     -3.160428    -1.649673     2.421395
| 22> H     -4.729304    -0.866763     2.018180
| 23> H     -1.675578    -1.964069     0.229088
| 24> H     -0.667860    -0.871881    -1.655510
| 25> H     -1.765099     0.532261    -1.561730
| 26> H      0.564392    -0.092359     0.393086
| 27> H     -0.526297     1.297070     0.540376
| 28> H      2.453388     1.571499    -2.435529
| 29> H      3.314432    -0.612548    -2.165694
| 30> H      1.730044    -1.196285    -1.540801
| 31> H      3.688975    -0.682361     2.396118
| 32> H      4.034563    -2.454114     2.346012
| 33> H      5.282553    -1.272375     1.774961
| 34> H     -0.650346     3.050684    -1.057741
| 35> H      0.154230     2.842337    -2.653226
| 36> H      1.067844     3.555585    -1.262085
| 37> H     -4.525757     1.143094     0.969488
| 38> H     -3.922580     1.015557    -0.714014
| 39> H     -2.857776     1.678130     0.594261
| 40> *
| 41> 
| 42>                          ****END OF INPUT****
================================================================================

                       *****************************
                       * Geometry Optimization Run *
                       *****************************

Geometry optimization settings:
Update method            Update   .... BFGS
Choice of coordinates    CoordSys .... (2022) Redundant Internals
Initial Hessian          InHess   .... Almloef's Model
Max. no of cycles        MaxIter  .... 102

Convergence Tolerances:
Energy Change            TolE     ....  5.0000e-06 Eh
Max. Gradient            TolMAXG  ....  3.0000e-04 Eh/bohr
RMS Gradient             TolRMSG  ....  1.0000e-04 Eh/bohr
Max. Displacement        TolMAXD  ....  4.0000e-03 bohr
RMS Displacement         TolRMSD  ....  2.0000e-03 bohr
Strict Convergence                .... False

------------------------------------------------------------------------------
                        ORCA OPTIMIZATION COORDINATE SETUP
------------------------------------------------------------------------------

The optimization will be done in redundant internal coordinates (2022)
Making redundant internal coordinates   ...  (2022 redundants) done
Evaluating the initial hessian          ...  (Almloef) done
Evaluating the coordinates              ...  done
Calculating the B-matrix                .... done
Calculating the G-matrix                .... done
Diagonalizing the G-matrix              .... done
Small eigenvalue found = 2.303e-03
Small eigenvalue found = 5.071e-03
Small eigenvalue found = 8.007e-03
Small eigenvalue found = 1.243e-02
Small eigenvalue found = 2.151e-02
Small eigenvalue found = 2.531e-02
The first mode is                       ....   49
The number of degrees of freedom        ....   96

    -----------------------------------------------------------------
                    Redundant Internal Coordinates


    -----------------------------------------------------------------
         Definition                    Initial Value    Approx d2E/dq
    -----------------------------------------------------------------
      1. B(C   1,C   0)                  1.5069         0.406600   
      2. B(C   2,C   1)                  1.3514         0.719921   
      3. B(C   3,C   2)                  1.5082         0.404779   
      4. B(C   4,C   3)                  1.5322         0.370542   
      5. B(C   5,C   4)                  1.5160         0.393296   
      6. B(C   6,C   5)                  1.3521         0.718125   
      7. B(C   7,C   6)                  1.5033         0.412030   
      8. B(O   8,C   7)                  1.4237         0.494351   
      9. B(C   9,O   8)                  1.3973         0.544783   
     10. B(O  10,C   9)                  1.2611         0.898477   
     11. B(C  11,C   9)                  1.4907         0.431583   
     12. B(C  12,C   5)                  1.5066         0.407157   
     13. B(C  13,C   1)                  1.5109         0.400721   
     14. B(H  14,C   0)                  1.1107         0.333745   
     15. B(H  15,C   0)                  1.1107         0.333775   
     16. B(H  16,C   0)                  1.1098         0.334790   
     17. B(H  17,C   2)                  1.0875         0.363484   
     18. B(H  18,C   3)                  1.1107         0.333692   
     19. B(H  19,C   3)                  1.1106         0.333842   
     20. B(H  20,C   4)                  1.1100         0.334618   
     21. B(H  21,C   4)                  1.1105         0.333991   
     22. B(H  22,C   6)                  1.0874         0.363584   
     23. B(H  23,C   7)                  1.1114         0.332925   
     24. B(H  24,C   7)                  1.1107         0.333755   
     25. B(H  25,C  11)                  1.1102         0.334348   
     26. B(H  26,C  11)                  1.1105         0.334028   
     27. B(H  27,C  11)                  1.1097         0.334928   
     28. B(H  28,C  12)                  1.1106         0.333860   
     29. B(H  29,C  12)                  1.1107         0.333726   
     30. B(H  30,C  12)                  1.1105         0.333982   
     31. B(H  31,C  13)                  1.1097         0.334937   
     32. B(H  32,C  13)                  1.1100         0.334557   
     33. B(H  33,C  13)                  1.1090         0.335872   
     34. A(C   1,C   0,H  16)          111.7858         0.324950   
     35. A(H  14,C   0,H  16)          108.2048         0.284151   
     36. A(C   1,C   0,H  14)          109.7636         0.324783   
     37. A(H  14,C   0,H  15)          109.0717         0.284017   
     38. A(H  15,C   0,H  16)          108.2387         0.284155   
     39. A(C   1,C   0,H  15)          109.7174         0.324788   
     40. A(C   0,C   1,C  13)          119.5281         0.373138   
     41. A(C   2,C   1,C  13)          122.0007         0.412361   
     42. A(C   0,C   1,C   2)          118.4669         0.413429   
     43. A(C   3,C   2,H  17)          116.6573         0.329139   
     44. A(C   1,C   2,H  17)          118.8929         0.362566   
     45. A(C   1,C   2,C   3)          124.4264         0.413099   
     46. A(C   2,C   3,C   4)          110.7359         0.367864   
     47. A(C   4,C   3,H  19)          110.6427         0.319894   
     48. A(C   4,C   3,H  18)          109.1605         0.319871   
     49. A(C   2,C   3,H  19)          111.1551         0.324559   
     50. A(C   2,C   3,H  18)          108.1194         0.324535   
     51. A(H  18,C   3,H  19)          106.8987         0.284019   
     52. A(C   3,C   4,H  21)          109.7436         0.319918   
     53. A(C   5,C   4,H  20)          111.4367         0.323153   
     54. A(C   3,C   4,H  20)          109.9402         0.320015   
     55. A(C   3,C   4,C   5)          110.6515         0.366053   
     56. A(C   5,C   4,H  21)          109.0205         0.323053   
     57. A(H  20,C   4,H  21)          105.9290         0.284161   
     58. A(C   6,C   5,C  12)          118.4628         0.413346   
     59. A(C   4,C   5,C  12)          118.6405         0.372025   
     60. A(C   4,C   5,C   6)          122.8340         0.410813   
     61. A(C   5,C   6,C   7)          124.2811         0.414220   
     62. A(C   7,C   6,H  22)          116.8479         0.330120   
     63. A(C   5,C   6,H  22)          118.8698         0.362428   
     64. A(C   6,C   7,O   8)          109.6728         0.385405   
     65. A(H  23,C   7,H  24)          108.2421         0.283906   
     66. A(C   6,C   7,H  24)          110.4363         0.325494   
     67. A(O   8,C   7,H  23)          109.0887         0.333282   
     68. A(C   6,C   7,H  23)          108.8803         0.325360   
     69. A(O   8,C   7,H  24)          110.4791         0.333420   
     70. A(C   7,O   8,C   9)          122.6313         0.402149   
     71. A(O  10,C   9,C  11)          119.7098         0.431903   
     72. A(O   8,C   9,C  11)          119.5117         0.395191   
     73. A(O   8,C   9,O  10)          120.7443         0.447492   
     74. A(H  26,C  11,H  27)          109.3218         0.284207   
     75. A(H  25,C  11,H  27)          109.1772         0.284249   
     76. A(C   9,C  11,H  27)          109.4645         0.328178   
     77. A(H  25,C  11,H  26)          108.8195         0.284130   
     78. A(C   9,C  11,H  26)          110.0915         0.328033   
     79. A(C   9,C  11,H  25)          109.9463         0.328085   
     80. A(H  29,C  12,H  30)          109.2135         0.284042   
     81. A(H  28,C  12,H  30)          108.4893         0.284060   
     82. A(C   5,C  12,H  30)          109.7721         0.324894   
     83. A(H  28,C  12,H  29)          108.1677         0.284026   
     84. A(C   5,C  12,H  29)          109.8493         0.324853   
     85. A(C   5,C  12,H  28)          111.3017         0.324874   
     86. A(H  32,C  13,H  33)          109.5154         0.284401   
     87. A(H  31,C  13,H  33)          107.6914         0.284452   
     88. A(C   1,C  13,H  33)          110.4007         0.324345   
     89. A(H  31,C  13,H  32)          107.7392         0.284278   
     90. A(C   1,C  13,H  32)          109.9375         0.324136   
     91. A(C   1,C  13,H  31)          111.4819         0.324197   
     92. D(C   2,C   1,C   0,H  16)   -179.4688         0.012252   
     93. D(C  13,C   1,C   0,H  14)    119.8673         0.012252   
     94. D(C   2,C   1,C   0,H  15)     60.4460         0.012252   
     95. D(C   2,C   1,C   0,H  14)    -59.3953         0.012252   
     96. D(C  13,C   1,C   0,H  15)   -120.2913         0.012252   
     97. D(C   3,C   2,C   1,C  13)      2.5767         0.036681   
     98. D(H  17,C   2,C   1,C  13)   -179.2453         0.036681   
     99. D(C   3,C   2,C   1,C   0)   -178.1798         0.036681   
    100. D(H  17,C   2,C   1,C   0)     -0.0019         0.036681   
    101. D(H  19,C   3,C   2,C   1)    -34.9944         0.012147   
    102. D(H  18,C   3,C   2,H  17)     29.7530         0.012147   
    103. D(H  18,C   3,C   2,C   1)   -152.0320         0.012147   
    104. D(C   4,C   3,C   2,C   1)     88.4206         0.012147   
    105. D(C   4,C   3,C   2,H  17)    -89.7944         0.012147   
    106. D(C   5,C   4,C   3,C   2)   -179.0888         0.010974   
    107. D(H  20,C   4,C   3,H  19)   -178.8979         0.010974   
    108. D(H  20,C   4,C   3,H  18)    -61.5276         0.010974   
    109. D(H  20,C   4,C   3,C   2)     57.3922         0.010974   
    110. D(C   5,C   4,C   3,H  19)    -55.3789         0.010974   
    111. D(C   5,C   4,C   3,H  18)     61.9913         0.010974   
    112. D(C  12,C   5,C   4,H  20)   -151.7316         0.011498   
    113. D(C  12,C   5,C   4,C   3)     85.6169         0.011498   
    114. D(C   6,C   5,C   4,H  21)    147.7596         0.011498   
    115. D(C   6,C   5,C   4,H  20)     31.1941         0.011498   
    116. D(C   6,C   5,C   4,C   3)    -91.4575         0.011498   
    117. D(H  22,C   6,C   5,C  12)      0.7496         0.036482   
    118. D(H  22,C   6,C   5,C   4)    177.8289         0.036482   
    119. D(C   7,C   6,C   5,C  12)   -179.6762         0.036482   
    120. D(C   7,C   6,C   5,C   4)     -2.5968         0.036482   
    121. D(O   8,C   7,C   6,H  22)    108.4979         0.012569   
    122. D(O   8,C   7,C   6,C   5)    -71.0842         0.012569   
    123. D(H  24,C   7,C   6,C   5)     50.9026         0.012569   
    124. D(H  23,C   7,C   6,H  22)    -10.7981         0.012569   
    125. D(H  23,C   7,C   6,C   5)    169.6198         0.012569   
    126. D(C   9,O   8,C   7,H  24)     56.6666         0.019307   
    127. D(C   9,O   8,C   7,H  23)    -62.2043         0.019307   
    128. D(C   9,O   8,C   7,C   6)    178.6279         0.019307   
    129. D(C  11,C   9,O   8,C   7)    179.7340         0.021447   
    130. D(O  10,C   9,O   8,C   7)      1.8678         0.021447   
    131. D(H  27,C  11,C   9,O   8)    -95.2376         0.013754   
    132. D(H  26,C  11,C   9,O  10)    -37.5441         0.013754   
    133. D(H  26,C  11,C   9,O   8)    144.5674         0.013754   
    134. D(H  25,C  11,C   9,O  10)   -157.4221         0.013754   
    135. D(H  25,C  11,C   9,O   8)     24.6893         0.013754   
    136. D(H  30,C  12,C   5,C   4)    120.2203         0.012285   
    137. D(H  29,C  12,C   5,C   6)     57.5276         0.012285   
    138. D(H  29,C  12,C   5,C   4)   -119.6763         0.012285   
    139. D(H  28,C  12,C   5,C   6)    177.3003         0.012285   
    140. D(H  28,C  12,C   5,C   4)      0.0964         0.012285   
    141. D(H  33,C  13,C   1,C   0)    122.0552         0.011915   
    142. D(H  32,C  13,C   1,C   2)     62.2244         0.011915   
    143. D(H  32,C  13,C   1,C   0)   -117.0112         0.011915   
    144. D(H  31,C  13,C   1,C   2)   -178.3653         0.011915   
    145. D(H  31,C  13,C   1,C   0)      2.3990         0.011915   
    -----------------------------------------------------------------

Number of atoms                         .... 34
Number of degrees of freedom            .... 145


         *************************************************************
         *                GEOMETRY OPTIMIZATION CYCLE   1            *
         *************************************************************
---------------------------------
CARTESIAN COORDINATES (ANGSTROEM)
---------------------------------
  C     -3.837082   -1.366796    1.587311
  C     -3.105955   -0.470926    0.621009
  C     -2.001463   -0.950538    0.007482
  C     -1.147023   -0.159365   -0.950918
  C     -0.058246    0.611679   -0.197426
  C      0.785416    1.423749   -1.160246
  C      1.916910    0.946253   -1.725845
  C      2.503773   -0.406650   -1.433877
  O      3.049455   -0.418757   -0.118910
  C      3.639926   -1.554474    0.441400
  O      3.743804   -2.621388   -0.222911
  C      4.194970   -1.487591    1.823306
  C      0.310321    2.798029   -1.554437
  C     -3.630552    0.920342    0.352670
  H     -4.173652   -2.287354    1.064889
  H     -3.160428   -1.649673    2.421395
  H     -4.729304   -0.866763    2.018180
  H     -1.675578   -1.964069    0.229088
  H     -0.667860   -0.871881   -1.655510
  H     -1.765099    0.532261   -1.561730
  H      0.564392   -0.092359    0.393086
  H     -0.526297    1.297070    0.540376
  H      2.453388    1.571499   -2.435529
  H      3.314432   -0.612548   -2.165694
  H      1.730044   -1.196285   -1.540801
  H      3.688975   -0.682361    2.396118
  H      4.034563   -2.454114    2.346012
  H      5.282553   -1.272375    1.774961
  H     -0.650346    3.050684   -1.057741
  H      0.154230    2.842337   -2.653226
  H      1.067844    3.555585   -1.262085
  H     -4.525757    1.143094    0.969488
  H     -3.922580    1.015557   -0.714014
  H     -2.857776    1.678130    0.594261

----------------------------
CARTESIAN COORDINATES (A.U.)
----------------------------
  NO LB      ZA    FRAG     MASS         X           Y           Z
   0 C     4.0000*   0    12.011   -7.251034   -2.582870    2.999583
   1 C     4.0000*   0    12.011   -5.869404   -0.889921    1.173537
   2 C     4.0000*   0    12.011   -3.782217   -1.796256    0.014139
   3 C     4.0000*   0    12.011   -2.167559   -0.301156   -1.796975
   4 C     4.0000*   0    12.011   -0.110069    1.155906   -0.373081
   5 C     4.0000*   0    12.011    1.484221    2.690496   -2.192547
   6 C     4.0000*   0    12.011    3.622435    1.788159   -3.261374
   7 C     4.0000*   0    12.011    4.731445   -0.768457   -2.709635
   8 O     6.0000*   0    15.999    5.762635   -0.791336   -0.224707
   9 C     4.0000*   0    12.011    6.878463   -2.937530    0.834125
  10 O     6.0000*   0    15.999    7.074764   -4.953705   -0.421241
  11 C     4.0000*   0    12.011    7.927344   -2.811140    3.445549
  12 C     4.0000*   0    12.011    0.586422    5.287509   -2.937460
  13 C     4.0000*   0    12.011   -6.860749    1.739194    0.666450
  14 H     1.0000    0     1.008   -7.887059   -4.322473    2.012349
  15 H     1.0000    0     1.008   -5.972343   -3.117430    4.575773
  16 H     1.0000    0     1.008   -8.937089   -1.637945    3.813807
  17 H     1.0000    0     1.008   -3.166384   -3.711553    0.432914
  18 H     1.0000    0     1.008   -1.262072   -1.647616   -3.128461
  19 H     1.0000    0     1.008   -3.335554    1.005828   -2.951242
  20 H     1.0000    0     1.008    1.066546   -0.174533    0.742825
  21 H     1.0000    0     1.008   -0.994557    2.451107    1.021163
  22 H     1.0000    0     1.008    4.636231    2.969703   -4.602483
  23 H     1.0000    0     1.008    6.263369   -1.157548   -4.092569
  24 H     1.0000    0     1.008    3.269309   -2.260651   -2.911692
  25 H     1.0000    0     1.008    6.971152   -1.289475    4.528007
  26 H     1.0000    0     1.008    7.624219   -4.637603    4.433320
  27 H     1.0000    0     1.008    9.982578   -2.404440    3.354190
  28 H     1.0000    0     1.008   -1.228976    5.764957   -1.998841
  29 H     1.0000    0     1.008    0.291452    5.371239   -5.013871
  30 H     1.0000    0     1.008    2.017933    6.719082   -2.384995
  31 H     1.0000    0     1.008   -8.552441    2.160135    1.832067
  32 H     1.0000    0     1.008   -7.412602    1.919125   -1.349291
  33 H     1.0000    0     1.008   -5.400414    3.171206    1.122991
* core charge reduced due to ECP

--------------------------------
INTERNAL COORDINATES (ANGSTROEM)
--------------------------------
 C      0   0   0     0.000000000000     0.00000000     0.00000000
 C      1   0   0     1.506940377796     0.00000000     0.00000000
 C      2   1   0     1.351423556231   118.46688524     0.00000000
 C      3   2   1     1.508162123092   124.42637147   181.82018422
 C      4   3   2     1.532218783245   110.73592655    88.42062873
 C      5   4   3     1.515996572405   110.65147296   180.91119406
 C      6   5   4     1.352103298884   122.83404318   268.54251193
 C      7   6   5     1.503329644889   124.28109113   357.40315044
 O      8   7   6     1.423746338244   109.67279790   288.91577464
 C      9   8   7     1.397303260581   122.63129196   178.62787977
 O     10   9   8     1.261112694013   120.74434737     1.86777173
 C     10   9   8     1.490708345204   119.51165213   179.73395527
 C      6   5   4     1.506568060828   118.64051535    85.61688309
 C      2   1   3     1.510905185362   119.52813915   179.26263586
 H      1   2   3     1.110689489618   109.76355263   300.60467189
 H      1   2   3     1.110664734247   109.71744870    60.44601633
 H      1   2   3     1.109838363697   111.78578304   180.53115173
 H      3   2   1     1.087453603802   118.89291578     0.00000000
 H      4   3   2     1.110732243742   108.11941507   207.96798642
 H      4   3   2     1.110610537045   111.15506134   325.00562155
 H      5   4   3     1.109978381155   109.94020832    57.39223682
 H      5   4   3     1.110488339734   109.74364290   301.26334739
 H      7   6   5     1.087378767889   118.86976070   177.82892524
 H      8   7   6     1.111358682953   108.88033163   169.61982781
 H      8   7   6     1.110681205586   110.43626866    50.90264205
 H     12  10   9     1.110198126583   109.94629349    24.68932876
 H     12  10   9     1.110458768984   110.09151045   144.56740265
 H     12  10   9     1.109726068708   109.46447953   264.76236449
 H     13   6   5     1.110595583608   111.30169691     0.09641275
 H     13   6   5     1.110704670768   109.84930178   240.32374019
 H     13   6   5     1.110496231677   109.77214594   120.22029306
 H     14   2   1     1.109718383489   111.48194045     2.39903367
 H     14   2   1     1.110027479329   109.93754348   242.98881055
 H     14   2   1     1.108959697375   110.40065610   122.05518167

---------------------------
INTERNAL COORDINATES (A.U.)
---------------------------
 C      0   0   0     0.000000000000     0.00000000     0.00000000
 C      1   0   0     2.847704614183     0.00000000     0.00000000
 C      2   1   0     2.553820412207   118.46688524     0.00000000
 C      3   2   1     2.850013378197   124.42637147   181.82018422
 C      4   3   2     2.895473877583   110.73592655    88.42062873
 C      5   4   3     2.864818341809   110.65147296   180.91119406
 C      6   5   4     2.555104939662   122.83404318   268.54251193
 C      7   6   5     2.840881317845   124.28109113   357.40315044
 O      8   7   6     2.690490663454   109.67279790   288.91577464
 C      9   8   7     2.640520488533   122.63129196   178.62787977
 O     10   9   8     2.383157615696   120.74434737     1.86777173
 C     10   9   8     2.817030517987   119.51165213   179.73395527
 C      6   5   4     2.847001037077   118.64051535    85.61688309
 C      2   1   3     2.855197014656   119.52813915   179.26263586
 H      1   2   3     2.098898955203   109.76355263   300.60467189
 H      1   2   3     2.098852174332   109.71744870    60.44601633
 H      1   2   3     2.097290560307   111.78578304   180.53115173
 H      3   2   1     2.054989494532   118.89291578     0.00000000
 H      4   3   2     2.098979748789   108.11941507   207.96798642
 H      4   3   2     2.098749756463   111.15506134   325.00562155
 H      5   4   3     2.097555154957   109.94020832    57.39223682
 H      5   4   3     2.098518837011   109.74364290   301.26334739
 H      7   6   5     2.054848075151   118.86976070   177.82892524
 H      8   7   6     2.100163547336   108.88033163   169.61982781
 H      8   7   6     2.098883300651   110.43626866    50.90264205
 H     12  10   9     2.097970413635   109.94629349    24.68932876
 H     12  10   9     2.098462956392   110.09151045   144.56740265
 H     12  10   9     2.097078353531   109.46447953   264.76236449
 H     13   6   5     2.098721498562   111.30169691     0.09641275
 H     13   6   5     2.098927643419   109.84930178   240.32374019
 H     13   6   5     2.098533750621   109.77214594   120.22029306
 H     14   2   1     2.097063830572   111.48194045     2.39903367
 H     14   2   1     2.097647937058   109.93754348   242.98881055
 H     14   2   1     2.095630121594   110.40065610   122.05518167

---------------------
BASIS SET INFORMATION
---------------------
There are 3 groups of distinct atoms

 Group   1 Type C   : 6s6p2d contracted to 2s2p1d pattern {42/42/2}
 Group   2 Type O   : 6s6p2d contracted to 2s2p1d pattern {42/42/2}
 Group   3 Type H   : 8s2p contracted to 2s1p pattern {53/2}

Atom   0C    basis set group =>   1
Atom   1C    basis set group =>   1
Atom   2C    basis set group =>   1
Atom   3C    basis set group =>   1
Atom   4C    basis set group =>   1
Atom   5C    basis set group =>   1
Atom   6C    basis set group =>   1
Atom   7C    basis set group =>   1
Atom   8O    basis set group =>   2
Atom   9C    basis set group =>   1
Atom  10O    basis set group =>   2
Atom  11C    basis set group =>   1
Atom  12C    basis set group =>   1
Atom  13C    basis set group =>   1
Atom  14H    basis set group =>   3
Atom  15H    basis set group =>   3
Atom  16H    basis set group =>   3
Atom  17H    basis set group =>   3
Atom  18H    basis set group =>   3
Atom  19H    basis set group =>   3
Atom  20H    basis set group =>   3
Atom  21H    basis set group =>   3
Atom  22H    basis set group =>   3
Atom  23H    basis set group =>   3
Atom  24H    basis set group =>   3
Atom  25H    basis set group =>   3
Atom  26H    basis set group =>   3
Atom  27H    basis set group =>   3
Atom  28H    basis set group =>   3
Atom  29H    basis set group =>   3
Atom  30H    basis set group =>   3
Atom  31H    basis set group =>   3
Atom  32H    basis set group =>   3
Atom  33H    basis set group =>   3
---------------------------------
AUXILIARY/J BASIS SET INFORMATION
---------------------------------
There are 3 groups of distinct atoms

 Group   1 Type C   : 12s5p4d2f1g contracted to 6s4p3d1f1g pattern {711111/2111/211/2/1}
 Group   2 Type O   : 12s5p4d2f1g contracted to 6s4p3d1f1g pattern {711111/2111/211/2/1}
 Group   3 Type H   : 5s2p1d contracted to 3s1p1d pattern {311/2/1}

Atom   0C    basis set group =>   1
Atom   1C    basis set group =>   1
Atom   2C    basis set group =>   1
Atom   3C    basis set group =>   1
Atom   4C    basis set group =>   1
Atom   5C    basis set group =>   1
Atom   6C    basis set group =>   1
Atom   7C    basis set group =>   1
Atom   8O    basis set group =>   2
Atom   9C    basis set group =>   1
Atom  10O    basis set group =>   2
Atom  11C    basis set group =>   1
Atom  12C    basis set group =>   1
Atom  13C    basis set group =>   1
Atom  14H    basis set group =>   3
Atom  15H    basis set group =>   3
Atom  16H    basis set group =>   3
Atom  17H    basis set group =>   3
Atom  18H    basis set group =>   3
Atom  19H    basis set group =>   3
Atom  20H    basis set group =>   3
Atom  21H    basis set group =>   3
Atom  22H    basis set group =>   3
Atom  23H    basis set group =>   3
Atom  24H    basis set group =>   3
Atom  25H    basis set group =>   3
Atom  26H    basis set group =>   3
Atom  27H    basis set group =>   3
Atom  28H    basis set group =>   3
Atom  29H    basis set group =>   3
Atom  30H    basis set group =>   3
Atom  31H    basis set group =>   3
Atom  32H    basis set group =>   3
Atom  33H    basis set group =>   3
-------------------------
ECP PARAMETER INFORMATION
-------------------------

 Group 1, Type C  ECP vDZP-ECP (replacing 2 core electrons, lmax=3)
 Group 2, Type O  ECP vDZP-ECP (replacing 2 core electrons, lmax=3)

Atom   0C    ECP group =>   1
Atom   1C    ECP group =>   1
Atom   2C    ECP group =>   1
Atom   3C    ECP group =>   1
Atom   4C    ECP group =>   1
Atom   5C    ECP group =>   1
Atom   6C    ECP group =>   1
Atom   7C    ECP group =>   1
Atom   8O    ECP group =>   2
Atom   9C    ECP group =>   1
Atom  10O    ECP group =>   2
Atom  11C    ECP group =>   1
Atom  12C    ECP group =>   1
Atom  13C    ECP group =>   1



           ************************************************************
           *        Program running with 40 parallel MPI-processes    *
           *              working on a common directory               *
           ************************************************************
------------------------------------------------------------------------------
                             ORCA STARTUP CALCULATIONS
                           -- RI-GTO INTEGRALS CHOSEN --
------------------------------------------------------------------------------
------------------------------------------------------------------------------
                   ___                                                        
                  /   \      - P O W E R E D   B Y -                         
                 /     \                                                     
                 |  |  |   _    _      __       _____    __    __             
                 |  |  |  | |  | |    /  \     |  _  \  |  |  /  |          
                  \  \/   | |  | |   /    \    | | | |  |  | /  /          
                 / \  \   | |__| |  /  /\  \   | |_| |  |  |/  /          
                |  |  |   |  __  | /  /__\  \  |    /   |      \           
                |  |  |   | |  | | |   __   |  |    \   |  |\   \          
                \     /   | |  | | |  |  |  |  | |\  \  |  | \   \       
                 \___/    |_|  |_| |__|  |__|  |_| \__\ |__|  \__/        
                                                                              
                      - O R C A' S   B I G   F R I E N D -                    
                                      &                                       
                       - I N T E G R A L  F E E D E R -                       
                                                                              
 v1 FN, 2020, v2 2021, v3 2022-2024                                           
------------------------------------------------------------------------------


----------------------
SHARK INTEGRAL PACKAGE
----------------------

Number of atoms                             ...     34
Number of basis functions                   ...    282
Number of shells                            ...    130
Maximum angular momentum                    ...      2
Integral batch strategy                     ... SHARK/LIBINT Hybrid
RI-J (if used) integral strategy            ... SPLIT-RIJ (Revised 2003 algorithm where possible)
Printlevel                                  ...      1
Contraction scheme used                     ... SEGMENTED contraction
Prescreening option                         ... SCHWARTZ
   Thresh                                   ... 2.500e-11
   Tcut                                     ... 2.500e-12
   Tpresel                                  ... 2.500e-12 
Coulomb Range Separation                    ... NOT USED
Exchange Range Separation                   ... Long Range
   Mu parameter                             ... 3.000e-01
   Scaling (regular/separated)              ... 1.670e-01 8.330e-01
Multipole approximations                    ... NOT USED
Finite Nucleus Model                        ... NOT USED
CABS basis                                  ... NOT available
Auxiliary Coulomb fitting basis             ... AVAILABLE
   # of basis functions in Aux-J            ...    906
   # of shells in Aux-J                     ...    310
   Maximum angular momentum in Aux-J        ...      4
Auxiliary J/K fitting basis                 ... NOT available
Auxiliary Correlation fitting basis         ... NOT available
Auxiliary 'external' fitting basis          ... NOT available

Checking pre-screening integrals            ... done (  0.0 sec) Dimension = 130
Check shell pair data                       ... done (  0.0 sec)
Shell pair information
Shell pair cut-off parameter TPreSel        ...   2.5e-12
Total number of shell pairs                 ...      8515
Shell pairs after pre-screening             ...      8176
Total number of primitive shell pairs       ...     79096
Primitive shell pairs kept                  ...     55688
          la=0 lb=0:   2302 shell pairs
          la=1 lb=0:   3137 shell pairs
          la=1 lb=1:   1075 shell pairs
          la=2 lb=0:    929 shell pairs
          la=2 lb=1:    630 shell pairs
          la=2 lb=2:    103 shell pairs

Calculating one electron integrals          ... done (  0.0 sec)
Calculating ECP integrals                   ... done (  0.2 sec)
Calculating RI/J V-Matrix + Cholesky decomp.... done (  0.0 sec)
Calculating Nuclear repulsion               ... done (  0.0 sec) ENN=    476.750024761696 Eh

Diagonalization of the overlap matrix:
Smallest eigenvalue                        ... 1.110e-03
Time for diagonalization                   ...    0.011 sec
Threshold for overlap eigenvalues          ... 1.000e-07
Number of eigenvalues below threshold      ... 0
Time for construction of square roots      ...    0.005 sec
Total time needed                          ...    0.020 sec

-------------------
DFT GRID GENERATION
-------------------

General Integration Accuracy     IntAcc      ... 4.388
Radial Grid Type                 RadialGrid  ... OptM3 with GC (2021)
Angular Grid (max. ang.)         AngularGrid ... 4 (Lebedev-302)
Angular grid pruning method      GridPruning ... 4 (adaptive)
Weight generation scheme         WeightScheme... mBecke (2022)
Basis function cutoff            BFCut       ... 1.0000e-11
Integration weight cutoff        WCut        ... 1.0000e-14
Partially contracted basis set               ... off
Rotationally invariant grid construction     ... off
Angular grids for H and He will be reduced by one unit

Total number of grid points                  ...   147950
Total number of batches                      ...     2330
Average number of points per batch           ...       63
Average number of grid points per atom       ...     4351

--------------------
COSX GRID GENERATION
--------------------

GRIDX 1
-------
General Integration Accuracy     IntAcc      ... 3.816
Radial Grid Type                 RadialGrid  ... OptM3 with GC (2021)
Angular Grid (max. ang.)         AngularGrid ... 1 (Lebedev-50)
Angular grid pruning method      GridPruning ... 4 (adaptive)
Weight generation scheme         WeightScheme... mBecke (2022)
Basis function cutoff            BFCut       ... 1.0000e-11
Integration weight cutoff        WCut        ... 1.0000e-14
Partially contracted basis set               ... on
Rotationally invariant grid construction     ... off
Angular grids for H and He will be reduced by one unit

Total number of grid points                  ...    18859
Total number of batches                      ...      170
Average number of points per batch           ...      110
Average number of grid points per atom       ...      555
UseSFitting                                  ... on

GRIDX 2
-------
General Integration Accuracy     IntAcc      ... 4.020
Radial Grid Type                 RadialGrid  ... OptM3 with GC (2021)
Angular Grid (max. ang.)         AngularGrid ... 2 (Lebedev-110)
Angular grid pruning method      GridPruning ... 4 (adaptive)
Weight generation scheme         WeightScheme... mBecke (2022)
Basis function cutoff            BFCut       ... 1.0000e-11
Integration weight cutoff        WCut        ... 1.0000e-14
Partially contracted basis set               ... on
Rotationally invariant grid construction     ... off
Angular grids for H and He will be reduced by one unit

Total number of grid points                  ...    39697
Total number of batches                      ...      328
Average number of points per batch           ...      121
Average number of grid points per atom       ...     1168
UseSFitting                                  ... on

GRIDX 3
-------
General Integration Accuracy     IntAcc      ... 4.338
Radial Grid Type                 RadialGrid  ... OptM3 with GC (2021)
Angular Grid (max. ang.)         AngularGrid ... 3 (Lebedev-194)
Angular grid pruning method      GridPruning ... 4 (adaptive)
Weight generation scheme         WeightScheme... mBecke (2022)
Basis function cutoff            BFCut       ... 1.0000e-11
Integration weight cutoff        WCut        ... 1.0000e-14
Partially contracted basis set               ... on
Rotationally invariant grid construction     ... off
Angular grids for H and He will be reduced by one unit

Total number of grid points                  ...    86489
Total number of batches                      ...      692
Average number of points per batch           ...      124
Average number of grid points per atom       ...     2544
UseSFitting                                  ... on
Initializing property integral containers    ... done (  0.0 sec)

SHARK setup successfully completed in   4.8 seconds

Maximum memory used throughout the entire STARTUP-calculation: 45.6 MB


           ************************************************************
           *        Program running with 40 parallel MPI-processes    *
           *              working on a common directory               *
           ************************************************************
-------------------------------------------------------------------------------
                                 ORCA GUESS
                   Start orbitals & Density for SCF / CASSCF
-------------------------------------------------------------------------------

------------
SCF SETTINGS
------------
Hamiltonian:
 Density Functional     Method          .... DFT(GTOs)
 Exchange Functional    Exchange        .... WB97X-V
 Correlation Functional Correlation     .... WB97X-V
 Gradients option       PostSCFGGA      .... off
 Hybrid DFT is turned on
   Fraction HF Exchange ScalHFX         ....  0.167000
   Scaling of DF-GGA-X  ScalDFX         ....  0.000000
   Scaling of DF-GGA-C  ScalDFC         ....  1.000000
   Scaling of DF-LDA-C  ScalLDAC        ....  1.000000
   Perturbative correction              ....  0.000000
 Long-range corrected/Screened/Range-Separated Hybrid DFT is turned on
   Amount of maximum screened exact exchange              ....  0.833000
   Range separation parameter mu (erf(mu*r12)/r12)        ....  0.300000
   NL short-range parameter             ....  6.000000
   NL long-range parameter              ....  0.010000
 RI-approximation to the Coulomb term is turned on
   Number of AuxJ basis functions       .... 906
   RIJ-COSX (HFX calculated with COS-X)).... on


General Settings:
 Integral files         IntName         .... ./output/geranyl_acetate/geranyl_acetate
 Hartree-Fock type      HFTyp           .... RHF
 Total Charge           Charge          ....    0
 Multiplicity           Mult            ....    1
 Number of Electrons    NEL             ....   80
 Basis Dimension        Dim             ....  282
 Nuclear Repulsion      ENuc            ....    476.7500247617 Eh

Convergence Acceleration:
 AO-DIIS                CNVDIIS         .... on
   Start iteration      DIISMaxIt       ....    12
   Startup error        DIISStart       ....  0.200000
   # of expansion vecs  DIISMaxEq       ....     5
   Bias factor          DIISBfac        ....   1.050
   Max. coefficient     DIISMaxC        ....  10.000
 MO-DIIS                CNVKDIIS        .... off
 Trust-Rad. Augm. Hess. CNVTRAH         .... auto
   Auto Start mean grad. ratio tolernc. ....  1.125000
   Auto Start start iteration           ....    50
   Auto Start num. interpolation iter.  ....    10
   Max. Number of Micro iterations      ....    24
   Max. Number of Macro iterations      .... Maxiter - #DIIS iter
   Number of Davidson start vectors     ....     2
   Converg. threshold    (grad. norm)   ....   1.000e-05
   Grad. Scal. Fac. for Micro threshold ....   0.100
   Minimum threshold for Micro iter.    ....   1.000e-02
   NR start threshold (gradient norm)   ....   1.000e-04
   Initial trust radius                 ....   0.400
   Minimum AH scaling param. (alpha)    ....   1.000
   Maximum AH scaling param. (alpha)    .... 1000.000
   Quad. conv. algorithm                .... NR
   White noise on init. David. guess    .... on
   Maximum white noise                  ....   0.010
   Pseudo random numbers                .... off
   Inactive MOs                         .... canonical
   Orbital update algorithm             .... Taylor
   Preconditioner                       .... Diag
   Full preconditioner red. dimension   ....   250
 SOSCF                  CNVSOSCF        .... on
   Start iteration      SOSCFMaxIt      ....   150
   Startup grad/error   SOSCFStart      ....  0.003300
   Hessian update       SOSCFHessUp     .... L-BFGS
 Level Shifting         CNVShift        .... on
   Level shift para.    LevelShift      ....    0.2500
   Turn off err/grad.   ShiftErr        ....    0.0010
 Zerner damping         CNVZerner       .... off
 Static damping         CNVDamp         .... on
   Fraction old density DampFac         ....    0.7000
   Max. Damping (<1)    DampMax         ....    0.9800
   Min. Damping (>=0)   DampMin         ....    0.0000
   Turn off err/grad.   DampErr         ....    0.1000

SCF Procedure:
 Maximum # iterations   MaxIter         ....   125
 SCF integral mode      SCFMode         .... Direct
   Integral package                     .... SHARK and LIBINT hybrid scheme
 Reset frequency        DirectResetFreq ....    20
 Integral Threshold     Thresh          ....  2.500e-11 Eh
 Primitive CutOff       TCut            ....  2.500e-12 Eh

Convergence Tolerance:
 Convergence Check Mode ConvCheckMode   .... Total+1el-Energy
 Convergence forced     ConvForced      .... 0
 Energy Change          TolE            ....  1.000e-08 Eh
 1-El. energy change                    ....  1.000e-05 Eh
 Orbital Gradient       TolG            ....  1.000e-05
 Orbital Rotation angle TolX            ....  1.000e-05
 DIIS Error             TolErr          ....  5.000e-07

------------------------------
INITIAL GUESS: MODEL POTENTIAL
------------------------------
Loading Hartree-Fock densities                     ... done
Atomic calculation to generate a density for atom 0 (C  with ECP)
  Multiplicity assumed   :    1
  Atomic configuration   : 1s2 2s2 2p2 
  Number of open shells  : 1
  Command: /home/aspe232/Project/Software/ORCA/6_0_1/build/orca ./output/geranyl_acetate/geranyl_acetate_atom6.inp "" > ./output/geranyl_acetate/geranyl_acetate_atom6.out
Returned from the atomic calculation with res=0
Atomic calculation to generate a density for atom 8 (O  with ECP)
  Multiplicity assumed   :    3
  Atomic configuration   : 1s2 2s2 2p4 
  Number of open shells  : 1
  Command: /home/aspe232/Project/Software/ORCA/6_0_1/build/orca ./output/geranyl_acetate/geranyl_acetate_atom8.inp "" > ./output/geranyl_acetate/geranyl_acetate_atom8.out
Returned from the atomic calculation with res=0
Calculating cut-offs                               ... done
Initializing the effective Hamiltonian             ... done
Setting up the integral package (SHARK)            ... done
Starting the Coulomb interaction                   ... done (   0.1 sec)
Making the grid                                    ... done (   1.0 sec)
Mapping shells                                     ... done
Starting the XC term evaluation                    ... done (   0.0 sec)
  promolecular density results
     # of electrons  =    107.994930035
     EX              =    -55.770096494
     EC              =     -4.359955496
     EX+EC           =    -60.130051990
Transforming the Hamiltonian                       ... done (   0.0 sec)
Diagonalizing the Hamiltonian                      ... done (   0.0 sec)
Back transforming the eigenvectors                 ... done (   0.0 sec)
Now organizing SCF variables                       ... done
                      ------------------
                      INITIAL GUESS DONE (   2.3 sec)
                      ------------------
             **** ENERGY FILE WAS UPDATED (./output/geranyl_acetate/geranyl_acetate.en.tmp) ****
Finished Guess after   3.0 sec
Maximum memory used throughout the entire GUESS-calculation: 28.7 MB


           ************************************************************
           *        Program running with 40 parallel MPI-processes    *
           *              working on a common directory               *
           ************************************************************

-------------------------------------------------------------------------------------------
                                      ORCA LEAN-SCF
                              memory conserving SCF solver
-------------------------------------------------------------------------------------------

----------------------------------------D-I-I-S--------------------------------------------
Iteration    Energy (Eh)           Delta-E    RMSDP     MaxDP     DIISErr   Damp  Time(sec)
-------------------------------------------------------------------------------------------
               ***  Starting incremental Fock matrix formation  ***
    1    -111.9039533765619581     0.00e+00  3.32e-03  9.13e-02  2.09e-01  0.700   6.7
    2    -112.1324505087919761    -2.28e-01  2.41e-03  5.96e-02  1.09e-01  0.700   5.1
                               ***Turning on AO-DIIS***
    3    -112.2512155796024444    -1.19e-01  1.25e-03  2.86e-02  5.89e-02  0.700   4.3
    4    -112.3215056835375663    -7.03e-02  2.62e-03  5.77e-02  3.72e-02  0.000   4.1
    5    -112.4702345619913331    -1.49e-01  2.40e-04  1.19e-02  9.89e-03  0.000   5.2
    6    -112.4706838944165384    -4.49e-04  1.12e-04  7.60e-03  6.31e-03  0.000   4.2
                              *** Initializing SOSCF ***
---------------------------------------S-O-S-C-F--------------------------------------
Iteration    Energy (Eh)           Delta-E    RMSDP     MaxDP     MaxGrad    Time(sec)
--------------------------------------------------------------------------------------
    7    -112.4708152344700238    -1.31e-04  5.94e-05  2.59e-03  1.95e-03     3.9
               *** Restarting incremental Fock matrix formation ***
    8    -112.4708912375498358    -7.60e-05  3.14e-05  1.27e-03  2.53e-04     5.9
    9    -112.4708966178143328    -5.38e-06  2.55e-05  1.22e-03  4.39e-04     5.1
   10    -112.4708985878381782    -1.97e-06  8.16e-06  3.40e-04  1.33e-04     5.4
   11    -112.4708988958548161    -3.08e-07  3.21e-06  9.39e-05  3.01e-05     4.6
   12    -112.4708989238182539    -2.80e-08  1.43e-06  6.71e-05  1.56e-05     4.5
   13    -112.4708989465374316    -2.27e-08  3.45e-07  1.35e-05  2.61e-06     4.2
   14    -112.4708989532678061    -6.73e-09  1.54e-07  4.07e-06  1.11e-06     4.3
                 **** Energy Check signals convergence ****

               *****************************************************
               *                     SUCCESS                       *
               *           SCF CONVERGED AFTER  14 CYCLES          *
               *****************************************************

Recomputing exchange energy using gridx3       ... done (    6.325 sec)
Old exchange energy                            :    -15.481861813 Eh
New exchange energy                            :    -15.481802882 Eh
Exchange energy change after final integration :      0.000058931 Eh
Total energy after final integration           :   -112.470840022 Eh
             **** ENERGY FILE WAS UPDATED (./output/geranyl_acetate/geranyl_acetate.en.tmp) ****

----------------
TOTAL SCF ENERGY
----------------

Total Energy       :       -112.47084002202251 Eh           -3060.48715 eV

Components:
Nuclear Repulsion  :        476.75002476169573 Eh           12973.02771 eV
Electronic Energy  :       -589.22092371496353 Eh          -16033.51646 eV
One Electron Energy:      -1117.22491082149418 Eh          -30401.23539 eV
Two Electron Energy:        528.00398710653064 Eh           14367.71893 eV

Virial components:
Potential Energy   :       -199.89522989698179 Eh           -5439.42574 eV
Kinetic Energy     :         87.42438987495929 Eh            2378.93859 eV
Virial Ratio       :          2.28649270738848

DFT components:
N(Alpha)           :       39.999851293406 electrons
N(Beta)            :       39.999851293406 electrons
N(Total)           :       79.999702586812 electrons
E(X)               :      -16.788002742579 Eh       
E(C)               :       -3.014124572528 Eh       
E(XC)              :      -19.802127315107 Eh       

---------------
SCF CONVERGENCE
---------------

  Last Energy change         ...    6.7304e-09  Tolerance :   1.0000e-08
  Last MAX-Density change    ...    4.0684e-06  Tolerance :   1.0000e-07
  Last RMS-Density change    ...    1.5419e-07  Tolerance :   5.0000e-09
  Last DIIS Error            ...    1.9536e-03  Tolerance :   5.0000e-07
  Last Orbital Gradient      ...    1.1090e-06  Tolerance :   1.0000e-05
  Last Orbital Rotation      ...    2.2649e-06  Tolerance :   1.0000e-05


----------------
ORBITAL ENERGIES
----------------

  NO   OCC          E(Eh)            E(eV) 
   0   2.0000      -1.209686       -32.9172 
   1   2.0000      -1.117910       -30.4199 
   2   2.0000      -0.972974       -26.4760 
   3   2.0000      -0.950222       -25.8569 
   4   2.0000      -0.909160       -24.7395 
   5   2.0000      -0.889185       -24.1960 
   6   2.0000      -0.861549       -23.4439 
   7   2.0000      -0.828305       -22.5393 
   8   2.0000      -0.811532       -22.0829 
   9   2.0000      -0.778214       -21.1763 
  10   2.0000      -0.738186       -20.0871 
  11   2.0000      -0.691348       -18.8125 
  12   2.0000      -0.645915       -17.5762 
  13   2.0000      -0.636044       -17.3076 
  14   2.0000      -0.615899       -16.7595 
  15   2.0000      -0.609129       -16.5752 
  16   2.0000      -0.587346       -15.9825 
  17   2.0000      -0.585839       -15.9415 
  18   2.0000      -0.566319       -15.4103 
  19   2.0000      -0.556580       -15.1453 
  20   2.0000      -0.547813       -14.9067 
  21   2.0000      -0.543232       -14.7821 
  22   2.0000      -0.533138       -14.5074 
  23   2.0000      -0.529870       -14.4185 
  24   2.0000      -0.521425       -14.1887 
  25   2.0000      -0.506751       -13.7894 
  26   2.0000      -0.505559       -13.7570 
  27   2.0000      -0.491712       -13.3802 
  28   2.0000      -0.487548       -13.2669 
  29   2.0000      -0.480658       -13.0794 
  30   2.0000      -0.476869       -12.9763 
  31   2.0000      -0.466428       -12.6922 
  32   2.0000      -0.458103       -12.4656 
  33   2.0000      -0.443357       -12.0644 
  34   2.0000      -0.436671       -11.8824 
  35   2.0000      -0.422007       -11.4834 
  36   2.0000      -0.402121       -10.9423 
  37   2.0000      -0.382897       -10.4191 
  38   2.0000      -0.344723        -9.3804 
  39   2.0000      -0.324731        -8.8364 
  40   0.0000       0.064167         1.7461 
  41   0.0000       0.073738         2.0065 
  42   0.0000       0.075841         2.0637 
  43   0.0000       0.085054         2.3144 
  44   0.0000       0.091730         2.4961 
  45   0.0000       0.094537         2.5725 
  46   0.0000       0.101502         2.7620 
  47   0.0000       0.111166         3.0250 
  48   0.0000       0.117950         3.2096 
  49   0.0000       0.126444         3.4407 
  50   0.0000       0.131131         3.5682 
*Only the first 10 virtual orbitals were printed.

                    ********************************
                    * MULLIKEN POPULATION ANALYSIS *
                    ********************************

-----------------------
MULLIKEN ATOMIC CHARGES
-----------------------
   0 C :   -0.094640
   1 C :   -0.069278
   2 C :   -0.029644
   3 C :   -0.074981
   4 C :   -0.057713
   5 C :   -0.058782
   6 C :    0.015226
   7 C :    0.057838
   8 O :   -0.294068
   9 C :    0.268564
  10 O :   -0.362227
  11 C :   -0.084989
  12 C :   -0.091668
  13 C :   -0.091130
  14 H :    0.056843
  15 H :    0.055207
  16 H :    0.033721
  17 H :    0.014862
  18 H :    0.046065
  19 H :    0.035889
  20 H :    0.058756
  21 H :    0.040876
  22 H :    0.014302
  23 H :    0.058967
  24 H :    0.047796
  25 H :    0.059542
  26 H :    0.078399
  27 H :    0.077125
  28 H :    0.029523
  29 H :    0.059110
  30 H :    0.064015
  31 H :    0.036464
  32 H :    0.059121
  33 H :    0.040906
Sum of atomic charges:    0.0000000

--------------------------------
MULLIKEN REDUCED ORBITAL CHARGES
--------------------------------
  0 C s       :     0.959934  s :     0.959934
      pz      :     1.013480  p :     3.061010
      px      :     1.028772
      py      :     1.018758
      dz2     :     0.012245  d :     0.073696
      dxz     :     0.019034
      dyz     :     0.015640
      dx2y2   :     0.011420
      dxy     :     0.015356

  1 C s       :     1.100160  s :     1.100160
      pz      :     0.944652  p :     2.850828
      px      :     0.979370
      py      :     0.926805
      dz2     :     0.020803  d :     0.118289
      dxz     :     0.017810
      dyz     :     0.022313
      dx2y2   :     0.029248
      dxy     :     0.028115

  2 C s       :     1.033434  s :     1.033434
      pz      :     0.971834  p :     2.905367
      px      :     0.961151
      py      :     0.972381
      dz2     :     0.017692  d :     0.090843
      dxz     :     0.016488
      dyz     :     0.013631
      dx2y2   :     0.023167
      dxy     :     0.019865

  3 C s       :     0.995794  s :     0.995794
      pz      :     1.001964  p :     2.976755
      px      :     0.963913
      py      :     1.010879
      dz2     :     0.013300  d :     0.102432
      dxz     :     0.024246
      dyz     :     0.026792
      dx2y2   :     0.012630
      dxy     :     0.025464

  4 C s       :     0.991839  s :     0.991839
      pz      :     0.994938  p :     2.965884
      px      :     0.961516
      py      :     1.009430
      dz2     :     0.012357  d :     0.099990
      dxz     :     0.024109
      dyz     :     0.026748
      dx2y2   :     0.012456
      dxy     :     0.024320

  5 C s       :     1.102311  s :     1.102311
      pz      :     0.951647  p :     2.836002
      px      :     0.959339
      py      :     0.925017
      dz2     :     0.020415  d :     0.120468
      dxz     :     0.019488
      dyz     :     0.022437
      dx2y2   :     0.029922
      dxy     :     0.028207

  6 C s       :     1.014259  s :     1.014259
      pz      :     1.017442  p :     2.886146
      px      :     0.968395
      py      :     0.900309
      dz2     :     0.010544  d :     0.084370
      dxz     :     0.013471
      dyz     :     0.013882
      dx2y2   :     0.020852
      dxy     :     0.025621

  7 C s       :     1.033526  s :     1.033526
      pz      :     0.743156  p :     2.768223
      px      :     1.003300
      py      :     1.021767
      dz2     :     0.033900  d :     0.140414
      dxz     :     0.036870
      dyz     :     0.025824
      dx2y2   :     0.017380
      dxy     :     0.026440

  8 O s       :     1.696504  s :     1.696504
      pz      :     1.396570  p :     4.560654
      px      :     1.644492
      py      :     1.519592
      dz2     :     0.010093  d :     0.036910
      dxz     :     0.005658
      dyz     :     0.007892
      dx2y2   :     0.006145
      dxy     :     0.007122

  9 C s       :     1.150488  s :     1.150488
      pz      :     0.863120  p :     2.335493
      px      :     0.737745
      py      :     0.734627
      dz2     :     0.059262  d :     0.245455
      dxz     :     0.026124
      dyz     :     0.061409
      dx2y2   :     0.042950
      dxy     :     0.055709

 10 O s       :     1.795079  s :     1.795079
      pz      :     1.635314  p :     4.533632
      px      :     1.501956
      py      :     1.396362
      dz2     :     0.004983  d :     0.033515
      dxz     :     0.003545
      dyz     :     0.009593
      dx2y2   :     0.007314
      dxy     :     0.008080

 11 C s       :     0.962144  s :     0.962144
      pz      :     0.928697  p :     3.059631
      px      :     1.048815
      py      :     1.082119
      dz2     :     0.015444  d :     0.063215
      dxz     :     0.011277
      dyz     :     0.015566
      dx2y2   :     0.013724
      dxy     :     0.007203

 12 C s       :     0.957863  s :     0.957863
      pz      :     1.047761  p :     3.061472
      px      :     1.038243
      py      :     0.975468
      dz2     :     0.017683  d :     0.072334
      dxz     :     0.009758
      dyz     :     0.010872
      dx2y2   :     0.015340
      dxy     :     0.018681

 13 C s       :     0.955381  s :     0.955381
      pz      :     1.051875  p :     3.062526
      px      :     1.037624
      py      :     0.973027
      dz2     :     0.015559  d :     0.073223
      dxz     :     0.013075
      dyz     :     0.010652
      dx2y2   :     0.014248
      dxy     :     0.019688

 14 H s       :     0.899107  s :     0.899107
      pz      :     0.012936  p :     0.044050
      px      :     0.011404
      py      :     0.019711

 15 H s       :     0.900814  s :     0.900814
      pz      :     0.017941  p :     0.043979
      px      :     0.014811
      py      :     0.011228

 16 H s       :     0.922131  s :     0.922131
      pz      :     0.012528  p :     0.044148
      px      :     0.019150
      py      :     0.012470

 17 H s       :     0.936761  s :     0.936761
      pz      :     0.012819  p :     0.048376
      px      :     0.012096
      py      :     0.023461

 18 H s       :     0.911084  s :     0.911084
      pz      :     0.015489  p :     0.042851
      px      :     0.012419
      py      :     0.014942

 19 H s       :     0.920632  s :     0.920632
      pz      :     0.013890  p :     0.043478
      px      :     0.014516
      py      :     0.015072

 20 H s       :     0.897590  s :     0.897590
      pz      :     0.013580  p :     0.043653
      px      :     0.014755
      py      :     0.015318

 21 H s       :     0.915749  s :     0.915749
      pz      :     0.015931  p :     0.043375
      px      :     0.012916
      py      :     0.014528

 22 H s       :     0.935874  s :     0.935874
      pz      :     0.019027  p :     0.049824
      px      :     0.015017
      py      :     0.015780

 23 H s       :     0.901046  s :     0.901046
      pz      :     0.012666  p :     0.039987
      px      :     0.016857
      py      :     0.010464

 24 H s       :     0.911282  s :     0.911282
      pz      :     0.006034  p :     0.040922
      px      :     0.016940
      py      :     0.017948

 25 H s       :     0.896278  s :     0.896278
      pz      :     0.013590  p :     0.044180
      px      :     0.012696
      py      :     0.017895

 26 H s       :     0.877514  s :     0.877514
      pz      :     0.012310  p :     0.044087
      px      :     0.010124
      py      :     0.021653

 27 H s       :     0.877078  s :     0.877078
      pz      :     0.010213  p :     0.045798
      px      :     0.024329
      py      :     0.011255

 28 H s       :     0.926512  s :     0.926512
      pz      :     0.012960  p :     0.043965
      px      :     0.020315
      py      :     0.010691

 29 H s       :     0.896888  s :     0.896888
      pz      :     0.023551  p :     0.044002
      px      :     0.010488
      py      :     0.009963

 30 H s       :     0.891796  s :     0.891796
      pz      :     0.011099  p :     0.044189
      px      :     0.016277
      py      :     0.016812

 31 H s       :     0.919301  s :     0.919301
      pz      :     0.014280  p :     0.044235
      px      :     0.019139
      py      :     0.010816

 32 H s       :     0.896284  s :     0.896284
      pz      :     0.022734  p :     0.044595
      px      :     0.011386
      py      :     0.010476

 33 H s       :     0.914173  s :     0.914173
      pz      :     0.011114  p :     0.044921
      px      :     0.016914
      py      :     0.016893



                     *******************************
                     * LOEWDIN POPULATION ANALYSIS *
                     *******************************

----------------------
LOEWDIN ATOMIC CHARGES
----------------------
   0 C :   -0.119708
   1 C :   -0.051897
   2 C :   -0.055625
   3 C :   -0.088394
   4 C :   -0.079046
   5 C :   -0.022329
   6 C :   -0.060783
   7 C :   -0.042659
   8 O :   -0.050530
   9 C :    0.020166
  10 O :   -0.203438
  11 C :   -0.092992
  12 C :   -0.113731
  13 C :   -0.116810
  14 H :    0.055497
  15 H :    0.054560
  16 H :    0.047555
  17 H :    0.037050
  18 H :    0.051715
  19 H :    0.049044
  20 H :    0.054262
  21 H :    0.051109
  22 H :    0.037021
  23 H :    0.058827
  24 H :    0.052075
  25 H :    0.062623
  26 H :    0.075744
  27 H :    0.072820
  28 H :    0.049204
  29 H :    0.056453
  30 H :    0.058636
  31 H :    0.050804
  32 H :    0.054254
  33 H :    0.048522

-------------------------------
LOEWDIN REDUCED ORBITAL CHARGES
-------------------------------
  0 C s       :     0.778329  s :     0.778329
      pz      :     1.028237  p :     3.103850
      px      :     1.041392
      py      :     1.034221
      dz2     :     0.036354  d :     0.237529
      dxz     :     0.063558
      dyz     :     0.051048
      dx2y2   :     0.038724
      dxy     :     0.047844

  1 C s       :     0.801834  s :     0.801834
      pz      :     0.927974  p :     2.874587
      px      :     0.984837
      py      :     0.961776
      dz2     :     0.063804  d :     0.375476
      dxz     :     0.060225
      dyz     :     0.069104
      dx2y2   :     0.089635
      dxy     :     0.092709

  2 C s       :     0.805350  s :     0.805350
      pz      :     0.947215  p :     2.952752
      px      :     0.989385
      py      :     1.016153
      dz2     :     0.055536  d :     0.297523
      dxz     :     0.059682
      dyz     :     0.039999
      dx2y2   :     0.074433
      dxy     :     0.067873

  3 C s       :     0.760968  s :     0.760968
      pz      :     1.005725  p :     3.005031
      px      :     0.984877
      py      :     1.014429
      dz2     :     0.038202  d :     0.322394
      dxz     :     0.076676
      dyz     :     0.087736
      dx2y2   :     0.041571
      dxy     :     0.078209

  4 C s       :     0.761819  s :     0.761819
      pz      :     1.001352  p :     3.001627
      px      :     0.985168
      py      :     1.015107
      dz2     :     0.035746  d :     0.315600
      dxz     :     0.075669
      dyz     :     0.088432
      dx2y2   :     0.040031
      dxy     :     0.075722

  5 C s       :     0.802627  s :     0.802627
      pz      :     0.905263  p :     2.842268
      px      :     0.981522
      py      :     0.955483
      dz2     :     0.060695  d :     0.377434
      dxz     :     0.065735
      dyz     :     0.067794
      dx2y2   :     0.091380
      dxy     :     0.091830

  6 C s       :     0.806677  s :     0.806677
      pz      :     0.993009  p :     2.970051
      px      :     1.009551
      py      :     0.967492
      dz2     :     0.031979  d :     0.284054
      dxz     :     0.048796
      dyz     :     0.046992
      dx2y2   :     0.066642
      dxy     :     0.089645

  7 C s       :     0.765247  s :     0.765247
      pz      :     0.803319  p :     2.860026
      px      :     1.024643
      py      :     1.032064
      dz2     :     0.106575  d :     0.417386
      dxz     :     0.109329
      dyz     :     0.070267
      dx2y2   :     0.048738
      dxy     :     0.082476

  8 O s       :     1.401369  s :     1.401369
      pz      :     1.419870  p :     4.548748
      px      :     1.583412
      py      :     1.545466
      dz2     :     0.025696  d :     0.100413
      dxz     :     0.019422
      dyz     :     0.025251
      dx2y2   :     0.013587
      dxy     :     0.016457

  9 C s       :     0.787057  s :     0.787057
      pz      :     0.931088  p :     2.523209
      px      :     0.733411
      py      :     0.858709
      dz2     :     0.150970  d :     0.669568
      dxz     :     0.068777
      dyz     :     0.176463
      dx2y2   :     0.130767
      dxy     :     0.142592

 10 O s       :     1.562886  s :     1.562886
      pz      :     1.621973  p :     4.573055
      px      :     1.452626
      py      :     1.498456
      dz2     :     0.010116  d :     0.067498
      dxz     :     0.004984
      dyz     :     0.023946
      dx2y2   :     0.016207
      dxy     :     0.012246

 11 C s       :     0.783824  s :     0.783824
      pz      :     0.968242  p :     3.097397
      px      :     1.053601
      py      :     1.075554
      dz2     :     0.049730  d :     0.211771
      dxz     :     0.036129
      dyz     :     0.058665
      dx2y2   :     0.045626
      dxy     :     0.021621

 12 C s       :     0.776280  s :     0.776280
      pz      :     1.060795  p :     3.103159
      px      :     1.053233
      py      :     0.989131
      dz2     :     0.058666  d :     0.234293
      dxz     :     0.030383
      dyz     :     0.035111
      dx2y2   :     0.047392
      dxy     :     0.062741

 13 C s       :     0.776971  s :     0.776971
      pz      :     1.063260  p :     3.103988
      px      :     1.050408
      py      :     0.990321
      dz2     :     0.050691  d :     0.235851
      dxz     :     0.042085
      dyz     :     0.033689
      dx2y2   :     0.044659
      dxy     :     0.064727

 14 H s       :     0.797717  s :     0.797717
      pz      :     0.044801  p :     0.146786
      px      :     0.042242
      py      :     0.059742

 15 H s       :     0.798504  s :     0.798504
      pz      :     0.054884  p :     0.146937
      px      :     0.048824
      py      :     0.043229

 16 H s       :     0.807014  s :     0.807014
      pz      :     0.043952  p :     0.145431
      px      :     0.057483
      py      :     0.043997

 17 H s       :     0.809727  s :     0.809727
      pz      :     0.043906  p :     0.153223
      px      :     0.041069
      py      :     0.068248

 18 H s       :     0.802298  s :     0.802298
      pz      :     0.051939  p :     0.145987
      px      :     0.044656
      py      :     0.049392

 19 H s       :     0.804423  s :     0.804423
      pz      :     0.048205  p :     0.146533
      px      :     0.047468
      py      :     0.050860

 20 H s       :     0.797792  s :     0.797792
      pz      :     0.047598  p :     0.147946
      px      :     0.049226
      py      :     0.051122

 21 H s       :     0.802534  s :     0.802534
      pz      :     0.052647  p :     0.146357
      px      :     0.045513
      py      :     0.048197

 22 H s       :     0.809146  s :     0.809146
      pz      :     0.057919  p :     0.153832
      px      :     0.045977
      py      :     0.049936

 23 H s       :     0.805177  s :     0.805177
[...]
 57:   1318.84   0.017107   86.45  0.004048  ( 0.047087 -0.041852  0.008899)
 58:   1331.26   0.091677  463.30  0.021490  (-0.106367  0.091300 -0.042900)
 59:   1347.98   0.001045    5.28  0.000242  ( 0.014072 -0.006107  0.002556)
 60:   1383.89   0.000619    3.13  0.000140  (-0.006224  0.008376 -0.005536)
 61:   1403.87   0.002054   10.38  0.000456  ( 0.020769  0.003292 -0.003782)
 62:   1423.10   0.002827   14.28  0.000620  ( 0.019323 -0.012598  0.009366)
 63:   1437.64   0.013787   69.67  0.002993  (-0.043680  0.026459 -0.019612)
 64:   1450.25   0.005440   27.49  0.001171  (-0.011910  0.027634 -0.016281)
 65:   1451.06   0.000534    2.70  0.000115  ( 0.003184  0.005073 -0.008887)
 66:   1459.40   0.004350   21.98  0.000930  ( 0.015742 -0.023769  0.010838)
 67:   1464.94   0.013019   65.79  0.002773  (-0.049455  0.011256 -0.014172)
 68:   1502.06   0.000073    0.37  0.000015  ( 0.001129  0.002691  0.002567)
 69:   1503.24   0.004081   20.62  0.000847  (-0.018401 -0.021914 -0.005322)
 70:   1508.74   0.000618    3.12  0.000128  (-0.004845 -0.008852  0.005104)
 71:   1509.19   0.002589   13.08  0.000535  (-0.007172 -0.001423  0.021951)
 72:   1510.95   0.000973    4.92  0.000201  (-0.009249 -0.004409 -0.009797)
 73:   1517.89   0.001039    5.25  0.000214  ( 0.012270 -0.002511 -0.007528)
 74:   1522.23   0.006008   30.36  0.001232  (-0.007515 -0.016676 -0.029951)
 75:   1526.31   0.001121    5.66  0.000229  ( 0.006904 -0.012546  0.004908)
 76:   1527.88   0.000992    5.01  0.000203  ( 0.013399  0.004719  0.000879)
 77:   1536.81   0.000957    4.84  0.000194  ( 0.007867 -0.001693 -0.011385)
 78:   1551.16   0.002275   11.50  0.000458  ( 0.001030 -0.010177  0.018789)
 79:   1806.59   0.004986   25.20  0.000861  ( 0.024050 -0.016576 -0.002835)
 80:   1807.83   0.000546    2.76  0.000094  ( 0.003067 -0.009184 -0.000710)
 81:   1872.43   0.063405  320.42  0.010567  ( 0.019763  0.100359  0.010238)
 82:   3094.79   0.006052   30.59  0.000610  (-0.015385 -0.013471  0.013860)
 83:   3098.91   0.006220   31.43  0.000626  (-0.013255  0.020596 -0.005142)
 84:   3099.72   0.007355   37.17  0.000740  ( 0.025584 -0.008375 -0.003971)
 85:   3105.79   0.000717    3.62  0.000072  (-0.005026  0.006618 -0.001716)
 86:   3113.26   0.008498   42.94  0.000852  (-0.006979  0.007519  0.027323)
 87:   3131.51   0.001763    8.91  0.000176  (-0.007980 -0.007119 -0.007833)
 88:   3136.98   0.000489    2.47  0.000049  (-0.006271 -0.001352 -0.002731)
 89:   3159.61   0.000241    1.22  0.000024  (-0.001827  0.004446  0.000825)
 90:   3169.45   0.000489    2.47  0.000048  (-0.002555 -0.002678 -0.005870)
 91:   3171.11   0.003602   18.20  0.000354  (-0.006068 -0.009408 -0.015138)
 92:   3175.90   0.002598   13.13  0.000255  (-0.007197  0.014190  0.001445)
 93:   3177.75   0.003131   15.82  0.000307  ( 0.013022 -0.002842  0.011394)
 94:   3199.79   0.002217   11.20  0.000216  ( 0.001021 -0.012433  0.007782)
 95:   3206.83   0.000967    4.89  0.000094  ( 0.006071  0.002410 -0.007174)
 96:   3208.80   0.004037   20.40  0.000393  ( 0.008926 -0.016037  0.007466)
 97:   3209.88   0.001756    8.87  0.000171  (-0.011693 -0.001787  0.005551)
 98:   3225.27   0.003852   19.46  0.000373  (-0.012143 -0.009479  0.011635)
 99:   3225.78   0.003409   17.23  0.000330  (-0.009997 -0.010570  0.010868)
100:   3231.70   0.000074    0.37  0.000007  ( 0.000210 -0.000168 -0.002651)
101:   3265.53   0.000270    1.36  0.000026  ( 0.004207 -0.002259  0.001728)

* The epsilon (eps) is given for a Dirac delta lineshape.
** The dipole moment derivative (T) already includes vibrational overlap.

The first frequency considered to be a vibration is 6
The total number of vibrations considered is 96


--------------------------
THERMOCHEMISTRY AT 298.15K
--------------------------

Temperature         ...   298.15 K
Pressure            ...     1.00 atm
Total Mass          ...   196.29 AMU
Quasi RRHO          ...     True
Cut-Off Frequency   ...     1.00 cm^-1

Throughout the following assumptions are being made:
  (1) The electronic state is orbitally nondegenerate
  (2) There are no thermally accessible electronically excited states
  (3) Hindered rotations indicated by low frequency modes are not
      treated as such but are treated as vibrations and this may
      cause some error
  (4) All equations used are the standard statistical mechanics
      equations for an ideal gas
  (5) All vibrations are strictly harmonic

freq.      11.48  E(vib)   ...       0.58 
freq.      20.87  E(vib)   ...       0.56 
freq.      27.91  E(vib)   ...       0.55 
freq.      43.28  E(vib)   ...       0.53 
freq.      47.58  E(vib)   ...       0.53 
freq.      57.01  E(vib)   ...       0.51 
freq.      89.94  E(vib)   ...       0.47 
freq.     105.03  E(vib)   ...       0.45 
freq.     130.64  E(vib)   ...       0.43 
freq.     163.52  E(vib)   ...       0.39 
freq.     185.80  E(vib)   ...       0.37 
freq.     189.74  E(vib)   ...       0.36 
freq.     200.68  E(vib)   ...       0.35 
freq.     249.69  E(vib)   ...       0.31 
freq.     308.78  E(vib)   ...       0.26 
freq.     313.10  E(vib)   ...       0.25 
freq.     320.26  E(vib)   ...       0.25 
freq.     360.46  E(vib)   ...       0.22 
freq.     409.89  E(vib)   ...       0.19 
freq.     428.59  E(vib)   ...       0.18 
freq.     477.21  E(vib)   ...       0.15 
freq.     491.36  E(vib)   ...       0.14 
freq.     542.67  E(vib)   ...       0.12 
freq.     544.03  E(vib)   ...       0.12 
freq.     604.32  E(vib)   ...       0.10 
freq.     626.12  E(vib)   ...       0.09 
freq.     671.71  E(vib)   ...       0.08 
freq.     776.21  E(vib)   ...       0.05 
freq.     824.95  E(vib)   ...       0.04 
freq.     851.39  E(vib)   ...       0.04 
freq.     861.02  E(vib)   ...       0.04 
freq.     893.72  E(vib)   ...       0.03 
freq.     967.92  E(vib)   ...       0.03 
freq.     986.03  E(vib)   ...       0.02 
freq.    1008.49  E(vib)   ...       0.02 
freq.    1014.09  E(vib)   ...       0.02 
freq.    1026.36  E(vib)   ...       0.02 
freq.    1032.68  E(vib)   ...       0.02 
freq.    1046.37  E(vib)   ...       0.02 
freq.    1069.23  E(vib)   ...       0.02 
freq.    1091.29  E(vib)   ...       0.02 
freq.    1097.30  E(vib)   ...       0.02 
freq.    1098.09  E(vib)   ...       0.02 
freq.    1099.23  E(vib)   ...       0.02 
freq.    1128.99  E(vib)   ...       0.01 
freq.    1142.96  E(vib)   ...       0.01 
freq.    1169.86  E(vib)   ...       0.01 
freq.    1203.76  E(vib)   ...       0.01 
freq.    1257.04  E(vib)   ...       0.01 
freq.    1288.68  E(vib)   ...       0.01 
freq.    1304.38  E(vib)   ...       0.01 
freq.    1318.84  E(vib)   ...       0.01 
freq.    1331.26  E(vib)   ...       0.01 
freq.    1347.98  E(vib)   ...       0.01 
freq.    1383.89  E(vib)   ...       0.00 
freq.    1403.87  E(vib)   ...       0.00 
freq.    1423.10  E(vib)   ...       0.00 
freq.    1437.64  E(vib)   ...       0.00 
freq.    1450.25  E(vib)   ...       0.00 
freq.    1451.06  E(vib)   ...       0.00 
freq.    1459.40  E(vib)   ...       0.00 
freq.    1464.94  E(vib)   ...       0.00 
freq.    1502.06  E(vib)   ...       0.00 
freq.    1503.24  E(vib)   ...       0.00 
freq.    1508.74  E(vib)   ...       0.00 
freq.    1509.19  E(vib)   ...       0.00 
freq.    1510.95  E(vib)   ...       0.00 
freq.    1517.89  E(vib)   ...       0.00 
freq.    1522.23  E(vib)   ...       0.00 
freq.    1526.31  E(vib)   ...       0.00 
freq.    1527.88  E(vib)   ...       0.00 
freq.    1536.81  E(vib)   ...       0.00 
freq.    1551.16  E(vib)   ...       0.00 
freq.    1806.59  E(vib)   ...       0.00 
freq.    1807.83  E(vib)   ...       0.00 
freq.    1872.43  E(vib)   ...       0.00 
freq.    3094.79  E(vib)   ...       0.00 
freq.    3098.91  E(vib)   ...       0.00 
freq.    3099.72  E(vib)   ...       0.00 
freq.    3105.79  E(vib)   ...       0.00 
freq.    3113.26  E(vib)   ...       0.00 
freq.    3131.51  E(vib)   ...       0.00 
freq.    3136.98  E(vib)   ...       0.00 
freq.    3159.61  E(vib)   ...       0.00 
freq.    3169.45  E(vib)   ...       0.00 
freq.    3171.11  E(vib)   ...       0.00 
freq.    3175.90  E(vib)   ...       0.00 
freq.    3177.75  E(vib)   ...       0.00 
freq.    3199.79  E(vib)   ...       0.00 
freq.    3206.83  E(vib)   ...       0.00 
freq.    3208.80  E(vib)   ...       0.00 
freq.    3209.88  E(vib)   ...       0.00 
freq.    3225.27  E(vib)   ...       0.00 
freq.    3225.78  E(vib)   ...       0.00 
freq.    3231.70  E(vib)   ...       0.00 
freq.    3265.53  E(vib)   ...       0.00 

------------
INNER ENERGY
------------

The inner energy is: U= E(el) + E(ZPE) + E(vib) + E(rot) + E(trans)
    E(el)   - is the total energy from the electronic structure calculation
              = E(kin-el) + E(nuc-el) + E(el-el) + E(nuc-nuc)
    E(ZPE)  - the the zero temperature vibrational energy from the frequency calculation
    E(vib)  - the the finite temperature correction to E(ZPE) due to population
              of excited vibrational states
    E(rot)  - is the rotational thermal energy
    E(trans)- is the translational thermal energy

Summary of contributions to the inner energy U:
Electronic energy                ...   -112.54138101 Eh
Zero point energy                ...      0.30515042 Eh     191.48 kcal/mol
Thermal vibrational correction   ...      0.01458706 Eh       9.15 kcal/mol
Thermal rotational correction    ...      0.00141627 Eh       0.89 kcal/mol
Thermal translational correction ...      0.00141627 Eh       0.89 kcal/mol
-----------------------------------------------------------------------
Total thermal energy                   -112.21881099 Eh


Summary of corrections to the electronic energy:
(perhaps to be used in another calculation)
Total thermal correction                  0.01741960 Eh      10.93 kcal/mol
Non-thermal (ZPE) correction              0.30515042 Eh     191.48 kcal/mol
-----------------------------------------------------------------------
Total correction                          0.32257002 Eh     202.42 kcal/mol


--------
ENTHALPY
--------

The enthalpy is H = U + kB*T
                kB is Boltzmann's constant
Total thermal energy              ...   -112.21881099 Eh 
Thermal Enthalpy correction       ...      0.00094421 Eh       0.59 kcal/mol
-----------------------------------------------------------------------
Total Enthalpy                    ...   -112.21786678 Eh


Note: Only C1 symmetry has been detected, increase convergence thresholds 
      if your molecule has a higher symmetry. Symmetry factor of 1.0 is   
      used for the rotational entropy correction. 
 

Note: Rotational entropy computed according to Herzberg 
Infrared and Raman Spectra, Chapter V,1, Van Nostrand Reinhold, 1945 
Point Group:  C1, Symmetry Number:   1  
Rotational constants in cm-1:     0.037112     0.007911     0.006791 

Vibrational entropy computed according to the QRRHO of S. Grimme
Chem.Eur.J. 2012 18 9955 using a reference frequency of 100.0 cm-1


-------
ENTROPY
-------

The entropy contributions are T*S = T*(S(el)+S(vib)+S(rot)+S(trans))
     S(el)   - electronic entropy
     S(vib)  - vibrational entropy
     S(rot)  - rotational entropy
     S(trans)- translational entropy
The entropies will be listed as multiplied by the temperature to get
units of energy

Electronic entropy                ...      0.00000000 Eh      0.00 kcal/mol
Vibrational entropy               ...      0.02738395 Eh     17.18 kcal/mol
Rotational entropy                ...      0.01570724 Eh      9.86 kcal/mol
Translational entropy             ...      0.01982641 Eh     12.44 kcal/mol
-----------------------------------------------------------------------
Final entropy term                ...      0.06291760 Eh     39.48 kcal/mol

In case the symmetry of your molecule has not been determined correctly
or in case you have a reason to use a different symmetry number we print 
out the resulting rotational entropy values for sn=1,12:

 non-linear molecules -----------------------------------
|  sn= 1 | S(rot)=       0.01570724 Eh      9.86 kcal/mol|
|  sn= 2 | S(rot)=       0.01505279 Eh      9.45 kcal/mol|
|  sn= 3 | S(rot)=       0.01466996 Eh      9.21 kcal/mol|
|  sn= 4 | S(rot)=       0.01439833 Eh      9.04 kcal/mol|
|  sn= 5 | S(rot)=       0.01418764 Eh      8.90 kcal/mol|
|  sn= 6 | S(rot)=       0.01401550 Eh      8.79 kcal/mol|
|  sn= 7 | S(rot)=       0.01386995 Eh      8.70 kcal/mol|
|  sn= 8 | S(rot)=       0.01374388 Eh      8.62 kcal/mol|
|  sn= 9 | S(rot)=       0.01363267 Eh      8.55 kcal/mol|
|  sn=10 | S(rot)=       0.01353319 Eh      8.49 kcal/mol|
|  sn=11 | S(rot)=       0.01344320 Eh      8.44 kcal/mol|
|  sn=12 | S(rot)=       0.01336104 Eh      8.38 kcal/mol|
 linear molecules ---------------------------------------
|  Dinfh | S(rot)=       0.01003936 Eh      6.30 kcal/mol|
|  Cinfv | S(rot)=       0.01069382 Eh      6.71 kcal/mol|
 --------------------------------------------------------


-------------------
GIBBS FREE ENERGY
-------------------

The Gibbs free energy is G = H - T*S

Total enthalpy                    ...   -112.21786678 Eh 
Total entropy correction          ...     -0.06291760 Eh    -39.48 kcal/mol
-----------------------------------------------------------------------
Final Gibbs free energy         ...   -112.28078438 Eh

For completeness - the Gibbs free energy minus the electronic energy
G-E(el)                           ...      0.26059663 Eh    163.53 kcal/mol


Maximum memory used throughout the entire PROP-calculation: 188.6 MB

--------------------------------
SUGGESTED CITATIONS FOR THIS RUN
--------------------------------

Below you find a list of papers that are relevant to this ORCA run
We neither can nor want to force you to cite these papers, but we appreciate if you do
You receive ORCA, which is the product of decades of hard work by many enthusiastic individuals, for free
The only thing we kindly ask in return is that you cite our papers,
We deeply appreciate it, if you show your appreciation for ORCA by not just citing the generic ORCA reference.

Please note that relegating all ORCA citations to the supporting information does *not* help us.
SI sections are not indexed - citations you put there will not count into any citation statistics
But we need these citations in order to attract the funding resources that allow us to do what we are doing

Therefore, if you are a happy ORCA user, please consider citing a few of the papers listed below in the main body of your paper

In addition to the list printed below, the program has created the file ./output/geranyl_acetate/geranyl_acetate.bibtex that contains the list in bibtex format
You can import this file easily into all common literature databanks and citation aid programs


List of essential papers. We consider these as the minimum necessary citations

  1. Neese,F.
     Software update: the ORCA program system, version 5.0
     WIRES Comput. Molec. Sci., 2022 12(1)e1606
     doi.org/10.1002/wcms.1606
  2. Mueller,M.; Hansen,A.; Grimme,S.
     wB97X-3c: A composite range-separated hybrid DFT method with a molecule-optimized polarized valence double-zeta basis set
     J. Chem. Phys., 2023 158 014103
     doi.org/10.1063/5.0133026

List of papers to cite with high priority. The work reported in these papers was absolutely
necessary for this run to complete.
Our perspective: the developers of density functionals and basis sets usually get cited in chemistry papers
Good! But without the algorithms to do something with them, the functionals or basis sets would not do anything.
Hence, in our opinion, the algorithm design and method developments papers are equally worthy of getting cited

  1. Neese,F.
     An improvement of the resolution of the identity approximation for the formation of the Coulomb matrix
     J. Comp. Chem., 2003 24(14)1740-1747
     doi.org/10.1002/jcc.10318
  2. Neese,F.; Wennmohs,F.; Hansen,A.; Becker,U.
     Efficient, approximate and parallel Hartree-Fock and hybrid DFT calculations. A 'chain-of-spheres' algorithm for the Hartree-Fock exchange
     Chem. Phys., 2009 356(1-3)98-109
     doi.org/10.1016/j.chemphys.2008.10.036
  3. Bykov,D.; Petrenko,T.; Izsak,R.; Kossmann,S.; Becker,U.; Valeev,E.; Neese,F.
     Efficient implementation of the analytic second derivatives of Hartree-Fock and hybrid DFT energies: a detailed analysis of different approximations
     Molec. Phys., 2015 113 1961-1977
     doi.org/10.1080/00268976.2015.1025114
  4. Helmich-Paris,B.; de Souza,B.; Neese,F.; Izsák,R.
     An improved chain of spheres for exchange algorithm
     J. Chem. Phys., 2021 155 104109
     doi.org/doi: 10.1063/5.0058766.
  5. Neese,F.
     The SHARK Integral Generation and Digestion System
     J. Comp. Chem., 2022  1-16
     doi.org/10.1002/jcc.26942
  6. Caldeweyher,E.; Bannwarth,C.; Grimme,S.
     Extension of the D3 dispersion coefficient model
     J. Chem. Phys., 2017 147 034112
     doi.org/10.1063/1.4993215
  7. Caldeweyher,E.; Ehlert,S.; Hansen,A.; Neugebauer,H.; Spicher,S.; Bannwarth,C.; Grimme,S.
     A generally applicable atomic-charge dependent London dispersion correction
     J. Chem. Phys., 2019 150 154122
     doi.org/10.1063/1.5090222
  8. Caldeweyher,E.; Mewes,J.; Ehlert,S.; Grimme,S.
     Extension and evaluation of the D4 London-dispersion model for periodic systems
     Phys. Chem. Chem. Phys., 2020 22(16)8499-8512
     doi.org/10.1039/D0CP00502A
  9. Wittmann,L.; Gordiy,I.; Friede,M.; Helmich-Paris,B.; Grimme,S.; Hansen,A.; Bursch,M.
     Extension of the D3 and D4 London Dispersion Corrections to the full Actinides Series
     Phys. Chem. Chem. Phys., 2024 26(32)21379-21394
     doi.org/https://doi.org/10.1039/D4CP01514B 

List of suggested additional citations. These are papers that are important in the 'surrounding' of 
of this run, or papers that preceded the highly important papers. If you like your results we are grateful for a citation.

  1. Izsak,R.; Neese,F.
     An overlap fitted chain of spheres exchange method
     J. Chem. Phys., 2011 135 144105
     doi.org/10.1063/1.3646921
  2. Izsak,R.; Hansen,A.; Neese,F.
     The resolution of identity and chain of spheres approximations for the LPNO-CCSD singles Fock term
     Molec. Phys., 2012 110 2413-2417
     doi.org/10.1080/00268976.2012.687466
  3. Neese,F.
     The ORCA program system
     WIRES Comput. Molec. Sci., 2012 2(1)73-78
     doi.org/10.1002/wcms.81
  4. Izsak,R.; Neese,F.; Klopper,W.
     Robust fitting techniques in the chain of spheres approximation to the Fock exchange: The role of the complementary space
     J. Chem. Phys., 2013 139 
     doi.org/10.1063/1.4819264
  5. Neese,F.
     Software update: the ORCA program system, version 4.0
     WIRES Comput. Molec. Sci., 2018 8(1)1-6
     doi.org/10.1002/wcms.1327
  6. Neese,F.; Wennmohs,F.; Becker,U.; Riplinger,C.
     The ORCA quantum chemistry program package
     J. Chem. Phys., 2020 152 Art. No. L224108
     doi.org/10.1063/5.0004608

List of optional additional citations

  1. Neese,F.
     Approximate second-order SCF convergence for spin unrestricted wavefunctions
     Chem. Phys. Lett., 2000 325(1-3)93-98
     doi.org/10.1016/s0009-2614(00)00662-x

Timings for individual modules:

Sum of individual times          ...     2491.239 sec (=  41.521 min)
Startup calculation              ...      139.209 sec (=   2.320 min)   5.6 %
SCF iterations                   ...     1718.503 sec (=  28.642 min)  69.0 %
Property integrals               ...      104.351 sec (=   1.739 min)   4.2 %
SCF Response                     ...       67.460 sec (=   1.124 min)   2.7 %
Property calculations            ...      131.887 sec (=   2.198 min)   5.3 %
SCF Gradient evaluation          ...      328.968 sec (=   5.483 min)  13.2 %
Geometry relaxation              ...        0.862 sec (=   0.014 min)   0.0 %
                             ****ORCA TERMINATED NORMALLY****
TOTAL RUN TIME: 0 days 0 hours 41 minutes 46 seconds 434 msec
