
                                 *****************
                                 * O   R   C   A *
                                 *****************

                                            #,                                       
                                            ###                                      
                                            ####                                     
                                            #####                                    
                                            ######                                   
                                           ########,                                 
                                     ,,################,,,,,                         
                               ,,#################################,,                 
                          ,,##########################################,,             
                       ,#########################################, ''#####,          
                    ,#############################################,,   '####,        
                  ,##################################################,,,,####,       
                ,###########''''           ''''###############################       
              ,#####''   ,,,,##########,,,,          '''####'''          '####       
            ,##' ,,,,###########################,,,                        '##       
           ' ,,###''''                  '''############,,,                           
         ,,##''                                '''############,,,,        ,,,,,,###''
      ,#''                                            '''#######################'''  
     '                                                          ''''####''''         
             ,#######,   #######,   ,#######,      ##                                
            ,#'     '#,  ##    ##  ,#'     '#,    #''#        ,####,   ,####,        
            ##       ##  ##   ,#'  ##            #'  '#       #'       #'  '#        
            ##       ##  #######   ##           ,######,      #####,   #    #        
            '#,     ,#'  ##    ##  '#,     ,#' ,#      #,     #,   #   #,  ,#        
             '#######'   ##     ##  '#######'  #'      '#     '####' # '####'        



                #########################################################
                #                        -***-                          #
                #          Department of theory and spectroscopy        #
                #                                                       #
                #                      Frank Neese                      #
                #                                                       #
                #     Directorship, Architecture, Infrastructure        #
                #                    SHARK, DRIVERS                     #
                #        Core code/Algorithms in most modules           #
                #                                                       #
                #        Max Planck Institute fuer Kohlenforschung      #
                #                Kaiser Wilhelm Platz 1                 #
                #                 D-45470 Muelheim/Ruhr                 #
                #                      Germany                          #
                #                                                       #
                #                  All rights reserved                  #
                #                        -***-                          #
                #########################################################


                         Program Version 6.0.1  -  RELEASE   -


 With contributions from (in alphabetic order):
[Max-Planck-Institut fuer Kohlenforschung]                               
  Daniel Aravena         : Magnetic Suceptibility                        
  Michael Atanasov       : Ab Initio Ligand Field Theory (pilot matlab implementation)
  Alexander A. Auer      : GIAO ZORA, VPT2 properties, NMR spectrum      
  Ute Becker             : All parallelization in ORCA, NUMFREQ, NUMCALC 
  Giovanni Bistoni       : ED, misc. LED, open-shell LED, HFLD           
  Martin Brehm           : Molecular dynamics                            
  Dmytro Bykov           : pre 5.0 version of the SCF Hessian            
  Marcos Casanova-Páez   : Triplet and SCS-CIS(D). UHF-(DLPNO)-IP/EA/STEOM-CCSD. UHF-CVS-IP/STEOM-CCSD   
  Vijay G. Chilkuri      : MRCI spin determinant printing, contributions to CSF-ICE 
  Pauline Colinet        : FMM embedding                                 
  Dipayan Datta          : RHF DLPNO-CCSD density                        
  Achintya Kumar Dutta   : EOM-CC, STEOM-CC                              
  Nicolas Foglia         : Exact transition moments, OPA infrastructure, MCD improvements    
  Dmitry Ganyushin       : Spin-Orbit,Spin-Spin,Magnetic field MRCI      
  Miquel Garcia-Rates    : C-PCM and meta-GGA Hessian, CCSD/C-PCM, Gaussian charge scheme 
  Tiago L. C. Gouveia    : GS-ROHF, GS-ROCIS                             
  Yang Guo               : DLPNO-NEVPT2, F12-NEVPT2, CIM, IAO-localization        
  Andreas Hansen         : Spin unrestricted coupled pair/coupled cluster methods 
  Ingolf Harden          : AUTO-CI MPn and infrastructure                
  Benjamin Helmich-Paris : MC-RPA, TRAH-(SCF,CASSCF), AVAS, COSX integrals, SCF dyn. polar. 
  Lee Huntington         : MR-EOM, pCC                                   
  Robert Izsak           : Overlap fitted RIJCOSX, COSX-SCS-MP3, EOM     
  Riya Kayal             : Wick's Theorem for AUTO-CI, AUTO-CI UHF-CCSDT 
  Emily Kempfer          : AUTO-CI, RHF CISDT and CCSDT                  
  Christian Kollmar      : KDIIS, OOCD, Brueckner-CCSD(T), CCSD density, CASPT2, CASPT2-K, improved NEVPT2 
  Axel Koslowski         : Symmetry handling                             
  Simone Kossmann        : meta-GGA functionals, TD-DFT gradient, OOMP2, (MP2 Hessian; deprecated post 5.0) 
  Lucas Lang             : DCDCAS                                        
  Marvin Lechner         : AUTO-CI (C++ implementation), FIC-MRCC        
  Spencer Leger          : CASSCF response                               
  Dagmar Lenk            : GEPOL surface, SMD, ORCA-2-JSON               
  Dimitrios Liakos       : Extrapolation schemes; Compound Job, initial MDCI parallelization 
  Dimitrios Manganas     : Further ROCIS development; embedding schemes. LFT, Crystal Embedding 
  Dimitrios Pantazis     : SARC Basis sets                               
  Anastasios Papadopoulos: AUTO-CI, single reference methods and gradients 
  Taras Petrenko         : pre 6.0 DFT Hessian and TD-DFT gradient, (ASA, deprecated), ECA, 1-Electron XAS/XES, NRVS 
  Peter Pinski           : DLPNO-MP2, DLPNO-MP2 Gradient                 
  Christoph Reimann      : Effective Core Potentials                     
  Marius Retegan         : Local ZFS, SOC                                
  Christoph Riplinger    : Optimizer, TS searches, QM/MM, DLPNO-CCSD(T), (RO)-DLPNO pert. Triples 
  Michael Roemelt        : Original ROCIS implementation                 
  Masaaki Saitow         : Open-shell DLPNO-CCSD energy and density      
  Barbara Sandhoefer     : DKH picture change effects                    
  Kantharuban Sivalingam : CASSCF convergence/infrastructure, NEVPT2 and variants, FIC-MRCI 
  Bernardo de Souza      : ESD, SOC TD-DFT                               
  Georgi L. Stoychev     : AutoAux, RI-MP2 NMR, DLPNO-MP2 response, X2C  
  Van Anh Tran           : RI-MP2 g-tensors                              
  Willem Van den Heuvel  : Paramagnetic NMR                              
  Zikuan Wang            : NOTCH, Electric field optimization            
  Frank Wennmohs         : Technical directorship and infrastructure     
  Hang Xu                : AUTO-CI-Response properties                   
                                                                         
[FACCTs GmbH]                                                            
  Markus Bursch, Miquel Garcia-Rates, Christoph Riplinger, Bernardo de Souza, Georgi L. Stoychev 
                                                                 
  APM, Basis sets (HGBS, AHGBS, def-TZVP (Ac-Lr), def2-XVPD (La-Lu)), CI-OPT, improved COSX, DLPNO-Multilevel,           
  DOCKER, DRACO, updates on ESD, GOAT, IRC, LR-CPCM, MBIS, meta-GGA TD-DFT gradient, ML-optimized integration grids, 
  MM, NACMEs, nearIR, NEB, NEB-TS, NL-DFT gradient (VV10), 2- and 3-layer-ONIOM, interface openCOSMO-RS, QMMM,   
  Crystal-QMMM, SF, symmetry and pop. for TD-DFT, r2SCAN hybrids, SOLVATOR                                   
                                                                         
[Other institutions]                                                     
  V. Asgeirsson          : NEB                                           
  Christoph Bannwarth    : sTDA-DFT, sTD-DFT, PBEh-3c, B97-3c, D3        
  Sebastian Ehlert       : rSCAN, r2SCAN, r2SCAN-3c, D4, dhf basis sets  
  Marvin Friede          : D4 for Fr, Ra, Ac-Lr                          
  Lars Goerigk           : TD-DFT with DH, B97 family of functionals     
  Stefan Grimme          : VdW corrections, initial TS optimization, DFT functionals, gCP, sTDA/sTD-DF 
  Waldemar Hujo          : DFT-NL                                        
  H. Jonsson             : NEB                                           
  Holger Kruse           : gCP                                           
  Marcel Mueller         : wB97X-3c, vDZP basis set                      
  Hagen Neugebauer       : wr2SCAN                                       
  Tobias Risthaus        : range-separated hybrid DFT                    
  Lukas Wittmann         : regularized MP2, r2SCAN double-hybrids, wr2SCAN        
                                                                         
We gratefully acknowledge several colleagues who have allowed us to      
interface, adapt or use parts of their codes:                            
  Ed Valeev, F. Pavosevic, A. Kumar             : LibInt (2-el integral package), F12 methods 
  Garnet Chan, S. Sharma, J. Yang, R. Olivares  : DMRG                   
  Ulf Ekstrom                                   : XCFun DFT Library      
  Mihaly Kallay                                 : mrcc  (arbitrary order and MRCC methods)
  Frank Weinhold                                : gennbo (NPA and NBO analysis)           
  Simon Mueller                                 : openCOSMO-RS                            
  Christopher J. Cramer and Donald G. Truhlar   : smd solvation model                     
  S Lehtola, MJT Oliveira, MAL Marques          : LibXC Library                           
  Liviu Ungur et al                             : ANISO software                          


 Your calculation uses the libint2 library for the computation of 2-el integrals
 For citations please refer to: http://libint.valeyev.net

 Your ORCA version has been built with support for libXC version: 6.2.2
 For citations please refer to: https://libxc.gitlab.io

 This ORCA versions uses:
   CBLAS   interface :  Fast vector & matrix operations
   LAPACKE interface :  Fast linear algebra routines
   SCALAPACK package :  Parallel linear algebra routines
   Shared memory     :  Shared parallel matrices
   BLAS/LAPACK       :  OpenBLAS 0.3.27  USE64BITINT DYNAMIC_ARCH NO_AFFINITY SkylakeX SINGLE_THREADED
        Core in use  :  SkylakeX
   Copyright (c) 2011-2014, The OpenBLAS Project


Your calculation utilizes the atom-pairwise dispersion correction
based on EEQ partial charges (D4)


================================================================================

cite the ECPs for C  [vDZP-ECP], O  [vDZP-ECP] as follows:
   B-Ne (ecp-2-mwb), Al-Ar (ecp-10-mwb), Ga-Kr (ecp-28-mwb), Y-Cd (ecp-28-mwb), In-Xe (ecp-46-mwb):
     A. Bergner, M. Dolg, W. Küchle, H. Stoll, and H. Preuß, Mol. Phys. 80, 1431 (1993)., T. Leininger, A. Berning, A. Nicklass, H. Stoll, H.-J. Werner, and H.-J.Flad, Chem. Phys. 217, 19 (1997).
   Na-Mg, K-Ca, Rb-Sr, Cs-Ba (CRENBL):
     L. Fernandez Pacios and P. A. Christiansen, J. Chem. Phys. 82, 2664 (1985)., M. M. Hurley, L. F. Pacios, P. A. Christiansen, R. B. Ross, and W. C. Ermler, J. Chem. Phys. 84, 6840 (1986)., L. A. LaJohn, P. A. Christiansen, R. B. Ross, T. Atashroo, and W. C. Ermler, J. Chem. Phys. 87, 2812 (1987)., R. B. Ross, J. M. Powers, T. Atashroo, W. C. Ermler, L. A. LaJohn, and P. A. Christiansen, J. Chem. Phys. 93, 6654 (1990). 
   Sc-Zn (ecp-10-mdf):
     M. Dolg, U. Wedig, H. Stoll, and H. Preuss, J. Chem. Phys. 86, 866 (1986). 
   Y-Cd (ecp-28-mwb), Hf-Hg (ecp-60-mwb):
     D. Andrae, U. Häußermann, M. Dolg, H. Stoll, and H. Preuß, Theor. Chim. Acta 77, 123 (1990). 
   La (ecp-46-mwb):
     M. Dolg, H. Stoll, and H. Preuss, J. Chem. Phys. 90, 1730 (1989)., M. Dolg, H. Stoll, and H. Preuss, Theor. Chim. Acta 85, 441 (1993).
   Ce-Lu (SBKJC-ecp):
     T. R. Cundari and W. J. Stevens, J. Chem. Phys. 98, 5555 (1993).
   Tl-Rn (ecp-78-mwb):
     W. Küchle, M. Dolg, H. Stoll, and H. Preuss, Mol. Phys. 74, 1245 (1991).

ECP parameters for C  [vDZP-ECP], O  [vDZP-ECP] have been obtained from:
MM, AH, SG, J. Chem. Phys. 158, 014103 (2023), 10.1063/5.0133026

----- Orbital basis set information -----
Your calculation utilizes the basis: vDZP
   Marcel Mueller, Andreas Hansen, Stefan Grimme 
   J. Chem. Phys. 158, 014103 (2023). DOI: 10.1063/5.0133026

----- AuxJ basis set information -----
Your calculation utilizes the auxiliary basis: def2/J
   F. Weigend, Phys. Chem. Chem. Phys. 8, 1057 (2006).

================================================================================
                                        WARNINGS
                       Please study these warnings very carefully!
================================================================================

WARNING: Frozen-Core approximation turned on, but there are no core electrons.
  ===> : Turning off frozen-core approximation


WARNING: Geometry Optimization
  ===> : Switching off AutoStart
         For restart on a previous wavefunction, please use MOREAD

================================================================================
                                       INPUT FILE
================================================================================
NAME = ./output/carvacrol/carvacrol.inp
|  1> ! wB97X-3c OPT FREQ TightSCF
|  2> %pal
|  3>   nprocs 40
|  4> end
|  5> * xyz 0 1
|  6> C      3.635594     0.130223     1.022232
|  7> C      2.158176    -0.008938     0.778405
|  8> C      1.475310     0.865003    -0.096338
|  9> C      0.099675     0.708904    -0.301824
| 10> C     -0.617948    -0.309169     0.351709
| 11> C      0.068234    -1.173186     1.219193
| 12> C      1.440507    -1.024657     1.430014
| 13> C     -2.109489    -0.482168     0.131954
| 14> C     -2.418069    -0.809646    -1.333850
| 15> C     -2.884063     0.757296     0.595430
| 16> O      2.132368     1.894480    -0.773762
| 17> H      4.007838    -0.636422     1.734804
| 18> H      4.187175     0.007448     0.066500
| 19> H      3.852937     1.131353     1.450296
| 20> H     -0.407900     1.387438    -0.975520
| 21> H     -0.457923    -1.966097     1.736098
| 22> H      1.942492    -1.706700     2.105209
| 23> H     -2.476208    -1.339560     0.739743
| 24> H     -2.152115     0.038873    -1.999286
| 25> H     -1.846975    -1.708290    -1.651316
| 26> H     -3.500949    -1.026354    -1.454858
| 27> H     -2.629502     1.644122    -0.022841
| 28> H     -3.976914     0.574115     0.515704
| 29> H     -2.646250     0.979343     1.657802
| 30> H      3.123998     2.072588    -0.678899
| 31> *
| 32> 
| 33>                          ****END OF INPUT****
================================================================================

                       *****************************
                       * Geometry Optimization Run *
                       *****************************

Geometry optimization settings:
Update method            Update   .... BFGS
Choice of coordinates    CoordSys .... (2022) Redundant Internals
Initial Hessian          InHess   .... Almloef's Model
Max. no of cycles        MaxIter  .... 75

Convergence Tolerances:
Energy Change            TolE     ....  5.0000e-06 Eh
Max. Gradient            TolMAXG  ....  3.0000e-04 Eh/bohr
RMS Gradient             TolRMSG  ....  1.0000e-04 Eh/bohr
Max. Displacement        TolMAXD  ....  4.0000e-03 bohr
RMS Displacement         TolRMSD  ....  2.0000e-03 bohr
Strict Convergence                .... False

------------------------------------------------------------------------------
                        ORCA OPTIMIZATION COORDINATE SETUP
------------------------------------------------------------------------------

The optimization will be done in redundant internal coordinates (2022)
Making redundant internal coordinates   ...  (2022 redundants) done
Evaluating the initial hessian          ...  (Almloef) done
Evaluating the coordinates              ...  done
Calculating the B-matrix                .... done
Calculating the G-matrix                .... done
Diagonalizing the G-matrix              .... done
Small eigenvalue found = 2.188e-02
Small eigenvalue found = 2.600e-02
The first mode is                       ....   47
The number of degrees of freedom        ....   69

    -----------------------------------------------------------------
                    Redundant Internal Coordinates


    -----------------------------------------------------------------
         Definition                    Initial Value    Approx d2E/dq
    -----------------------------------------------------------------
      1. B(C   1,C   0)                  1.5039         0.411234   
      2. B(C   2,C   1)                  1.4125         0.575156   
      3. B(C   3,C   2)                  1.3996         0.603080   
      4. B(C   4,C   3)                  1.4066         0.587805   
      5. B(C   5,C   4)                  1.4035         0.594498   
      6. B(C   6,C   1)                  1.4040         0.593388   
      7. B(C   6,C   5)                  1.3963         0.610514   
      8. B(C   7,C   4)                  1.5175         0.391078   
      9. B(C   8,C   7)                  1.5333         0.369057   
     10. B(C   9,C   7)                  1.5333         0.369057   
     11. B(O  10,C   2)                  1.3966         0.546221   
     12. B(H  11,C   0)                  1.1109         0.333503   
     13. B(H  12,C   0)                  1.1103         0.334238   
     14. B(H  13,C   0)                  1.1103         0.334238   
     15. B(H  14,C   3)                  1.0825         0.370096   
     16. B(H  15,C   5)                  1.0829         0.369574   
     17. B(H  16,C   6)                  1.0831         0.369373   
     18. B(H  17,C   7)                  1.1131         0.330792   
     19. B(H  18,C   8)                  1.1106         0.333805   
     20. B(H  19,C   8)                  1.1111         0.333269   
     21. B(H  20,C   8)                  1.1110         0.333412   
     22. B(H  21,C   9)                  1.1106         0.333806   
     23. B(H  22,C   9)                  1.1110         0.333412   
     24. B(H  23,C   9)                  1.1111         0.333269   
     25. B(H  24,O  10)                  1.0120         0.429613   
     26. A(C   1,C   0,H  12)          109.7709         0.325468   
     27. A(C   1,C   0,H  13)          109.7710         0.325468   
     28. A(H  12,C   0,H  13)          109.5320         0.284143   
     29. A(C   1,C   0,H  11)          111.6747         0.325350   
     30. A(H  11,C   0,H  12)          108.0214         0.284046   
     31. A(H  11,C   0,H  13)          108.0214         0.284046   
     32. A(C   0,C   1,C   6)          119.5944         0.400339   
     33. A(C   2,C   1,C   6)          119.2016         0.424900   
     34. A(C   0,C   1,C   2)          121.2040         0.398148   
     35. A(C   1,C   2,O  10)          121.9386         0.415949   
     36. A(C   1,C   2,C   3)          119.8057         0.426134   
     37. A(C   3,C   2,O  10)          118.2557         0.419476   
     38. A(C   2,C   3,C   4)          120.9267         0.427798   
     39. A(C   4,C   3,H  14)          120.2379         0.351364   
     40. A(C   2,C   3,H  14)          118.8353         0.352892   
     41. A(C   3,C   4,C   5)          118.9011         0.426701   
     42. A(C   3,C   4,C   7)          121.1090         0.396159   
     43. A(C   5,C   4,C   7)          119.9899         0.396948   
     44. A(C   4,C   5,C   6)          120.5521         0.429610   
     45. A(C   4,C   5,H  15)          120.5453         0.351953   
     46. A(C   6,C   5,H  15)          118.9026         0.353540   
     47. A(C   5,C   6,H  16)          118.8583         0.353507   
     48. A(C   1,C   6,H  16)          120.5289         0.351809   
     49. A(C   1,C   6,C   5)          120.6128         0.429466   
     50. A(C   9,C   7,H  17)          106.9283         0.319206   
     51. A(C   8,C   7,H  17)          106.9283         0.319206   
     52. A(C   4,C   7,H  17)          109.4237         0.322245   
     53. A(C   8,C   7,C   9)          111.0967         0.361845   
     54. A(C   4,C   7,C   9)          111.1362         0.365447   
     55. A(C   4,C   7,C   8)          111.1362         0.365447   
     56. A(C   7,C   8,H  18)          111.1866         0.319679   
     57. A(H  19,C   8,H  20)          108.1869         0.283906   
     58. A(H  18,C   8,H  20)          108.4921         0.283977   
     59. A(C   7,C   8,H  20)          109.9958         0.319617   
     60. A(H  18,C   8,H  19)          108.8834         0.283958   
     61. A(C   7,C   8,H  19)          110.0260         0.319595   
     62. A(H  22,C   9,H  23)          108.1869         0.283906   
     63. A(H  21,C   9,H  23)          108.8834         0.283958   
     64. A(C   7,C   9,H  23)          110.0259         0.319595   
     65. A(H  21,C   9,H  22)          108.4921         0.283977   
     66. A(C   7,C   9,H  22)          109.9958         0.319617   
     67. A(C   7,C   9,H  21)          111.1866         0.319679   
     68. A(C   2,O  10,H  24)          123.0448         0.350620   
     69. D(C   6,C   1,C   0,H  11)     -0.0001         0.012522   
     70. D(C   2,C   1,C   0,H  12)    -60.2233         0.012522   
     71. D(C   2,C   1,C   0,H  13)     60.2232         0.012522   
     72. D(C   2,C   1,C   0,H  11)    180.0000         0.012522   
     73. D(C   6,C   1,C   0,H  12)    119.7766         0.012522   
     74. D(C   3,C   2,C   1,C   6)      0.0001         0.022710   
     75. D(C   3,C   2,C   1,C   0)    180.0000         0.022710   
     76. D(O  10,C   2,C   1,C   6)   -180.0000         0.022710   
     77. D(O  10,C   2,C   1,C   0)     -0.0001         0.022710   
     78. D(H  14,C   3,C   2,O  10)      0.0000         0.025087   
     79. D(H  14,C   3,C   2,C   1)    180.0000         0.025087   
     80. D(C   4,C   3,C   2,O  10)    180.0000         0.025087   
     81. D(C   4,C   3,C   2,C   1)     -0.0000         0.025087   
     82. D(C   5,C   4,C   3,H  14)   -180.0000         0.023769   
     83. D(C   5,C   4,C   3,C   2)      0.0001         0.023769   
     84. D(C   7,C   4,C   3,H  14)     -0.0001         0.023769   
     85. D(C   7,C   4,C   3,C   2)    180.0000         0.023769   
     86. D(H  15,C   5,C   4,C   7)      0.0001         0.024341   
     87. D(H  15,C   5,C   4,C   3)   -180.0000         0.024341   
     88. D(C   6,C   5,C   4,C   7)    180.0000         0.024341   
     89. D(C   6,C   5,C   4,C   3)     -0.0001         0.024341   
     90. D(H  16,C   6,C   5,H  15)     -0.0001         0.025745   
     91. D(H  16,C   6,C   5,C   4)   -179.9999         0.025745   
     92. D(C   1,C   6,C   5,H  15)   -180.0000         0.025745   
     93. D(C   1,C   6,C   5,C   4)      0.0001         0.025745   
     94. D(H  16,C   6,C   1,C   2)    180.0000         0.024245   
     95. D(H  16,C   6,C   1,C   0)      0.0000         0.024245   
     96. D(C   5,C   6,C   1,C   0)    180.0000         0.024245   
     97. D(C   5,C   6,C   1,C   2)     -0.0001         0.024245   
     98. D(C   8,C   7,C   4,C   5)   -117.8615         0.011375   
     99. D(C   8,C   7,C   4,C   3)     62.1386         0.011375   
    100. D(H  17,C   7,C   4,C   3)   -179.9999         0.011375   
    101. D(C   9,C   7,C   4,C   5)    117.8616         0.011375   
    102. D(C   9,C   7,C   4,C   3)    -62.1384         0.011375   
    103. D(H  19,C   8,C   7,H  17)    -63.7634         0.010892   
    104. D(H  19,C   8,C   7,C   9)    179.8994         0.010892   
    105. D(H  19,C   8,C   7,C   4)     55.6001         0.010892   
    106. D(H  18,C   8,C   7,H  17)    175.5249         0.010892   
    107. D(H  18,C   8,C   7,C   9)     59.1878         0.010892   
    108. D(H  18,C   8,C   7,C   4)    -65.1115         0.010892   
    109. D(H  22,C   9,C   7,H  17)    -55.3240         0.010892   
    110. D(H  22,C   9,C   7,C   8)     61.0132         0.010892   
    111. D(H  22,C   9,C   7,C   4)   -174.6876         0.010892   
    112. D(H  21,C   9,C   7,H  17)   -175.5248         0.010892   
    113. D(H  21,C   9,C   7,C   8)    -59.1877         0.010892   
    114. D(H  21,C   9,C   7,C   4)     65.1116         0.010892   
    115. D(H  24,O  10,C   2,C   3)    179.9998         0.021565   
    116. D(H  24,O  10,C   2,C   1)     -0.0002         0.021565   
    -----------------------------------------------------------------

Number of atoms                         .... 25
Number of degrees of freedom            .... 116


         *************************************************************
         *                GEOMETRY OPTIMIZATION CYCLE   1            *
         *************************************************************
---------------------------------
CARTESIAN COORDINATES (ANGSTROEM)
---------------------------------
  C      3.635594    0.130223    1.022232
  C      2.158176   -0.008938    0.778405
  C      1.475310    0.865003   -0.096338
  C      0.099675    0.708904   -0.301824
  C     -0.617948   -0.309169    0.351709
  C      0.068234   -1.173186    1.219193
  C      1.440507   -1.024657    1.430014
  C     -2.109489   -0.482168    0.131954
  C     -2.418069   -0.809646   -1.333850
  C     -2.884063    0.757296    0.595430
  O      2.132368    1.894480   -0.773762
  H      4.007838   -0.636422    1.734804
  H      4.187175    0.007448    0.066500
  H      3.852937    1.131353    1.450296
  H     -0.407900    1.387438   -0.975520
  H     -0.457923   -1.966097    1.736098
  H      1.942492   -1.706700    2.105209
  H     -2.476208   -1.339560    0.739743
  H     -2.152115    0.038873   -1.999286
  H     -1.846975   -1.708290   -1.651316
  H     -3.500949   -1.026354   -1.454858
  H     -2.629502    1.644122   -0.022841
  H     -3.976914    0.574115    0.515704
  H     -2.646250    0.979343    1.657802
  H      3.123998    2.072588   -0.678899

----------------------------
CARTESIAN COORDINATES (A.U.)
----------------------------
  NO LB      ZA    FRAG     MASS         X           Y           Z
   0 C     4.0000*   0    12.011    6.870277    0.246086    1.931739
   1 C     4.0000*   0    12.011    4.078362   -0.016890    1.470972
   2 C     4.0000*   0    12.011    2.787932    1.634619   -0.182052
   3 C     4.0000*   0    12.011    0.188358    1.339634   -0.570365
   4 C     4.0000*   0    12.011   -1.167752   -0.584245    0.664634
   5 C     4.0000*   0    12.011    0.128944   -2.217000    2.303941
   6 C     4.0000*   0    12.011    2.722164   -1.936321    2.702335
   7 C     4.0000*   0    12.011   -3.986356   -0.911165    0.249357
   8 C     4.0000*   0    12.011   -4.569488   -1.530009   -2.520611
   9 C     4.0000*   0    12.011   -5.450089    1.431082    1.125200
  10 O     6.0000*   0    15.999    4.029592    3.580048   -1.462198
  11 H     1.0000    0     1.008    7.573716   -1.202663    3.278304
  12 H     1.0000    0     1.008    7.912614    0.014075    0.125667
  13 H     1.0000    0     1.008    7.280996    2.137947    2.740662
  14 H     1.0000    0     1.008   -0.770819    2.621878   -1.843466
  15 H     1.0000    0     1.008   -0.865349   -3.715385    3.280750
  16 H     1.0000    0     1.008    3.670778   -3.225196    3.978268
  17 H     1.0000    0     1.008   -4.679355   -2.531402    1.397912
  18 H     1.0000    0     1.008   -4.066908    0.073459   -3.778103
  19 H     1.0000    0     1.008   -3.490277   -3.228200   -3.120535
  20 H     1.0000    0     1.008   -6.615835   -1.939528   -2.749283
  21 H     1.0000    0     1.008   -4.969039    3.106940   -0.043163
  22 H     1.0000    0     1.008   -7.515278    1.084920    0.974539
  23 H     1.0000    0     1.008   -5.000688    1.850690    3.132792
  24 H     1.0000    0     1.008    5.903501    3.916624   -1.282933
* core charge reduced due to ECP

--------------------------------
INTERNAL COORDINATES (ANGSTROEM)
--------------------------------
 C      0   0   0     0.000000000000     0.00000000     0.00000000
 C      1   0   0     1.503855490589     0.00000000     0.00000000
 C      2   1   0     1.412534658508   121.20404068     0.00000000
 C      3   2   1     1.399629610726   119.80569043   179.99998993
 C      4   3   2     1.406613232394   120.92671911     0.00000000
 C      5   4   3     1.403531119594   118.90110844     0.00000000
 C      6   5   4     1.396294934608   120.55214436     0.00000000
 C      5   4   3     1.517535985968   121.10901837   179.99997662
 C      8   5   4     1.533311717590   111.13616894    62.13857327
 C      8   5   4     1.533312065872   111.13618585   297.86163336
 O      3   2   1     1.396585616663   121.93858649     0.00000000
 H      1   2   3     1.110886585906   111.67466186   179.99997813
 H      1   2   3     1.110287780717   109.77090043   299.77667962
 H      1   2   3     1.110287370299   109.77095667    60.22323342
 H      4   3   2     1.082546567219   118.83533146   179.99998940
 H      6   5   4     1.082931125047   120.54526591   180.00002659
 H      7   6   5     1.083078890062   118.85828210   180.00005581
 H      8   5   4     1.113108860420   109.42369485   180.00011101
 H      9   8   5     1.110639947766   111.18658264   294.88847448
 H      9   8   5     1.111077880586   110.02596931    55.60013600
 H      9   8   5     1.110961019896   109.99578227   174.68765597
 H     10   8   5     1.110639764477   111.18656102    65.11158196
 H     10   8   5     1.110961215362   109.99578835   185.31242701
 H     10   8   5     1.111077926863   110.02591127   304.39994799
 H     11   3   2     1.011954300022   123.04478053     0.00000000

---------------------------
INTERNAL COORDINATES (A.U.)
---------------------------
 C      0   0   0     0.000000000000     0.00000000     0.00000000
 C      1   0   0     2.841875022207     0.00000000     0.00000000
 C      2   1   0     2.669303659252   121.20404068     0.00000000
 C      3   2   1     2.644916653200   119.80569043   179.99998993
 C      4   3   2     2.658113785575   120.92671911     0.00000000
 C      5   4   3     2.652289436469   118.90110844     0.00000000
 C      6   5   4     2.638615028590   120.55214436     0.00000000
 C      5   4   3     2.867727411849   121.10901837   179.99997662
 C      8   5   4     2.897539224178   111.13616894    62.13857327
 C      8   5   4     2.897539882335   111.13618585   297.86163336
 O      3   2   1     2.639164338066   121.93858649     0.00000000
 H      1   2   3     2.099271413208   111.67466186   179.99997813
 H      1   2   3     2.098139835395   109.77090043   299.77667962
 H      1   2   3     2.098139059816   109.77095667    60.22323342
 H      4   3   2     2.045716539260   118.83533146   179.99998940
 H      6   5   4     2.046443248238   120.54526591   180.00002659
 H      7   6   5     2.046722483650   118.85828210   180.00005581
 H      8   5   4     2.103470903435   109.42369485   180.00011101
 H      9   8   5     2.098805334670   111.18658264   294.88847448
 H      9   8   5     2.099632907766   110.02596931    55.60013600
 H      9   8   5     2.099412073065   109.99578227   174.68765597
 H     10   8   5     2.098804988305   111.18656102    65.11158196
 H     10   8   5     2.099412442442   109.99578835   185.31242701
 H     10   8   5     2.099632995216   110.02591127   304.39994799
 H     11   3   2     1.912316487086   123.04478053     0.00000000

---------------------
BASIS SET INFORMATION
---------------------
There are 3 groups of distinct atoms

 Group   1 Type C   : 6s6p2d contracted to 2s2p1d pattern {42/42/2}
 Group   2 Type O   : 6s6p2d contracted to 2s2p1d pattern {42/42/2}
 Group   3 Type H   : 8s2p contracted to 2s1p pattern {53/2}

Atom   0C    basis set group =>   1
Atom   1C    basis set group =>   1
Atom   2C    basis set group =>   1
Atom   3C    basis set group =>   1
Atom   4C    basis set group =>   1
Atom   5C    basis set group =>   1
Atom   6C    basis set group =>   1
Atom   7C    basis set group =>   1
Atom   8C    basis set group =>   1
Atom   9C    basis set group =>   1
Atom  10O    basis set group =>   2
Atom  11H    basis set group =>   3
Atom  12H    basis set group =>   3
Atom  13H    basis set group =>   3
Atom  14H    basis set group =>   3
Atom  15H    basis set group =>   3
Atom  16H    basis set group =>   3
Atom  17H    basis set group =>   3
Atom  18H    basis set group =>   3
Atom  19H    basis set group =>   3
Atom  20H    basis set group =>   3
Atom  21H    basis set group =>   3
Atom  22H    basis set group =>   3
Atom  23H    basis set group =>   3
Atom  24H    basis set group =>   3
---------------------------------
AUXILIARY/J BASIS SET INFORMATION
---------------------------------
There are 3 groups of distinct atoms

 Group   1 Type C   : 12s5p4d2f1g contracted to 6s4p3d1f1g pattern {711111/2111/211/2/1}
 Group   2 Type O   : 12s5p4d2f1g contracted to 6s4p3d1f1g pattern {711111/2111/211/2/1}
 Group   3 Type H   : 5s2p1d contracted to 3s1p1d pattern {311/2/1}

Atom   0C    basis set group =>   1
Atom   1C    basis set group =>   1
Atom   2C    basis set group =>   1
Atom   3C    basis set group =>   1
Atom   4C    basis set group =>   1
Atom   5C    basis set group =>   1
Atom   6C    basis set group =>   1
Atom   7C    basis set group =>   1
Atom   8C    basis set group =>   1
Atom   9C    basis set group =>   1
Atom  10O    basis set group =>   2
Atom  11H    basis set group =>   3
Atom  12H    basis set group =>   3
Atom  13H    basis set group =>   3
Atom  14H    basis set group =>   3
Atom  15H    basis set group =>   3
Atom  16H    basis set group =>   3
Atom  17H    basis set group =>   3
Atom  18H    basis set group =>   3
Atom  19H    basis set group =>   3
Atom  20H    basis set group =>   3
Atom  21H    basis set group =>   3
Atom  22H    basis set group =>   3
Atom  23H    basis set group =>   3
Atom  24H    basis set group =>   3
-------------------------
ECP PARAMETER INFORMATION
-------------------------

 Group 1, Type C  ECP vDZP-ECP (replacing 2 core electrons, lmax=3)
 Group 2, Type O  ECP vDZP-ECP (replacing 2 core electrons, lmax=3)

Atom   0C    ECP group =>   1
Atom   1C    ECP group =>   1
Atom   2C    ECP group =>   1
Atom   3C    ECP group =>   1
Atom   4C    ECP group =>   1
Atom   5C    ECP group =>   1
Atom   6C    ECP group =>   1
Atom   7C    ECP group =>   1
Atom   8C    ECP group =>   1
Atom   9C    ECP group =>   1
Atom  10O    ECP group =>   2



           ************************************************************
           *        Program running with 40 parallel MPI-processes    *
           *              working on a common directory               *
           ************************************************************
------------------------------------------------------------------------------
                             ORCA STARTUP CALCULATIONS
                           -- RI-GTO INTEGRALS CHOSEN --
------------------------------------------------------------------------------
------------------------------------------------------------------------------
                   ___                                                        
                  /   \      - P O W E R E D   B Y -                         
                 /     \                                                     
                 |  |  |   _    _      __       _____    __    __             
                 |  |  |  | |  | |    /  \     |  _  \  |  |  /  |          
                  \  \/   | |  | |   /    \    | | | |  |  | /  /          
                 / \  \   | |__| |  /  /\  \   | |_| |  |  |/  /          
                |  |  |   |  __  | /  /__\  \  |    /   |      \           
                |  |  |   | |  | | |   __   |  |    \   |  |\   \          
                \     /   | |  | | |  |  |  |  | |\  \  |  | \   \       
                 \___/    |_|  |_| |__|  |__|  |_| \__\ |__|  \__/        
                                                                              
                      - O R C A' S   B I G   F R I E N D -                    
                                      &                                       
                       - I N T E G R A L  F E E D E R -                       
                                                                              
 v1 FN, 2020, v2 2021, v3 2022-2024                                           
------------------------------------------------------------------------------


----------------------
SHARK INTEGRAL PACKAGE
----------------------

Number of atoms                             ...     25
Number of basis functions                   ...    213
Number of shells                            ...     97
Maximum angular momentum                    ...      2
Integral batch strategy                     ... SHARK/LIBINT Hybrid
RI-J (if used) integral strategy            ... SPLIT-RIJ (Revised 2003 algorithm where possible)
Printlevel                                  ...      1
Contraction scheme used                     ... SEGMENTED contraction
Prescreening option                         ... SCHWARTZ
   Thresh                                   ... 2.500e-11
   Tcut                                     ... 2.500e-12
   Tpresel                                  ... 2.500e-12 
Coulomb Range Separation                    ... NOT USED
Exchange Range Separation                   ... Long Range
   Mu parameter                             ... 3.000e-01
   Scaling (regular/separated)              ... 1.670e-01 8.330e-01
Multipole approximations                    ... NOT USED
Finite Nucleus Model                        ... NOT USED
CABS basis                                  ... NOT available
Auxiliary Coulomb fitting basis             ... AVAILABLE
   # of basis functions in Aux-J            ...    693
   # of shells in Aux-J                     ...    235
   Maximum angular momentum in Aux-J        ...      4
Auxiliary J/K fitting basis                 ... NOT available
Auxiliary Correlation fitting basis         ... NOT available
Auxiliary 'external' fitting basis          ... NOT available

Checking pre-screening integrals            ... done (  0.0 sec) Dimension = 97
Check shell pair data                       ... done (  0.0 sec)
Shell pair information
Shell pair cut-off parameter TPreSel        ...   2.5e-12
Total number of shell pairs                 ...      4753
Shell pairs after pre-screening             ...      4727
Total number of primitive shell pairs       ...     43726
Primitive shell pairs kept                  ...     34496
          la=0 lb=0:   1271 shell pairs
          la=1 lb=0:   1786 shell pairs
          la=1 lb=1:    658 shell pairs
          la=2 lb=0:    550 shell pairs
          la=2 lb=1:    396 shell pairs
          la=2 lb=2:     66 shell pairs

Calculating one electron integrals          ... done (  0.0 sec)
Calculating ECP integrals                   ... done (  0.1 sec)
Calculating RI/J V-Matrix + Cholesky decomp.... done (  0.0 sec)
Calculating Nuclear repulsion               ... done (  0.0 sec) ENN=    315.825785887568 Eh

Diagonalization of the overlap matrix:
Smallest eigenvalue                        ... 3.079e-04
Time for diagonalization                   ...    0.008 sec
Threshold for overlap eigenvalues          ... 1.000e-07
Number of eigenvalues below threshold      ... 0
Time for construction of square roots      ...    0.008 sec
Total time needed                          ...    0.038 sec

-------------------
DFT GRID GENERATION
-------------------

General Integration Accuracy     IntAcc      ... 4.388
Radial Grid Type                 RadialGrid  ... OptM3 with GC (2021)
Angular Grid (max. ang.)         AngularGrid ... 4 (Lebedev-302)
Angular grid pruning method      GridPruning ... 4 (adaptive)
Weight generation scheme         WeightScheme... mBecke (2022)
Basis function cutoff            BFCut       ... 1.0000e-11
Integration weight cutoff        WCut        ... 1.0000e-14
Partially contracted basis set               ... off
Rotationally invariant grid construction     ... off
Angular grids for H and He will be reduced by one unit

Total number of grid points                  ...   110765
Total number of batches                      ...     1744
Average number of points per batch           ...       63
Average number of grid points per atom       ...     4431

--------------------
COSX GRID GENERATION
--------------------

GRIDX 1
-------
General Integration Accuracy     IntAcc      ... 3.816
Radial Grid Type                 RadialGrid  ... OptM3 with GC (2021)
Angular Grid (max. ang.)         AngularGrid ... 1 (Lebedev-50)
Angular grid pruning method      GridPruning ... 4 (adaptive)
Weight generation scheme         WeightScheme... mBecke (2022)
Basis function cutoff            BFCut       ... 1.0000e-11
Integration weight cutoff        WCut        ... 1.0000e-14
Partially contracted basis set               ... on
Rotationally invariant grid construction     ... off
Angular grids for H and He will be reduced by one unit

Total number of grid points                  ...    14170
Total number of batches                      ...      125
Average number of points per batch           ...      113
Average number of grid points per atom       ...      567
UseSFitting                                  ... on

GRIDX 2
-------
General Integration Accuracy     IntAcc      ... 4.020
Radial Grid Type                 RadialGrid  ... OptM3 with GC (2021)
Angular Grid (max. ang.)         AngularGrid ... 2 (Lebedev-110)
Angular grid pruning method      GridPruning ... 4 (adaptive)
Weight generation scheme         WeightScheme... mBecke (2022)
Basis function cutoff            BFCut       ... 1.0000e-11
Integration weight cutoff        WCut        ... 1.0000e-14
Partially contracted basis set               ... on
Rotationally invariant grid construction     ... off
Angular grids for H and He will be reduced by one unit

Total number of grid points                  ...    30059
Total number of batches                      ...      249
Average number of points per batch           ...      120
Average number of grid points per atom       ...     1202
UseSFitting                                  ... on

GRIDX 3
-------
General Integration Accuracy     IntAcc      ... 4.338
Radial Grid Type                 RadialGrid  ... OptM3 with GC (2021)
Angular Grid (max. ang.)         AngularGrid ... 3 (Lebedev-194)
Angular grid pruning method      GridPruning ... 4 (adaptive)
Weight generation scheme         WeightScheme... mBecke (2022)
Basis function cutoff            BFCut       ... 1.0000e-11
Integration weight cutoff        WCut        ... 1.0000e-14
Partially contracted basis set               ... on
Rotationally invariant grid construction     ... off
Angular grids for H and He will be reduced by one unit

Total number of grid points                  ...    65599
Total number of batches                      ...      528
Average number of points per batch           ...      124
Average number of grid points per atom       ...     2624
UseSFitting                                  ... on
Initializing property integral containers    ... done (  0.0 sec)

SHARK setup successfully completed in   3.3 seconds

Maximum memory used throughout the entire STARTUP-calculation: 31.9 MB


           ************************************************************
           *        Program running with 40 parallel MPI-processes    *
           *              working on a common directory               *
           ************************************************************
-------------------------------------------------------------------------------
                                 ORCA GUESS
                   Start orbitals & Density for SCF / CASSCF
-------------------------------------------------------------------------------

------------
SCF SETTINGS
------------
Hamiltonian:
 Density Functional     Method          .... DFT(GTOs)
 Exchange Functional    Exchange        .... WB97X-V
 Correlation Functional Correlation     .... WB97X-V
 Gradients option       PostSCFGGA      .... off
 Hybrid DFT is turned on
   Fraction HF Exchange ScalHFX         ....  0.167000
   Scaling of DF-GGA-X  ScalDFX         ....  0.000000
   Scaling of DF-GGA-C  ScalDFC         ....  1.000000
   Scaling of DF-LDA-C  ScalLDAC        ....  1.000000
   Perturbative correction              ....  0.000000
 Long-range corrected/Screened/Range-Separated Hybrid DFT is turned on
   Amount of maximum screened exact exchange              ....  0.833000
   Range separation parameter mu (erf(mu*r12)/r12)        ....  0.300000
   NL short-range parameter             ....  6.000000
   NL long-range parameter              ....  0.010000
 RI-approximation to the Coulomb term is turned on
   Number of AuxJ basis functions       .... 693
   RIJ-COSX (HFX calculated with COS-X)).... on


General Settings:
 Integral files         IntName         .... ./output/carvacrol/carvacrol
 Hartree-Fock type      HFTyp           .... RHF
 Total Charge           Charge          ....    0
 Multiplicity           Mult            ....    1
 Number of Electrons    NEL             ....   60
 Basis Dimension        Dim             ....  213
 Nuclear Repulsion      ENuc            ....    315.8257858876 Eh

Convergence Acceleration:
 AO-DIIS                CNVDIIS         .... on
   Start iteration      DIISMaxIt       ....    12
   Startup error        DIISStart       ....  0.200000
   # of expansion vecs  DIISMaxEq       ....     5
   Bias factor          DIISBfac        ....   1.050
   Max. coefficient     DIISMaxC        ....  10.000
 MO-DIIS                CNVKDIIS        .... off
 Trust-Rad. Augm. Hess. CNVTRAH         .... auto
   Auto Start mean grad. ratio tolernc. ....  1.125000
   Auto Start start iteration           ....    50
   Auto Start num. interpolation iter.  ....    10
   Max. Number of Micro iterations      ....    24
   Max. Number of Macro iterations      .... Maxiter - #DIIS iter
   Number of Davidson start vectors     ....     2
   Converg. threshold    (grad. norm)   ....   1.000e-05
   Grad. Scal. Fac. for Micro threshold ....   0.100
   Minimum threshold for Micro iter.    ....   1.000e-02
   NR start threshold (gradient norm)   ....   1.000e-04
   Initial trust radius                 ....   0.400
   Minimum AH scaling param. (alpha)    ....   1.000
   Maximum AH scaling param. (alpha)    .... 1000.000
   Quad. conv. algorithm                .... NR
   White noise on init. David. guess    .... on
   Maximum white noise                  ....   0.010
   Pseudo random numbers                .... off
   Inactive MOs                         .... canonical
   Orbital update algorithm             .... Taylor
   Preconditioner                       .... Diag
   Full preconditioner red. dimension   ....   250
 SOSCF                  CNVSOSCF        .... on
   Start iteration      SOSCFMaxIt      ....   150
   Startup grad/error   SOSCFStart      ....  0.003300
   Hessian update       SOSCFHessUp     .... L-BFGS
 Level Shifting         CNVShift        .... on
   Level shift para.    LevelShift      ....    0.2500
   Turn off err/grad.   ShiftErr        ....    0.0010
 Zerner damping         CNVZerner       .... off
 Static damping         CNVDamp         .... on
   Fraction old density DampFac         ....    0.7000
   Max. Damping (<1)    DampMax         ....    0.9800
   Min. Damping (>=0)   DampMin         ....    0.0000
   Turn off err/grad.   DampErr         ....    0.1000

SCF Procedure:
 Maximum # iterations   MaxIter         ....   125
 SCF integral mode      SCFMode         .... Direct
   Integral package                     .... SHARK and LIBINT hybrid scheme
 Reset frequency        DirectResetFreq ....    20
 Integral Threshold     Thresh          ....  2.500e-11 Eh
 Primitive CutOff       TCut            ....  2.500e-12 Eh

Convergence Tolerance:
 Convergence Check Mode ConvCheckMode   .... Total+1el-Energy
 Convergence forced     ConvForced      .... 0
 Energy Change          TolE            ....  1.000e-08 Eh
 1-El. energy change                    ....  1.000e-05 Eh
 Orbital Gradient       TolG            ....  1.000e-05
 Orbital Rotation angle TolX            ....  1.000e-05
 DIIS Error             TolErr          ....  5.000e-07

------------------------------
INITIAL GUESS: MODEL POTENTIAL
------------------------------
Loading Hartree-Fock densities                     ... done
Atomic calculation to generate a density for atom 0 (C  with ECP)
  Multiplicity assumed   :    1
  Atomic configuration   : 1s2 2s2 2p2 
  Number of open shells  : 1
  Command: /home/aspe232/Project/Software/ORCA/6_0_1/build/orca ./output/carvacrol/carvacrol_atom6.inp "" > ./output/carvacrol/carvacrol_atom6.out
Returned from the atomic calculation with res=0
Atomic calculation to generate a density for atom 10 (O  with ECP)
  Multiplicity assumed   :    3
  Atomic configuration   : 1s2 2s2 2p4 
  Number of open shells  : 1
  Command: /home/aspe232/Project/Software/ORCA/6_0_1/build/orca ./output/carvacrol/carvacrol_atom8.inp "" > ./output/carvacrol/carvacrol_atom8.out
Returned from the atomic calculation with res=0
Calculating cut-offs                               ... done
Initializing the effective Hamiltonian             ... done
Setting up the integral package (SHARK)            ... done
Starting the Coulomb interaction                   ... done (   0.0 sec)
Making the grid                                    ... done (   0.8 sec)
Mapping shells                                     ... done
Starting the XC term evaluation                    ... done (   0.1 sec)
  promolecular density results
     # of electrons  =     81.992055219
     EX              =    -42.362185559
     EC              =     -3.320580341
     EX+EC           =    -45.682765900
Transforming the Hamiltonian                       ... done (   0.0 sec)
Diagonalizing the Hamiltonian                      ... done (   0.0 sec)
Back transforming the eigenvectors                 ... done (   0.0 sec)
Now organizing SCF variables                       ... done
                      ------------------
                      INITIAL GUESS DONE (   2.2 sec)
                      ------------------
             **** ENERGY FILE WAS UPDATED (./output/carvacrol/carvacrol.en.tmp) ****
Finished Guess after   2.7 sec
Maximum memory used throughout the entire GUESS-calculation: 19.7 MB


           ************************************************************
           *        Program running with 40 parallel MPI-processes    *
           *              working on a common directory               *
           ************************************************************

-------------------------------------------------------------------------------------------
                                      ORCA LEAN-SCF
                              memory conserving SCF solver
-------------------------------------------------------------------------------------------

----------------------------------------D-I-I-S--------------------------------------------
Iteration    Energy (Eh)           Delta-E    RMSDP     MaxDP     DIISErr   Damp  Time(sec)
-------------------------------------------------------------------------------------------
               ***  Starting incremental Fock matrix formation  ***
    1    -81.0076755446574452     0.00e+00  4.20e-03  8.34e-02  1.94e-01  0.700   4.2
    2    -81.1783702558502682    -1.71e-01  3.11e-03  6.12e-02  1.20e-01  0.700   3.1
                               ***Turning on AO-DIIS***
    3    -81.2694959264096042    -9.11e-02  1.69e-03  3.25e-02  6.71e-02  0.700   3.2
    4    -81.3233543562932368    -5.39e-02  3.65e-03  6.81e-02  4.61e-02  0.000   3.3
    5    -81.4362154635304591    -1.13e-01  2.43e-04  3.89e-03  3.82e-03  0.000   3.3
                              *** Initializing SOSCF ***
---------------------------------------S-O-S-C-F--------------------------------------
Iteration    Energy (Eh)           Delta-E    RMSDP     MaxDP     MaxGrad    Time(sec)
--------------------------------------------------------------------------------------
    6    -81.4364843185791756    -2.69e-04  1.07e-04  2.42e-03  1.99e-03     3.1
               *** Restarting incremental Fock matrix formation ***
    7    -81.4365494320116454    -6.51e-05  7.14e-05  1.57e-03  4.60e-04     4.0
    8    -81.4365591260350357    -9.69e-06  4.23e-05  9.34e-04  3.46e-04     3.7
    9    -81.4365629513226850    -3.83e-06  1.13e-05  1.51e-04  6.18e-05     4.0
   10    -81.4365631457556560    -1.94e-07  4.63e-06  8.81e-05  3.26e-05     3.6
   11    -81.4365631716863163    -2.59e-08  1.63e-06  3.52e-05  1.17e-05     3.4
   12    -81.4365631844249833    -1.27e-08  7.43e-07  1.11e-05  4.76e-06     3.6
   13    -81.4365631878057457    -3.38e-09  2.13e-07  3.39e-06  2.30e-06     3.2
                 **** Energy Check signals convergence ****

               *****************************************************
               *                     SUCCESS                       *
               *           SCF CONVERGED AFTER  13 CYCLES          *
               *****************************************************

Recomputing exchange energy using gridx3       ... done (    3.431 sec)
Old exchange energy                            :    -11.524458118 Eh
New exchange energy                            :    -11.524480503 Eh
Exchange energy change after final integration :     -0.000022385 Eh
Total energy after final integration           :    -81.436585573 Eh
             **** ENERGY FILE WAS UPDATED (./output/carvacrol/carvacrol.en.tmp) ****

----------------
TOTAL SCF ENERGY
----------------

Total Energy       :        -81.43658557315160 Eh           -2216.00215 eV

Components:
Nuclear Repulsion  :        315.82578588756803 Eh            8594.05655 eV
Electronic Energy  :       -397.26234907537378 Eh          -10810.05809 eV
One Electron Energy:       -749.07885963980164 Eh          -20383.47205 eV
Two Electron Energy:        351.81651056442786 Eh            9573.41396 eV

Virial components:
Potential Energy   :       -144.60263168737310 Eh           -3934.83765 eV
Kinetic Energy     :         63.16604611422149 Eh            1718.83550 eV
Virial Ratio       :          2.28924621031198

DFT components:
N(Alpha)           :       30.000032927918 electrons
N(Beta)            :       30.000032927918 electrons
N(Total)           :       60.000065855837 electrons
E(X)               :      -12.303955789147 Eh       
E(C)               :       -2.267422214525 Eh       
E(XC)              :      -14.571378003672 Eh       

---------------
SCF CONVERGENCE
---------------

  Last Energy change         ...    3.3808e-09  Tolerance :   1.0000e-08
  Last MAX-Density change    ...    3.3853e-06  Tolerance :   1.0000e-07
  Last RMS-Density change    ...    2.1288e-07  Tolerance :   5.0000e-09
  Last DIIS Error            ...    1.9900e-03  Tolerance :   5.0000e-07
  Last Orbital Gradient      ...    2.2973e-06  Tolerance :   1.0000e-05
  Last Orbital Rotation      ...    5.6749e-06  Tolerance :   1.0000e-05


----------------
ORBITAL ENERGIES
----------------

  NO   OCC          E(Eh)            E(eV) 
   0   2.0000      -1.159549       -31.5529 
   1   2.0000      -0.997338       -27.1389 
   2   2.0000      -0.946026       -25.7427 
   3   2.0000      -0.894828       -24.3495 
   4   2.0000      -0.875671       -23.8282 
   5   2.0000      -0.817105       -22.2346 
   6   2.0000      -0.811975       -22.0950 
   7   2.0000      -0.741352       -20.1732 
   8   2.0000      -0.730169       -19.8689 
   9   2.0000      -0.700266       -19.0552 
  10   2.0000      -0.635942       -17.3049 
  11   2.0000      -0.611553       -16.6412 
  12   2.0000      -0.587992       -16.0001 
  13   2.0000      -0.554437       -15.0870 
  14   2.0000      -0.552134       -15.0243 
  15   2.0000      -0.548698       -14.9308 
  16   2.0000      -0.535352       -14.5677 
  17   2.0000      -0.523065       -14.2333 
  18   2.0000      -0.502847       -13.6832 
  19   2.0000      -0.500190       -13.6109 
  20   2.0000      -0.492619       -13.4048 
  21   2.0000      -0.490109       -13.3365 
  22   2.0000      -0.471583       -12.8324 
  23   2.0000      -0.450489       -12.2584 
  24   2.0000      -0.450195       -12.2504 
  25   2.0000      -0.433563       -11.7978 
  26   2.0000      -0.431426       -11.7397 
  27   2.0000      -0.420743       -11.4490 
  28   2.0000      -0.333351        -9.0710 
  29   2.0000      -0.313243        -8.5238 
  30   0.0000       0.068516         1.8644 
  31   0.0000       0.068628         1.8675 
  32   0.0000       0.081756         2.2247 
  33   0.0000       0.090070         2.4509 
  34   0.0000       0.099333         2.7030 
  35   0.0000       0.111691         3.0393 
  36   0.0000       0.121514         3.3066 
  37   0.0000       0.125584         3.4173 
  38   0.0000       0.140330         3.8186 
  39   0.0000       0.142438         3.8759 
  40   0.0000       0.152654         4.1539 
*Only the first 10 virtual orbitals were printed.

                    ********************************
                    * MULLIKEN POPULATION ANALYSIS *
                    ********************************

-----------------------
MULLIKEN ATOMIC CHARGES
-----------------------
   0 C :   -0.123469
   1 C :   -0.062374
   2 C :    0.054393
   3 C :    0.038121
   4 C :   -0.043511
   5 C :   -0.003311
   6 C :    0.018264
   7 C :   -0.113831
   8 C :   -0.069535
   9 C :   -0.068707
  10 O :   -0.306409
  11 H :    0.047590
  12 H :    0.056205
  13 H :    0.056419
  14 H :    0.013971
  15 H :    0.011696
  16 H :    0.012882
  17 H :    0.040095
  18 H :    0.036236
  19 H :    0.050035
  20 H :    0.034652
  21 H :    0.035645
  22 H :    0.034764
  23 H :    0.049673
  24 H :    0.200506
Sum of atomic charges:    0.0000000

--------------------------------
MULLIKEN REDUCED ORBITAL CHARGES
--------------------------------
  0 C s       :     0.957071  s :     0.957071
      pz      :     1.057336  p :     3.090971
      px      :     0.966451
      py      :     1.067185
      dz2     :     0.009620  d :     0.075427
      dxz     :     0.021065
      dyz     :     0.012451
      dx2y2   :     0.018850
      dxy     :     0.013440

  1 C s       :     1.043786  s :     1.043786
      pz      :     0.990273  p :     2.903614
      px      :     0.931385
      py      :     0.981957
      dz2     :     0.020614  d :     0.114975
      dxz     :     0.025074
      dyz     :     0.013318
      dx2y2   :     0.027516
      dxy     :     0.028453

  2 C s       :     1.076724  s :     1.076724
      pz      :     0.905600  p :     2.699187
      px      :     0.969404
      py      :     0.824182
      dz2     :     0.031029  d :     0.169696
      dxz     :     0.035209
      dyz     :     0.022471
      dx2y2   :     0.041562
      dxy     :     0.039425

  3 C s       :     0.978967  s :     0.978967
      pz      :     0.997016  p :     2.896473
      px      :     0.920634
      py      :     0.978822
      dz2     :     0.010606  d :     0.086439
      dxz     :     0.020185
      dyz     :     0.012048
      dx2y2   :     0.021670
      dxy     :     0.021930

  4 C s       :     1.041230  s :     1.041230
      pz      :     0.969448  p :     2.880946
      px      :     0.937417
      py      :     0.974081
      dz2     :     0.023736  d :     0.121335
      dxz     :     0.024783
      dyz     :     0.014169
      dx2y2   :     0.029728
      dxy     :     0.028920

  5 C s       :     0.989728  s :     0.989728
      pz      :     0.984465  p :     2.921067
      px      :     0.952858
      py      :     0.983745
      dz2     :     0.013336  d :     0.092515
      dxz     :     0.022664
      dyz     :     0.010286
      dx2y2   :     0.020100
      dxy     :     0.026129

  6 C s       :     1.002671  s :     1.002671
      pz      :     0.962391  p :     2.882951
      px      :     0.963577
      py      :     0.956983
      dz2     :     0.010770  d :     0.096115
      dxz     :     0.024691
      dyz     :     0.011853
      dx2y2   :     0.022352
      dxy     :     0.026449

  7 C s       :     1.046422  s :     1.046422
      pz      :     0.984275  p :     2.940817
      px      :     0.946197
      py      :     1.010346
      dz2     :     0.024894  d :     0.126592
      dxz     :     0.023166
      dyz     :     0.028112
      dx2y2   :     0.027608
      dxy     :     0.022812

  8 C s       :     0.966962  s :     0.966962
      pz      :     0.954434  p :     3.028338
      px      :     1.035789
      py      :     1.038115
      dz2     :     0.017259  d :     0.074236
      dxz     :     0.010759
      dyz     :     0.021323
      dx2y2   :     0.014646
      dxy     :     0.010248

  9 C s       :     0.966757  s :     0.966757
      pz      :     1.037362  p :     3.027726
      px      :     1.010390
      py      :     0.979975
      dz2     :     0.018843  d :     0.074223
      dxz     :     0.004547
      dyz     :     0.017485
      dx2y2   :     0.022756
      dxy     :     0.010593

 10 O s       :     1.624492  s :     1.624492
      pz      :     1.731218  p :     4.653889
      px      :     1.335664
      py      :     1.587007
      dz2     :     0.004987  d :     0.028028
      dxz     :     0.003525
      dyz     :     0.006268
      dx2y2   :     0.010292
      dxy     :     0.002956

 11 H s       :     0.908614  s :     0.908614
      pz      :     0.015750  p :     0.043796
      px      :     0.011607
      py      :     0.016439

 12 H s       :     0.899861  s :     0.899861
      pz      :     0.019799  p :     0.043934
      px      :     0.013749
      py      :     0.010386

 13 H s       :     0.899643  s :     0.899643
      pz      :     0.012379  p :     0.043937
      px      :     0.010812
      py      :     0.020746

 14 H s       :     0.934457  s :     0.934457
      pz      :     0.019378  p :     0.051572
      px      :     0.013666
      py      :     0.018528

 15 H s       :     0.937447  s :     0.937447
      pz      :     0.016568  p :     0.050857
      px      :     0.013925
      py      :     0.020364

 16 H s       :     0.936736  s :     0.936736
      pz      :     0.018914  p :     0.050383
      px      :     0.013474
      py      :     0.017996

 17 H s       :     0.919227  s :     0.919227
      pz      :     0.013301  p :     0.040678
      px      :     0.010160
      py      :     0.017218

 18 H s       :     0.920162  s :     0.920162
      pz      :     0.015054  p :     0.043601
      px      :     0.011005
      py      :     0.017542

 19 H s       :     0.907404  s :     0.907404
      pz      :     0.010849  p :     0.042561
      px      :     0.013284
      py      :     0.018428

 20 H s       :     0.922147  s :     0.922147
      pz      :     0.010188  p :     0.043201
      px      :     0.022551
      py      :     0.010462

 21 H s       :     0.920738  s :     0.920738
      pz      :     0.013834  p :     0.043618
      px      :     0.010818
      py      :     0.018966

 22 H s       :     0.922029  s :     0.922029
      pz      :     0.009989  p :     0.043207
      px      :     0.023069
      py      :     0.010149

 23 H s       :     0.907753  s :     0.907753
      pz      :     0.022193  p :     0.042574
      px      :     0.009986
      py      :     0.010395

 24 H s       :     0.699962  s :     0.699962
      pz      :     0.029665  p :     0.099532
      px      :     0.042276
      py      :     0.027592



                     *******************************
                     * LOEWDIN POPULATION ANALYSIS *
                     *******************************

----------------------
LOEWDIN ATOMIC CHARGES
----------------------
   0 C :   -0.120729
   1 C :   -0.057978
   2 C :   -0.003591
   3 C :   -0.029503
   4 C :   -0.025161
   5 C :   -0.057021
   6 C :   -0.040832
   7 C :   -0.087659
   8 C :   -0.113007
   9 C :   -0.112943
  10 O :   -0.068738
  11 H :    0.059756
  12 H :    0.050209
  13 H :    0.050240
  14 H :    0.044707
  15 H :    0.039904
  16 H :    0.044298
  17 H :    0.055161
  18 H :    0.045340
  19 H :    0.051006
  20 H :    0.046901
  21 H :    0.045282
  22 H :    0.046905
  23 H :    0.050962
  24 H :    0.086487

-------------------------------
LOEWDIN REDUCED ORBITAL CHARGES
-------------------------------
  0 C s       :     0.775998  s :     0.775998
      pz      :     1.061615  p :     3.103484
      px      :     0.977734
      py      :     1.064135
      dz2     :     0.028989  d :     0.241248
      dxz     :     0.068195
      dyz     :     0.041442
      dx2y2   :     0.058251
      dxy     :     0.044372

  1 C s       :     0.786265  s :     0.786265
      pz      :     0.958116  p :     2.906827
      px      :     0.968388
      py      :     0.980323
      dz2     :     0.058381  d :     0.364885
      dxz     :     0.079110
      dyz     :     0.049707
      dx2y2   :     0.087296
      dxy     :     0.090391

  2 C s       :     0.774329  s :     0.774329
      pz      :     0.900986  p :     2.735361
      px      :     0.980360
      py      :     0.854014
      dz2     :     0.082484  d :     0.493901
      dxz     :     0.099308
      dyz     :     0.079180
      dx2y2   :     0.120569
      dxy     :     0.112359

  3 C s       :     0.792487  s :     0.792487
      pz      :     0.971940  p :     2.953657
      px      :     0.992490
      py      :     0.989227
      dz2     :     0.030963  d :     0.283358
      dxz     :     0.064471
      dyz     :     0.041078
      dx2y2   :     0.070788
      dxy     :     0.076058

  4 C s       :     0.784128  s :     0.784128
      pz      :     0.928974  p :     2.864190
      px      :     0.973369
      py      :     0.961847
      dz2     :     0.066763  d :     0.376844
      dxz     :     0.075555
      dyz     :     0.050922
      dx2y2   :     0.094418
      dxy     :     0.089185

  5 C s       :     0.795775  s :     0.795775
      pz      :     0.959963  p :     2.959943
      px      :     1.014884
      py      :     0.985096
      dz2     :     0.038810  d :     0.301302
      dxz     :     0.074318
      dyz     :     0.036813
      dx2y2   :     0.065755
      dxy     :     0.085606

  6 C s       :     0.798873  s :     0.798873
      pz      :     0.945057  p :     2.934607
      px      :     1.021457
      py      :     0.968093
      dz2     :     0.031642  d :     0.307352
      dxz     :     0.075738
      dyz     :     0.040312
      dx2y2   :     0.070903
      dxy     :     0.088756

  7 C s       :     0.754045  s :     0.754045
      pz      :     0.983586  p :     2.946707
      px      :     0.959808
      py      :     1.003313
      dz2     :     0.073820  d :     0.386907
      dxz     :     0.071124
      dyz     :     0.088403
      dx2y2   :     0.083740
      dxy     :     0.069820

  8 C s       :     0.780819  s :     0.780819
      pz      :     0.972597  p :     3.088408
      px      :     1.057685
      py      :     1.058126
      dz2     :     0.055189  d :     0.243780
      dxz     :     0.036367
      dyz     :     0.072461
      dx2y2   :     0.047043
      dxy     :     0.032720

  9 C s       :     0.780795  s :     0.780795
      pz      :     1.054511  p :     3.088360
      px      :     1.035281
      py      :     0.998568
      dz2     :     0.061391  d :     0.243788
      dxz     :     0.014332
      dyz     :     0.057890
      dx2y2   :     0.076791
      dxy     :     0.033383

 10 O s       :     1.371294  s :     1.371294
      pz      :     1.667187  p :     4.627014
      px      :     1.399335
      py      :     1.560491
      dz2     :     0.012158  d :     0.070431
      dxz     :     0.007746
      dyz     :     0.012886
      dx2y2   :     0.026952
      dxy     :     0.010690

 11 H s       :     0.798243  s :     0.798243
      pz      :     0.050795  p :     0.142001
      px      :     0.038710
      py      :     0.052495

 12 H s       :     0.801355  s :     0.801355
      pz      :     0.059690  p :     0.148436
      px      :     0.047174
      py      :     0.041571

 13 H s       :     0.801322  s :     0.801322
      pz      :     0.044923  p :     0.148437
      px      :     0.041136
      py      :     0.062378

 14 H s       :     0.803464  s :     0.803464
      pz      :     0.055893  p :     0.151829
      px      :     0.042465
      py      :     0.053470

 15 H s       :     0.807550  s :     0.807550
      pz      :     0.049950  p :     0.152545
      px      :     0.044063
      py      :     0.058533

 16 H s       :     0.806267  s :     0.806267
      pz      :     0.054300  p :     0.149435
      px      :     0.043133
      py      :     0.052002

 17 H s       :     0.800429  s :     0.800429
      pz      :     0.048770  p :     0.144410
      px      :     0.037464
      py      :     0.058175

 18 H s       :     0.809108  s :     0.809108
      pz      :     0.048516  p :     0.145552
      px      :     0.041701
      py      :     0.055335

 19 H s       :     0.804404  s :     0.804404
      pz      :     0.040925  p :     0.144589
      px      :     0.046653
      py      :     0.057011

 20 H s       :     0.807906  s :     0.807906
      pz      :     0.038763  p :     0.145192
      px      :     0.065454
      py      :     0.040975

 21 H s       :     0.809178  s :     0.809178
      pz      :     0.047729  p :     0.145541
      px      :     0.041004
      py      :     0.056808

 22 H s       :     0.807910  s :     0.807910
      pz      :     0.040068  p :     0.145185
      px      :     0.065873
      py      :     0.039244

 23 H s       :     0.804457  s :     0.804457
      pz      :     0.064341  p :     0.144581
      px      :     0.039950
      py      :     0.040290

 24 H s       :     0.619772  s :     0.619772
      pz      :     0.084263  p :     0.293741
      px      :     0.136982
      py      :     0.072495



                      *****************************
                      * MAYER POPULATION ANALYSIS *
                      *****************************

  NA   - Mulliken gross atomic population
  ZA   - Total nuclear charge
  QA   - Mulliken gross atomic charge
  VA   - Mayer's total valence
  BVA  - Mayer's bonded valence
  FA   - Mayer's free valence

  ATOM       NA         ZA         QA         VA         BVA        FA
  0 C      4.1235     4.0000    -0.1235     3.9846     3.9846     0.0000
  1 C      4.0624     4.0000    -0.0624     4.0562     4.0562     0.0000
  2 C      3.9456     4.0000     0.0544     4.2141     4.2141     0.0000
  3 C      3.9619     4.0000     0.0381     4.0026     4.0026     0.0000
  4 C      4.0435     4.0000    -0.0435     4.0890     4.0890     0.0000
  5 C      4.0033     4.0000    -0.0033     4.0705     4.0705     0.0000
  6 C      3.9817     4.0000     0.0183     4.0601     4.0601     0.0000
  7 C      4.1138     4.0000    -0.1138     4.0685     4.0685     0.0000
  8 C      4.0695     4.0000    -0.0695     3.9558     3.9558     0.0000
  9 C      4.0687     4.0000    -0.0687     3.9558     3.9558     0.0000
 10 O      6.3064     6.0000    -0.3064     2.1144     2.1144     0.0000
 11 H      0.9524     1.0000     0.0476     1.0406     1.0406     0.0000
 12 H      0.9438     1.0000     0.0562     1.0148     1.0148     0.0000
 13 H      0.9436     1.0000     0.0564     1.0148     1.0148     0.0000
 14 H      0.9860     1.0000     0.0140     1.0544     1.0544     0.0000
 15 H      0.9883     1.0000     0.0117     1.0460     1.0460     0.0000
 16 H      0.9871     1.0000     0.0129     1.0458     1.0458    -0.0000
 17 H      0.9599     1.0000     0.0401     1.0087     1.0087     0.0000
 18 H      0.9638     1.0000     0.0362     1.0265     1.0265     0.0000
 19 H      0.9500     1.0000     0.0500     1.0203     1.0203     0.0000
 20 H      0.9653     1.0000     0.0347     1.0272     1.0272    -0.0000
 21 H      0.9644     1.0000     0.0356     1.0268     1.0268     0.0000
 22 H      0.9652     1.0000     0.0348     1.0269     1.0269     0.0000
 23 H      0.9503     1.0000     0.0497     1.0204     1.0204     0.0000
 24 H      0.7995     1.0000     0.2005     1.0613     1.0613     0.0000

  Mayer bond orders larger than 0.100000
B(  0-C ,  1-C ) :   1.0130 B(  0-C , 11-H ) :   0.9975 B(  0-C , 12-H ) :   0.9799 
B(  0-C , 13-H ) :   0.9799 B(  1-C ,  2-C ) :   1.4141 B(  1-C ,  6-C ) :   1.4467 
B(  2-C ,  3-C ) :   1.4506 B(  2-C , 10-O ) :   1.0785 B(  3-C ,  4-C ) :   1.4359 
B(  3-C , 14-H ) :   0.9772 B(  4-C ,  5-C ) :   1.4508 B(  4-C ,  7-C ) :   1.0201 
B(  5-C ,  6-C ) :   1.4396 B(  5-C , 15-H ) :   0.9882 B(  6-C , 16-H ) :   0.9872 
B(  7-C ,  8-C ) :   0.9901 B(  7-C ,  9-C ) :   0.9901 B(  7-C , 17-H ) :   0.9983 
B(  8-C , 18-H ) :   0.9925 B(  8-C , 19-H ) :   0.9953 B(  8-C , 20-H ) :   0.9952 
B(  9-C , 21-H ) :   0.9926 B(  9-C , 22-H ) :   0.9950 B(  9-C , 23-H ) :   0.9953 
B( 10-O , 24-H ) :   1.0134 

-------
TIMINGS
-------

Total SCF time: 0 days 0 hours 0 min 53 sec 

Total time                  ....      53.633 sec
Sum of individual times     ....      51.518 sec  ( 96.1%)

SCF preparation             ....       2.331 sec  (  4.3%)
Fock matrix formation       ....      47.517 sec  ( 88.6%)
  Startup                   ....       0.354 sec  (  0.7% of F)
  Split-RI-J                ....       1.519 sec  (  3.2% of F)
  Chain of spheres X        ....      21.926 sec  ( 46.1% of F)
  XC integration            ....      22.711 sec  ( 47.8% of F)
    XC Preparation          ....       0.000 sec  (  0.0% of XC)
    Basis function eval.    ....       0.512 sec  (  2.3% of XC)
    Density eval.           ....       0.229 sec  (  1.0% of XC)
    XC-Functional eval.     ....       0.179 sec  (  0.8% of XC)
    XC-Potential eval.      ....       0.271 sec  (  1.2% of XC)
Diagonalization             ....       0.000 sec  (  0.0%)
Density matrix formation    ....       0.465 sec  (  0.9%)
Total Energy calculation    ....       0.248 sec  (  0.5%)
Population analysis         ....       0.104 sec  (  0.2%)
Orbital Transformation      ....       0.107 sec  (  0.2%)
Orbital Orthonormalization  ....       0.000 sec  (  0.0%)
DIIS solution               ....       0.502 sec  (  0.9%)
SOSCF solution              ....       0.243 sec  (  0.5%)
Finished LeanSCF after  53.7 sec

Maximum memory used throughout the entire LEANSCF-calculation: 37.9 MB


           ************************************************************
           *        Program running with 40 parallel MPI-processes    *
           *              working on a common directory               *
           ************************************************************

------------------------------------------------------------------------------
                         ORCA PROPERTY INTEGRAL CALCULATIONS
------------------------------------------------------------------------------

GBWName                                   ... ./output/carvacrol/carvacrol.gbw
Number of atoms                           ...     25
Number of basis functions                 ...    213
Max core memory                           ...   1024 MB

Dipole integrals                          ... YES
Quadrupole integrals                      ...  NO
Linear momentum integrals                 ...  NO
Angular momentum integrals                ...  NO
Higher moments length integrals           ...  NO
Higher moments velocity integrals         ...  NO
Kinetic energy integrals                  ...  NO
GIAO right hand sides                     ...  NO
GIAO dipole derivative integrals          ...  NO
SOC integrals                             ...  NO
EPR diamagnetic integrals (GIAO)          ...  NO
EPR gauge integrals                       ...  NO
Field gradient integrals                  ...  NO (   0 nuclei)
Spin-dipole/Fermi contact integrals       ...  NO (   0 nuclei)
Contact density integrals                 ...  NO (   0 nuclei)
Nucleus-orbit integrals                   ...  NO (   0 nuclei)
Geometric perturbations                   ...  NO (  25 nuclei)

Choice of electric origin   ... Center of mass
Position of electric origin ... (  0.5195,  0.1709,  0.4588) 
Choice of magnetic origin   ... GIAO
Position of magnetic origin ... (  0.0000,  0.0000,  0.0000) 

Calculating integrals                     ... Electric Dipole (Length)     done (  0.0 sec)

Property integrals calculated in   0.0 sec

Maximum memory used throughout the entire PROPINT-calculation: 16.4 MB


-------------------------------------------------------------------------------
                          DFT DISPERSION CORRECTION                            
                                                                               
                                DFTD4 V3.4.0                                   
-------------------------------------------------------------------------------
The wB97X-3c composite method is recognized
Using three-body term ABC
Active option DFTDOPT                   ...         5   

-------------------------   ----------------
Dispersion correction           -0.030006756
-------------------------   ----------------


-------------------------   --------------------
FINAL SINGLE POINT ENERGY       -81.466592329510
-------------------------   --------------------



           ************************************************************
           *        Program running with 40 parallel MPI-processes    *
           *              working on a common directory               *
           ************************************************************
------------------------------------------------------------------------------
                         ORCA SCF GRADIENT CALCULATION
------------------------------------------------------------------------------

Nuc. rep. gradient        (SHARK) ... done (  0.0 sec)
HCore & Overlap gradient  (SHARK) ... done (  0.1 sec)
ECP gradient              (SHARK) ... done (  0.4 sec)
Split-RIJ-J gradient      (SHARK) ... done (  0.4 sec)
COSX-gradient                     ... done (  5.4 sec)
XC gradient                       ... done (  1.6 sec)
Dispersion correction             ... done (  0.1 sec)

-------------------
DISPERSION GRADIENT
-------------------

   1   C   :    0.000673170   -0.000026302    0.000183958
   2   C   :    0.000392903   -0.000051405    0.000136652
   3   C   :    0.000196835    0.000396133   -0.000274192
   4   C   :    0.000150532    0.000429222   -0.000312250
   5   C   :   -0.000096200   -0.000143815    0.000093569
[...]
 15:    313.48   0.018029   91.11  0.017948  ( 0.024977 -0.082559 -0.102507)
 16:    316.44   0.000275    1.39  0.000271  (-0.005932 -0.014031  0.006251)
 17:    390.09   0.001565    7.91  0.001252  (-0.006526  0.021913  0.026997)
 18:    430.00   0.000621    3.14  0.000451  ( 0.010355  0.015599 -0.010016)
 19:    484.39   0.000701    3.54  0.000452  ( 0.003945 -0.013144 -0.016227)
 20:    504.31   0.001247    6.30  0.000772  ( 0.014846  0.019836 -0.012559)
 21:    537.65   0.000093    0.47  0.000054  ( 0.005591  0.004285 -0.002134)
 22:    594.93   0.000004    0.02  0.000002  (-0.000934  0.000807 -0.000847)
 23:    676.56   0.002254   11.39  0.001040  (-0.005926  0.019998  0.024591)
 24:    720.91   0.000037    0.19  0.000016  (-0.000313  0.003052 -0.002592)
 25:    753.92   0.000520    2.63  0.000215  ( 0.002724 -0.009103 -0.011177)
 26:    792.71   0.001808    9.14  0.000712  (-0.016522 -0.018040  0.010650)
 27:    844.16   0.004422   22.35  0.001635  ( 0.007428 -0.025022 -0.030878)
 28:    917.60   0.003525   17.81  0.001199  (-0.005984  0.021988  0.026066)
 29:    918.14   0.001654    8.36  0.000562  (-0.012549 -0.016336  0.011738)
 30:    953.94   0.000201    1.02  0.000066  (-0.001471  0.005074  0.006153)
 31:    979.69   0.003228   16.31  0.001028  ( 0.023146  0.019668 -0.010275)
 32:    981.03   0.000024    0.12  0.000008  ( 0.001003 -0.001145 -0.002285)
 33:    995.26   0.000068    0.34  0.000021  ( 0.000929 -0.002833 -0.003512)
 34:   1032.87   0.005239   26.48  0.001583  (-0.034845 -0.018140  0.006305)
 35:   1084.22   0.000465    2.35  0.000134  ( 0.002109 -0.007153 -0.008837)
 36:   1108.95   0.001103    5.57  0.000310  (-0.015964  0.003422 -0.006610)
 37:   1165.17   0.000370    1.87  0.000099  (-0.004658 -0.007363  0.004806)
 38:   1171.60   0.000189    0.96  0.000050  ( 0.001378 -0.004333 -0.005454)
 39:   1186.00   0.000324    1.64  0.000085  ( 0.006658  0.005677 -0.002962)
 40:   1219.00   0.017107   86.45  0.004379  ( 0.018287  0.051522 -0.037291)
 41:   1240.77   0.004178   21.12  0.001051  ( 0.000609  0.025255 -0.020316)
 42:   1276.31   0.006965   35.20  0.001703  ( 0.006179  0.032423 -0.024773)
 43:   1324.39   0.000244    1.23  0.000057  (-0.005374 -0.004716  0.002516)
 44:   1341.64   0.011278   56.99  0.002623  ( 0.022476  0.038247 -0.025598)
 45:   1358.07   0.016150   81.62  0.003711  ( 0.041759  0.038841 -0.021417)
 46:   1381.23   0.000067    0.34  0.000015  ( 0.000623 -0.002440 -0.002971)
 47:   1422.30   0.001636    8.27  0.000359  ( 0.018529  0.003574  0.001680)
 48:   1435.40   0.002290   11.57  0.000498  (-0.004415  0.013894  0.016889)
 49:   1447.52   0.000669    3.38  0.000144  ( 0.011405 -0.000961  0.003644)
 50:   1452.04   0.001356    6.85  0.000291  (-0.009825  0.009509 -0.010218)
 51:   1508.31   0.004845   24.48  0.001002  (-0.022231 -0.019857  0.010672)
 52:   1515.11   0.000012    0.06  0.000003  (-0.000287  0.001026  0.001187)
 53:   1519.03   0.000781    3.95  0.000160  ( 0.002343 -0.007638 -0.009831)
 54:   1524.35   0.001838    9.29  0.000376  ( 0.003613 -0.011850 -0.014924)
 55:   1531.58   0.003537   17.88  0.000721  ( 0.001962  0.021080 -0.016506)
 56:   1537.50   0.000858    4.34  0.000174  ( 0.010304  0.007437 -0.003569)
 57:   1542.80   0.003401   17.19  0.000688  (-0.000160 -0.020430  0.016447)
 58:   1597.06   0.013313   67.28  0.002601  (-0.037485 -0.030708  0.015913)
 59:   1690.56   0.012681   64.08  0.002341  ( 0.012193  0.037755 -0.027689)
 60:   1745.27   0.005853   29.58  0.001047  ( 0.030610  0.010413 -0.001079)
 61:   3087.57   0.007172   36.25  0.000725  (-0.026251 -0.005714 -0.001765)
 62:   3098.30   0.006061   30.63  0.000610  (-0.004456  0.015245  0.018925)
 63:   3100.86   0.005864   29.63  0.000590  (-0.017710  0.010719 -0.012712)
 64:   3105.26   0.003484   17.61  0.000350  (-0.013634 -0.011309  0.006029)
 65:   3162.39   0.001825    9.22  0.000180  ( 0.002453 -0.008247 -0.010297)
 66:   3187.71   0.000005    0.03  0.000001  ( 0.000373  0.000512  0.000362)
 67:   3191.16   0.009178   46.38  0.000898  ( 0.026435  0.013320 -0.004621)
 68:   3196.79   0.002051   10.36  0.000200  ( 0.002265 -0.008544 -0.011048)
 69:   3198.07   0.004031   20.37  0.000393  ( 0.011082 -0.011603  0.011657)
 70:   3207.15   0.000925    4.67  0.000090  ( 0.003047 -0.006632  0.006061)
 71:   3238.61   0.001532    7.74  0.000148  (-0.011027  0.002310 -0.004546)
 72:   3257.68   0.002661   13.45  0.000255  (-0.001040 -0.012470  0.009917)
 73:   3263.15   0.000393    1.99  0.000038  (-0.002504  0.004027 -0.003888)
 74:   3968.92   0.019431   98.20  0.001528  (-0.037910 -0.009395 -0.001542)

* The epsilon (eps) is given for a Dirac delta lineshape.
** The dipole moment derivative (T) already includes vibrational overlap.

The first frequency considered to be a vibration is 6
The total number of vibrations considered is 69


--------------------------
THERMOCHEMISTRY AT 298.15K
--------------------------

Temperature         ...   298.15 K
Pressure            ...     1.00 atm
Total Mass          ...   150.22 AMU
Quasi RRHO          ...     True
Cut-Off Frequency   ...     1.00 cm^-1

Throughout the following assumptions are being made:
  (1) The electronic state is orbitally nondegenerate
  (2) There are no thermally accessible electronically excited states
  (3) Hindered rotations indicated by low frequency modes are not
      treated as such but are treated as vibrations and this may
      cause some error
  (4) All equations used are the standard statistical mechanics
      equations for an ideal gas
  (5) All vibrations are strictly harmonic

freq.      34.95  E(vib)   ...       0.54 
freq.      96.06  E(vib)   ...       0.47 
freq.     169.42  E(vib)   ...       0.38 
freq.     181.38  E(vib)   ...       0.37 
freq.     183.73  E(vib)   ...       0.37 
freq.     233.10  E(vib)   ...       0.32 
freq.     261.75  E(vib)   ...       0.30 
freq.     274.90  E(vib)   ...       0.28 
freq.     295.09  E(vib)   ...       0.27 
freq.     313.48  E(vib)   ...       0.25 
freq.     316.44  E(vib)   ...       0.25 
freq.     390.09  E(vib)   ...       0.20 
freq.     430.00  E(vib)   ...       0.18 
freq.     484.39  E(vib)   ...       0.15 
freq.     504.31  E(vib)   ...       0.14 
freq.     537.65  E(vib)   ...       0.12 
freq.     594.93  E(vib)   ...       0.10 
freq.     676.56  E(vib)   ...       0.08 
freq.     720.91  E(vib)   ...       0.07 
freq.     753.92  E(vib)   ...       0.06 
freq.     792.71  E(vib)   ...       0.05 
freq.     844.16  E(vib)   ...       0.04 
freq.     917.60  E(vib)   ...       0.03 
freq.     918.14  E(vib)   ...       0.03 
freq.     953.94  E(vib)   ...       0.03 
freq.     979.69  E(vib)   ...       0.03 
freq.     981.03  E(vib)   ...       0.02 
freq.     995.26  E(vib)   ...       0.02 
freq.    1032.87  E(vib)   ...       0.02 
freq.    1084.22  E(vib)   ...       0.02 
freq.    1108.95  E(vib)   ...       0.02 
freq.    1165.17  E(vib)   ...       0.01 
freq.    1171.60  E(vib)   ...       0.01 
freq.    1186.00  E(vib)   ...       0.01 
freq.    1219.00  E(vib)   ...       0.01 
freq.    1240.77  E(vib)   ...       0.01 
freq.    1276.31  E(vib)   ...       0.01 
freq.    1324.39  E(vib)   ...       0.01 
freq.    1341.64  E(vib)   ...       0.01 
freq.    1358.07  E(vib)   ...       0.01 
freq.    1381.23  E(vib)   ...       0.01 
freq.    1422.30  E(vib)   ...       0.00 
freq.    1435.40  E(vib)   ...       0.00 
freq.    1447.52  E(vib)   ...       0.00 
freq.    1452.04  E(vib)   ...       0.00 
freq.    1508.31  E(vib)   ...       0.00 
freq.    1515.11  E(vib)   ...       0.00 
freq.    1519.03  E(vib)   ...       0.00 
freq.    1524.35  E(vib)   ...       0.00 
freq.    1531.58  E(vib)   ...       0.00 
freq.    1537.50  E(vib)   ...       0.00 
freq.    1542.80  E(vib)   ...       0.00 
freq.    1597.06  E(vib)   ...       0.00 
freq.    1690.56  E(vib)   ...       0.00 
freq.    1745.27  E(vib)   ...       0.00 
freq.    3087.57  E(vib)   ...       0.00 
freq.    3098.30  E(vib)   ...       0.00 
freq.    3100.86  E(vib)   ...       0.00 
freq.    3105.26  E(vib)   ...       0.00 
freq.    3162.39  E(vib)   ...       0.00 
freq.    3187.71  E(vib)   ...       0.00 
freq.    3191.16  E(vib)   ...       0.00 
freq.    3196.79  E(vib)   ...       0.00 
freq.    3198.07  E(vib)   ...       0.00 
freq.    3207.15  E(vib)   ...       0.00 
freq.    3238.61  E(vib)   ...       0.00 
freq.    3257.68  E(vib)   ...       0.00 
freq.    3263.15  E(vib)   ...       0.00 
freq.    3968.92  E(vib)   ...       0.00 

------------
INNER ENERGY
------------

The inner energy is: U= E(el) + E(ZPE) + E(vib) + E(rot) + E(trans)
    E(el)   - is the total energy from the electronic structure calculation
              = E(kin-el) + E(nuc-el) + E(el-el) + E(nuc-nuc)
    E(ZPE)  - the the zero temperature vibrational energy from the frequency calculation
    E(vib)  - the the finite temperature correction to E(ZPE) due to population
              of excited vibrational states
    E(rot)  - is the rotational thermal energy
    E(trans)- is the translational thermal energy

Summary of contributions to the inner energy U:
Electronic energy                ...    -81.48168853 Eh
Zero point energy                ...      0.22202622 Eh     139.32 kcal/mol
Thermal vibrational correction   ...      0.00848749 Eh       5.33 kcal/mol
Thermal rotational correction    ...      0.00141627 Eh       0.89 kcal/mol
Thermal translational correction ...      0.00141627 Eh       0.89 kcal/mol
-----------------------------------------------------------------------
Total thermal energy                    -81.24834227 Eh


Summary of corrections to the electronic energy:
(perhaps to be used in another calculation)
Total thermal correction                  0.01132004 Eh       7.10 kcal/mol
Non-thermal (ZPE) correction              0.22202622 Eh     139.32 kcal/mol
-----------------------------------------------------------------------
Total correction                          0.23334626 Eh     146.43 kcal/mol


--------
ENTHALPY
--------

The enthalpy is H = U + kB*T
                kB is Boltzmann's constant
Total thermal energy              ...    -81.24834227 Eh 
Thermal Enthalpy correction       ...      0.00094421 Eh       0.59 kcal/mol
-----------------------------------------------------------------------
Total Enthalpy                    ...    -81.24739807 Eh


Note: Only C1 symmetry has been detected, increase convergence thresholds 
      if your molecule has a higher symmetry. Symmetry factor of 1.0 is   
      used for the rotational entropy correction. 
 

Note: Rotational entropy computed according to Herzberg 
Infrared and Raman Spectra, Chapter V,1, Van Nostrand Reinhold, 1945 
Point Group:  C1, Symmetry Number:   1  
Rotational constants in cm-1:     0.072986     0.022682     0.019531 

Vibrational entropy computed according to the QRRHO of S. Grimme
Chem.Eur.J. 2012 18 9955 using a reference frequency of 100.0 cm-1


-------
ENTROPY
-------

The entropy contributions are T*S = T*(S(el)+S(vib)+S(rot)+S(trans))
     S(el)   - electronic entropy
     S(vib)  - vibrational entropy
     S(rot)  - rotational entropy
     S(trans)- translational entropy
The entropies will be listed as multiplied by the temperature to get
units of energy

Electronic entropy                ...      0.00000000 Eh      0.00 kcal/mol
Vibrational entropy               ...      0.01435326 Eh      9.01 kcal/mol
Rotational entropy                ...      0.01439197 Eh      9.03 kcal/mol
Translational entropy             ...      0.01944758 Eh     12.20 kcal/mol
-----------------------------------------------------------------------
Final entropy term                ...      0.04819281 Eh     30.24 kcal/mol

In case the symmetry of your molecule has not been determined correctly
or in case you have a reason to use a different symmetry number we print 
out the resulting rotational entropy values for sn=1,12:

 non-linear molecules -----------------------------------
|  sn= 1 | S(rot)=       0.01439197 Eh      9.03 kcal/mol|
|  sn= 2 | S(rot)=       0.01373751 Eh      8.62 kcal/mol|
|  sn= 3 | S(rot)=       0.01335468 Eh      8.38 kcal/mol|
|  sn= 4 | S(rot)=       0.01308306 Eh      8.21 kcal/mol|
|  sn= 5 | S(rot)=       0.01287237 Eh      8.08 kcal/mol|
|  sn= 6 | S(rot)=       0.01270022 Eh      7.97 kcal/mol|
|  sn= 7 | S(rot)=       0.01255468 Eh      7.88 kcal/mol|
|  sn= 8 | S(rot)=       0.01242860 Eh      7.80 kcal/mol|
|  sn= 9 | S(rot)=       0.01231739 Eh      7.73 kcal/mol|
|  sn=10 | S(rot)=       0.01221791 Eh      7.67 kcal/mol|
|  sn=11 | S(rot)=       0.01212792 Eh      7.61 kcal/mol|
|  sn=12 | S(rot)=       0.01204577 Eh      7.56 kcal/mol|
 linear molecules ---------------------------------------
|  Dinfh | S(rot)=       0.00904189 Eh      5.67 kcal/mol|
|  Cinfv | S(rot)=       0.00969634 Eh      6.08 kcal/mol|
 --------------------------------------------------------


-------------------
GIBBS FREE ENERGY
-------------------

The Gibbs free energy is G = H - T*S

Total enthalpy                    ...    -81.24739807 Eh 
Total entropy correction          ...     -0.04819281 Eh    -30.24 kcal/mol
-----------------------------------------------------------------------
Final Gibbs free energy         ...    -81.29559087 Eh

For completeness - the Gibbs free energy minus the electronic energy
G-E(el)                           ...      0.18609766 Eh    116.78 kcal/mol


Maximum memory used throughout the entire PROP-calculation: 111.4 MB

--------------------------------
SUGGESTED CITATIONS FOR THIS RUN
--------------------------------

Below you find a list of papers that are relevant to this ORCA run
We neither can nor want to force you to cite these papers, but we appreciate if you do
You receive ORCA, which is the product of decades of hard work by many enthusiastic individuals, for free
The only thing we kindly ask in return is that you cite our papers,
We deeply appreciate it, if you show your appreciation for ORCA by not just citing the generic ORCA reference.

Please note that relegating all ORCA citations to the supporting information does *not* help us.
SI sections are not indexed - citations you put there will not count into any citation statistics
But we need these citations in order to attract the funding resources that allow us to do what we are doing

Therefore, if you are a happy ORCA user, please consider citing a few of the papers listed below in the main body of your paper

In addition to the list printed below, the program has created the file ./output/carvacrol/carvacrol.bibtex that contains the list in bibtex format
You can import this file easily into all common literature databanks and citation aid programs


List of essential papers. We consider these as the minimum necessary citations

  1. Neese,F.
     Software update: the ORCA program system, version 5.0
     WIRES Comput. Molec. Sci., 2022 12(1)e1606
     doi.org/10.1002/wcms.1606
  2. Mueller,M.; Hansen,A.; Grimme,S.
     wB97X-3c: A composite range-separated hybrid DFT method with a molecule-optimized polarized valence double-zeta basis set
     J. Chem. Phys., 2023 158 014103
     doi.org/10.1063/5.0133026

List of papers to cite with high priority. The work reported in these papers was absolutely
necessary for this run to complete.
Our perspective: the developers of density functionals and basis sets usually get cited in chemistry papers
Good! But without the algorithms to do something with them, the functionals or basis sets would not do anything.
Hence, in our opinion, the algorithm design and method developments papers are equally worthy of getting cited

  1. Neese,F.
     An improvement of the resolution of the identity approximation for the formation of the Coulomb matrix
     J. Comp. Chem., 2003 24(14)1740-1747
     doi.org/10.1002/jcc.10318
  2. Neese,F.; Wennmohs,F.; Hansen,A.; Becker,U.
     Efficient, approximate and parallel Hartree-Fock and hybrid DFT calculations. A 'chain-of-spheres' algorithm for the Hartree-Fock exchange
     Chem. Phys., 2009 356(1-3)98-109
     doi.org/10.1016/j.chemphys.2008.10.036
  3. Bykov,D.; Petrenko,T.; Izsak,R.; Kossmann,S.; Becker,U.; Valeev,E.; Neese,F.
     Efficient implementation of the analytic second derivatives of Hartree-Fock and hybrid DFT energies: a detailed analysis of different approximations
     Molec. Phys., 2015 113 1961-1977
     doi.org/10.1080/00268976.2015.1025114
  4. Helmich-Paris,B.; de Souza,B.; Neese,F.; Izsák,R.
     An improved chain of spheres for exchange algorithm
     J. Chem. Phys., 2021 155 104109
     doi.org/doi: 10.1063/5.0058766.
  5. Neese,F.
     The SHARK Integral Generation and Digestion System
     J. Comp. Chem., 2022  1-16
     doi.org/10.1002/jcc.26942
  6. Caldeweyher,E.; Bannwarth,C.; Grimme,S.
     Extension of the D3 dispersion coefficient model
     J. Chem. Phys., 2017 147 034112
     doi.org/10.1063/1.4993215
  7. Caldeweyher,E.; Ehlert,S.; Hansen,A.; Neugebauer,H.; Spicher,S.; Bannwarth,C.; Grimme,S.
     A generally applicable atomic-charge dependent London dispersion correction
     J. Chem. Phys., 2019 150 154122
     doi.org/10.1063/1.5090222
  8. Caldeweyher,E.; Mewes,J.; Ehlert,S.; Grimme,S.
     Extension and evaluation of the D4 London-dispersion model for periodic systems
     Phys. Chem. Chem. Phys., 2020 22(16)8499-8512
     doi.org/10.1039/D0CP00502A
  9. Wittmann,L.; Gordiy,I.; Friede,M.; Helmich-Paris,B.; Grimme,S.; Hansen,A.; Bursch,M.
     Extension of the D3 and D4 London Dispersion Corrections to the full Actinides Series
     Phys. Chem. Chem. Phys., 2024 26(32)21379-21394
     doi.org/https://doi.org/10.1039/D4CP01514B 

List of suggested additional citations. These are papers that are important in the 'surrounding' of 
of this run, or papers that preceded the highly important papers. If you like your results we are grateful for a citation.

  1. Izsak,R.; Neese,F.
     An overlap fitted chain of spheres exchange method
     J. Chem. Phys., 2011 135 144105
     doi.org/10.1063/1.3646921
  2. Izsak,R.; Hansen,A.; Neese,F.
     The resolution of identity and chain of spheres approximations for the LPNO-CCSD singles Fock term
     Molec. Phys., 2012 110 2413-2417
     doi.org/10.1080/00268976.2012.687466
  3. Neese,F.
     The ORCA program system
     WIRES Comput. Molec. Sci., 2012 2(1)73-78
     doi.org/10.1002/wcms.81
  4. Izsak,R.; Neese,F.; Klopper,W.
     Robust fitting techniques in the chain of spheres approximation to the Fock exchange: The role of the complementary space
     J. Chem. Phys., 2013 139 
     doi.org/10.1063/1.4819264
  5. Neese,F.
     Software update: the ORCA program system, version 4.0
     WIRES Comput. Molec. Sci., 2018 8(1)1-6
     doi.org/10.1002/wcms.1327
  6. Neese,F.; Wennmohs,F.; Becker,U.; Riplinger,C.
     The ORCA quantum chemistry program package
     J. Chem. Phys., 2020 152 Art. No. L224108
     doi.org/10.1063/5.0004608

List of optional additional citations

  1. Neese,F.
     Approximate second-order SCF convergence for spin unrestricted wavefunctions
     Chem. Phys. Lett., 2000 325(1-3)93-98
     doi.org/10.1016/s0009-2614(00)00662-x

Timings for individual modules:

Sum of individual times          ...      498.412 sec (=   8.307 min)
Startup calculation              ...       25.440 sec (=   0.424 min)   5.1 %
SCF iterations                   ...      262.814 sec (=   4.380 min)  52.7 %
Property integrals               ...       44.031 sec (=   0.734 min)   8.8 %
SCF Response                     ...       37.043 sec (=   0.617 min)   7.4 %
Property calculations            ...       75.954 sec (=   1.266 min)  15.2 %
SCF Gradient evaluation          ...       53.028 sec (=   0.884 min)  10.6 %
Geometry relaxation              ...        0.102 sec (=   0.002 min)   0.0 %
                             ****ORCA TERMINATED NORMALLY****
TOTAL RUN TIME: 0 days 0 hours 8 minutes 21 seconds 840 msec
