
                                 *****************
                                 * O   R   C   A *
                                 *****************

                                            #,                                       
                                            ###                                      
                                            ####                                     
                                            #####                                    
                                            ######                                   
                                           ########,                                 
                                     ,,################,,,,,                         
                               ,,#################################,,                 
                          ,,##########################################,,             
                       ,#########################################, ''#####,          
                    ,#############################################,,   '####,        
                  ,##################################################,,,,####,       
                ,###########''''           ''''###############################       
              ,#####''   ,,,,##########,,,,          '''####'''          '####       
            ,##' ,,,,###########################,,,                        '##       
           ' ,,###''''                  '''############,,,                           
         ,,##''                                '''############,,,,        ,,,,,,###''
      ,#''                                            '''#######################'''  
     '                                                          ''''####''''         
             ,#######,   #######,   ,#######,      ##                                
            ,#'     '#,  ##    ##  ,#'     '#,    #''#        ,####,   ,####,        
            ##       ##  ##   ,#'  ##            #'  '#       #'       #'  '#        
            ##       ##  #######   ##           ,######,      #####,   #    #        
            '#,     ,#'  ##    ##  '#,     ,#' ,#      #,     #,   #   #,  ,#        
             '#######'   ##     ##  '#######'  #'      '#     '####' # '####'        



                #########################################################
                #                        -***-                          #
                #          Department of theory and spectroscopy        #
                #                                                       #
                #                      Frank Neese                      #
                #                                                       #
                #     Directorship, Architecture, Infrastructure        #
                #                    SHARK, DRIVERS                     #
                #        Core code/Algorithms in most modules           #
                #                                                       #
                #        Max Planck Institute fuer Kohlenforschung      #
                #                Kaiser Wilhelm Platz 1                 #
                #                 D-45470 Muelheim/Ruhr                 #
                #                      Germany                          #
                #                                                       #
                #                  All rights reserved                  #
                #                        -***-                          #
                #########################################################


                         Program Version 6.0.1  -  RELEASE   -


 With contributions from (in alphabetic order):
[Max-Planck-Institut fuer Kohlenforschung]                               
  Daniel Aravena         : Magnetic Suceptibility                        
  Michael Atanasov       : Ab Initio Ligand Field Theory (pilot matlab implementation)
  Alexander A. Auer      : GIAO ZORA, VPT2 properties, NMR spectrum      
  Ute Becker             : All parallelization in ORCA, NUMFREQ, NUMCALC 
  Giovanni Bistoni       : ED, misc. LED, open-shell LED, HFLD           
  Martin Brehm           : Molecular dynamics                            
  Dmytro Bykov           : pre 5.0 version of the SCF Hessian            
  Marcos Casanova-Páez   : Triplet and SCS-CIS(D). UHF-(DLPNO)-IP/EA/STEOM-CCSD. UHF-CVS-IP/STEOM-CCSD   
  Vijay G. Chilkuri      : MRCI spin determinant printing, contributions to CSF-ICE 
  Pauline Colinet        : FMM embedding                                 
  Dipayan Datta          : RHF DLPNO-CCSD density                        
  Achintya Kumar Dutta   : EOM-CC, STEOM-CC                              
  Nicolas Foglia         : Exact transition moments, OPA infrastructure, MCD improvements    
  Dmitry Ganyushin       : Spin-Orbit,Spin-Spin,Magnetic field MRCI      
  Miquel Garcia-Rates    : C-PCM and meta-GGA Hessian, CCSD/C-PCM, Gaussian charge scheme 
  Tiago L. C. Gouveia    : GS-ROHF, GS-ROCIS                             
  Yang Guo               : DLPNO-NEVPT2, F12-NEVPT2, CIM, IAO-localization        
  Andreas Hansen         : Spin unrestricted coupled pair/coupled cluster methods 
  Ingolf Harden          : AUTO-CI MPn and infrastructure                
  Benjamin Helmich-Paris : MC-RPA, TRAH-(SCF,CASSCF), AVAS, COSX integrals, SCF dyn. polar. 
  Lee Huntington         : MR-EOM, pCC                                   
  Robert Izsak           : Overlap fitted RIJCOSX, COSX-SCS-MP3, EOM     
  Riya Kayal             : Wick's Theorem for AUTO-CI, AUTO-CI UHF-CCSDT 
  Emily Kempfer          : AUTO-CI, RHF CISDT and CCSDT                  
  Christian Kollmar      : KDIIS, OOCD, Brueckner-CCSD(T), CCSD density, CASPT2, CASPT2-K, improved NEVPT2 
  Axel Koslowski         : Symmetry handling                             
  Simone Kossmann        : meta-GGA functionals, TD-DFT gradient, OOMP2, (MP2 Hessian; deprecated post 5.0) 
  Lucas Lang             : DCDCAS                                        
  Marvin Lechner         : AUTO-CI (C++ implementation), FIC-MRCC        
  Spencer Leger          : CASSCF response                               
  Dagmar Lenk            : GEPOL surface, SMD, ORCA-2-JSON               
  Dimitrios Liakos       : Extrapolation schemes; Compound Job, initial MDCI parallelization 
  Dimitrios Manganas     : Further ROCIS development; embedding schemes. LFT, Crystal Embedding 
  Dimitrios Pantazis     : SARC Basis sets                               
  Anastasios Papadopoulos: AUTO-CI, single reference methods and gradients 
  Taras Petrenko         : pre 6.0 DFT Hessian and TD-DFT gradient, (ASA, deprecated), ECA, 1-Electron XAS/XES, NRVS 
  Peter Pinski           : DLPNO-MP2, DLPNO-MP2 Gradient                 
  Christoph Reimann      : Effective Core Potentials                     
  Marius Retegan         : Local ZFS, SOC                                
  Christoph Riplinger    : Optimizer, TS searches, QM/MM, DLPNO-CCSD(T), (RO)-DLPNO pert. Triples 
  Michael Roemelt        : Original ROCIS implementation                 
  Masaaki Saitow         : Open-shell DLPNO-CCSD energy and density      
  Barbara Sandhoefer     : DKH picture change effects                    
  Kantharuban Sivalingam : CASSCF convergence/infrastructure, NEVPT2 and variants, FIC-MRCI 
  Bernardo de Souza      : ESD, SOC TD-DFT                               
  Georgi L. Stoychev     : AutoAux, RI-MP2 NMR, DLPNO-MP2 response, X2C  
  Van Anh Tran           : RI-MP2 g-tensors                              
  Willem Van den Heuvel  : Paramagnetic NMR                              
  Zikuan Wang            : NOTCH, Electric field optimization            
  Frank Wennmohs         : Technical directorship and infrastructure     
  Hang Xu                : AUTO-CI-Response properties                   
                                                                         
[FACCTs GmbH]                                                            
  Markus Bursch, Miquel Garcia-Rates, Christoph Riplinger, Bernardo de Souza, Georgi L. Stoychev 
                                                                 
  APM, Basis sets (HGBS, AHGBS, def-TZVP (Ac-Lr), def2-XVPD (La-Lu)), CI-OPT, improved COSX, DLPNO-Multilevel,           
  DOCKER, DRACO, updates on ESD, GOAT, IRC, LR-CPCM, MBIS, meta-GGA TD-DFT gradient, ML-optimized integration grids, 
  MM, NACMEs, nearIR, NEB, NEB-TS, NL-DFT gradient (VV10), 2- and 3-layer-ONIOM, interface openCOSMO-RS, QMMM,   
  Crystal-QMMM, SF, symmetry and pop. for TD-DFT, r2SCAN hybrids, SOLVATOR                                   
                                                                         
[Other institutions]                                                     
  V. Asgeirsson          : NEB                                           
  Christoph Bannwarth    : sTDA-DFT, sTD-DFT, PBEh-3c, B97-3c, D3        
  Sebastian Ehlert       : rSCAN, r2SCAN, r2SCAN-3c, D4, dhf basis sets  
  Marvin Friede          : D4 for Fr, Ra, Ac-Lr                          
  Lars Goerigk           : TD-DFT with DH, B97 family of functionals     
  Stefan Grimme          : VdW corrections, initial TS optimization, DFT functionals, gCP, sTDA/sTD-DF 
  Waldemar Hujo          : DFT-NL                                        
  H. Jonsson             : NEB                                           
  Holger Kruse           : gCP                                           
  Marcel Mueller         : wB97X-3c, vDZP basis set                      
  Hagen Neugebauer       : wr2SCAN                                       
  Tobias Risthaus        : range-separated hybrid DFT                    
  Lukas Wittmann         : regularized MP2, r2SCAN double-hybrids, wr2SCAN        
                                                                         
We gratefully acknowledge several colleagues who have allowed us to      
interface, adapt or use parts of their codes:                            
  Ed Valeev, F. Pavosevic, A. Kumar             : LibInt (2-el integral package), F12 methods 
  Garnet Chan, S. Sharma, J. Yang, R. Olivares  : DMRG                   
  Ulf Ekstrom                                   : XCFun DFT Library      
  Mihaly Kallay                                 : mrcc  (arbitrary order and MRCC methods)
  Frank Weinhold                                : gennbo (NPA and NBO analysis)           
  Simon Mueller                                 : openCOSMO-RS                            
  Christopher J. Cramer and Donald G. Truhlar   : smd solvation model                     
  S Lehtola, MJT Oliveira, MAL Marques          : LibXC Library                           
  Liviu Ungur et al                             : ANISO software                          


 Your calculation uses the libint2 library for the computation of 2-el integrals
 For citations please refer to: http://libint.valeyev.net

 Your ORCA version has been built with support for libXC version: 6.2.2
 For citations please refer to: https://libxc.gitlab.io

 This ORCA versions uses:
   CBLAS   interface :  Fast vector & matrix operations
   LAPACKE interface :  Fast linear algebra routines
   SCALAPACK package :  Parallel linear algebra routines
   Shared memory     :  Shared parallel matrices
   BLAS/LAPACK       :  OpenBLAS 0.3.27  USE64BITINT DYNAMIC_ARCH NO_AFFINITY SkylakeX SINGLE_THREADED
        Core in use  :  SkylakeX
   Copyright (c) 2011-2014, The OpenBLAS Project


Your calculation utilizes the atom-pairwise dispersion correction
based on EEQ partial charges (D4)


================================================================================

cite the ECPs for C  [vDZP-ECP], O  [vDZP-ECP] as follows:
   B-Ne (ecp-2-mwb), Al-Ar (ecp-10-mwb), Ga-Kr (ecp-28-mwb), Y-Cd (ecp-28-mwb), In-Xe (ecp-46-mwb):
     A. Bergner, M. Dolg, W. Küchle, H. Stoll, and H. Preuß, Mol. Phys. 80, 1431 (1993)., T. Leininger, A. Berning, A. Nicklass, H. Stoll, H.-J. Werner, and H.-J.Flad, Chem. Phys. 217, 19 (1997).
   Na-Mg, K-Ca, Rb-Sr, Cs-Ba (CRENBL):
     L. Fernandez Pacios and P. A. Christiansen, J. Chem. Phys. 82, 2664 (1985)., M. M. Hurley, L. F. Pacios, P. A. Christiansen, R. B. Ross, and W. C. Ermler, J. Chem. Phys. 84, 6840 (1986)., L. A. LaJohn, P. A. Christiansen, R. B. Ross, T. Atashroo, and W. C. Ermler, J. Chem. Phys. 87, 2812 (1987)., R. B. Ross, J. M. Powers, T. Atashroo, W. C. Ermler, L. A. LaJohn, and P. A. Christiansen, J. Chem. Phys. 93, 6654 (1990). 
   Sc-Zn (ecp-10-mdf):
     M. Dolg, U. Wedig, H. Stoll, and H. Preuss, J. Chem. Phys. 86, 866 (1986). 
   Y-Cd (ecp-28-mwb), Hf-Hg (ecp-60-mwb):
     D. Andrae, U. Häußermann, M. Dolg, H. Stoll, and H. Preuß, Theor. Chim. Acta 77, 123 (1990). 
   La (ecp-46-mwb):
     M. Dolg, H. Stoll, and H. Preuss, J. Chem. Phys. 90, 1730 (1989)., M. Dolg, H. Stoll, and H. Preuss, Theor. Chim. Acta 85, 441 (1993).
   Ce-Lu (SBKJC-ecp):
     T. R. Cundari and W. J. Stevens, J. Chem. Phys. 98, 5555 (1993).
   Tl-Rn (ecp-78-mwb):
     W. Küchle, M. Dolg, H. Stoll, and H. Preuss, Mol. Phys. 74, 1245 (1991).

ECP parameters for C  [vDZP-ECP], O  [vDZP-ECP] have been obtained from:
MM, AH, SG, J. Chem. Phys. 158, 014103 (2023), 10.1063/5.0133026

----- Orbital basis set information -----
Your calculation utilizes the basis: vDZP
   Marcel Mueller, Andreas Hansen, Stefan Grimme 
   J. Chem. Phys. 158, 014103 (2023). DOI: 10.1063/5.0133026

----- AuxJ basis set information -----
Your calculation utilizes the auxiliary basis: def2/J
   F. Weigend, Phys. Chem. Chem. Phys. 8, 1057 (2006).

================================================================================
                                        WARNINGS
                       Please study these warnings very carefully!
================================================================================

WARNING: Frozen-Core approximation turned on, but there are no core electrons.
  ===> : Turning off frozen-core approximation


WARNING: Geometry Optimization
  ===> : Switching off AutoStart
         For restart on a previous wavefunction, please use MOREAD

================================================================================
                                       INPUT FILE
================================================================================
NAME = ./output/isomenthone/isomenthone.inp
|  1> ! wB97X-3c OPT FREQ TightSCF
|  2> %pal
|  3>   nprocs 40
|  4> end
|  5> * xyz 0 1
|  6> C     -3.675661     0.106195    -0.434383
|  7> C     -2.145946     0.012067    -0.431242
|  8> C     -1.517069     1.317189     0.099806
|  9> C      0.033038     1.276765     0.159248
| 10> C      0.654230    -0.120480    -0.107369
| 11> C     -0.185158    -1.161279     0.618954
| 12> O      0.315966    -1.948279     1.408257
| 13> C     -1.676780    -1.187034     0.414229
| 14> C      2.176504    -0.193205     0.248925
| 15> C      2.818876    -1.470678    -0.325538
| 16> C      2.964393     1.022409    -0.273572
| 17> H     -4.114376    -0.832335    -0.835451
| 18> H     -4.062757     0.272444     0.593948
| 19> H     -4.004868     0.947302    -1.081081
| 20> H     -1.818400    -0.138662    -1.484337
| 21> H     -1.909206     1.517325     1.122074
| 22> H     -1.835674     2.167009    -0.543388
| 23> H      0.356771     1.637078     1.160864
| 24> H      0.424770     1.994096    -0.594453
| 25> H      0.557745    -0.319075    -1.198326
| 26> H     -2.167866    -1.154834     1.411938
| 27> H     -1.961027    -2.137309    -0.087001
| 28> H      2.289744    -0.211442     1.355808
| 29> H      2.322968    -2.386040     0.052999
| 30> H      3.888134    -1.529174    -0.029326
| 31> H      2.758115    -1.472044    -1.435198
| 32> H      4.053013     0.885853    -0.097567
| 33> H      2.666102     1.946490     0.263836
| 34> H      2.794421     1.159648    -1.363133
| 35> *
| 36> 
| 37>                          ****END OF INPUT****
================================================================================

                       *****************************
                       * Geometry Optimization Run *
                       *****************************

Geometry optimization settings:
Update method            Update   .... BFGS
Choice of coordinates    CoordSys .... (2022) Redundant Internals
Initial Hessian          InHess   .... Almloef's Model
Max. no of cycles        MaxIter  .... 87

Convergence Tolerances:
Energy Change            TolE     ....  5.0000e-06 Eh
Max. Gradient            TolMAXG  ....  3.0000e-04 Eh/bohr
RMS Gradient             TolRMSG  ....  1.0000e-04 Eh/bohr
Max. Displacement        TolMAXD  ....  4.0000e-03 bohr
RMS Displacement         TolRMSD  ....  2.0000e-03 bohr
Strict Convergence                .... False

------------------------------------------------------------------------------
                        ORCA OPTIMIZATION COORDINATE SETUP
------------------------------------------------------------------------------

The optimization will be done in redundant internal coordinates (2022)
Making redundant internal coordinates   ...  (2022 redundants) done
Evaluating the initial hessian          ...  (Almloef) done
Evaluating the coordinates              ...  done
Calculating the B-matrix                .... done
Calculating the G-matrix                .... done
Diagonalizing the G-matrix              .... done
Small eigenvalue found = 1.682e-02
The first mode is                       ....   63
The number of degrees of freedom        ....   81

    -----------------------------------------------------------------
                    Redundant Internal Coordinates


    -----------------------------------------------------------------
         Definition                    Initial Value    Approx d2E/dq
    -----------------------------------------------------------------
      1. B(C   1,C   0)                  1.5326         0.370008   
      2. B(C   2,C   1)                  1.5430         0.356156   
      3. B(C   3,C   2)                  1.5518         0.344858   
      4. B(C   4,C   3)                  1.5522         0.344345   
      5. B(C   5,C   4)                  1.5216         0.385230   
      6. B(O   6,C   5)                  1.2221         1.036984   
      7. B(C   7,C   5)                  1.5058         0.408268   
      8. B(C   7,C   1)                  1.5404         0.359593   
      9. B(C   8,C   4)                  1.5651         0.328375   
     10. B(C   9,C   8)                  1.5410         0.358820   
     11. B(C  10,C   8)                  1.5400         0.360147   
     12. B(H  11,C   0)                  1.1109         0.333450   
     13. B(H  12,C   0)                  1.1113         0.333020   
     14. B(H  13,C   0)                  1.1109         0.333510   
     15. B(H  14,C   1)                  1.1131         0.330790   
     16. B(H  15,C   2)                  1.1130         0.330875   
     17. B(H  16,C   2)                  1.1124         0.331672   
     18. B(H  17,C   3)                  1.1126         0.331419   
     19. B(H  18,C   3)                  1.1118         0.332395   
     20. B(H  19,C   4)                  1.1131         0.330832   
     21. B(H  20,C   7)                  1.1125         0.331549   
     22. B(H  21,C   7)                  1.1113         0.332962   
     23. B(H  22,C   8)                  1.1128         0.331155   
     24. B(H  23,C   9)                  1.1077         0.337372   
     25. B(H  24,C   9)                  1.1111         0.333279   
     26. B(H  25,C   9)                  1.1113         0.332969   
     27. B(H  26,C  10)                  1.1112         0.333145   
     28. B(H  27,C  10)                  1.1098         0.334807   
     29. B(H  28,C  10)                  1.1112         0.333063   
     30. A(C   1,C   0,H  12)          110.7914         0.319690   
     31. A(H  11,C   0,H  12)          108.8383         0.283878   
     32. A(C   1,C   0,H  13)          110.0892         0.319767   
     33. A(C   1,C   0,H  11)          110.0607         0.319757   
     34. A(H  12,C   0,H  13)          108.7958         0.283886   
     35. A(H  11,C   0,H  13)          108.2073         0.283943   
     36. A(C   0,C   1,H  14)          107.4626         0.319339   
     37. A(C   0,C   1,C   7)          110.6670         0.360403   
     38. A(C   2,C   1,C   7)          110.2060         0.358069   
     39. A(C   2,C   1,H  14)          108.6759         0.317359   
     40. A(C   0,C   1,C   2)          110.8275         0.359814   
     41. A(C   7,C   1,H  14)          108.9196         0.317856   
     42. A(C   1,C   2,H  16)          109.2961         0.317496   
     43. A(C   3,C   2,H  15)          108.7498         0.315712   
     44. A(C   1,C   2,H  15)          108.9412         0.317372   
     45. A(C   3,C   2,H  16)          109.1571         0.315835   
     46. A(C   1,C   2,C   3)          113.4707         0.355533   
     47. A(H  15,C   2,H  16)          107.0245         0.283358   
     48. A(C   4,C   3,H  17)          109.2513         0.315720   
     49. A(C   2,C   3,H  17)          108.4639         0.315796   
     50. A(C   2,C   3,C   4)          114.6231         0.353506   
     51. A(H  17,C   3,H  18)          107.3871         0.283526   
     52. A(C   4,C   3,H  18)          108.8653         0.315871   
     53. A(C   2,C   3,H  18)          108.0103         0.315947   
     54. A(C   5,C   4,C   8)          113.3341         0.357318   
     55. A(C   3,C   4,C   8)          113.0777         0.350591   
     56. A(C   8,C   4,H  19)          107.4063         0.313206   
     57. A(C   3,C   4,C   5)          108.2381         0.360218   
     58. A(C   5,C   4,H  19)          107.3368         0.321458   
     59. A(C   3,C   4,H  19)          107.1141         0.315629   
     60. A(C   4,C   5,O   6)          121.5050         0.434220   
     61. A(O   6,C   5,C   7)          118.8804         0.438788   
     62. A(C   4,C   5,C   7)          119.5534         0.370875   
     63. A(H  20,C   7,H  21)          108.4411         0.283619   
     64. A(C   1,C   7,C   5)          111.2853         0.366515   
     65. A(C   5,C   7,H  21)          109.2265         0.324876   
     66. A(C   1,C   7,H  21)          109.8877         0.318195   
     67. A(C   5,C   7,H  20)          108.3514         0.324649   
     68. A(C   1,C   7,H  20)          109.5884         0.317975   
     69. A(C   9,C   8,C  10)          108.3388         0.358617   
     70. A(C   4,C   8,C  10)          112.5636         0.353261   
     71. A(C   4,C   8,C   9)          111.0455         0.353040   
     72. A(C  10,C   8,H  22)          107.3590         0.317993   
     73. A(C   9,C   8,H  22)          108.3488         0.317801   
     74. A(C   4,C   8,H  22)          109.0367         0.313256   
     75. A(H  24,C   9,H  25)          108.5876         0.283849   
     76. A(H  23,C   9,H  25)          108.4040         0.284388   
     77. A(C   8,C   9,H  25)          110.5156         0.318084   
     78. A(H  23,C   9,H  24)          107.2306         0.284429   
     79. A(C   8,C   9,H  24)          110.2083         0.318133   
     80. A(C   8,C   9,H  23)          111.7787         0.318767   
     81. A(H  27,C  10,H  28)          109.3196         0.284063   
     82. A(H  26,C  10,H  28)          108.6830         0.283844   
     83. A(C   8,C  10,H  28)          110.6037         0.318291   
     84. A(H  26,C  10,H  27)          106.7947         0.284074   
     85. A(C   8,C  10,H  27)          110.8216         0.318562   
     86. A(C   8,C  10,H  26)          110.5173         0.318303   
     87. D(C   7,C   1,C   0,H  11)    -58.4193         0.010944   
     88. D(C   2,C   1,C   0,H  11)    179.0021         0.010944   
     89. D(C   2,C   1,C   0,H  12)    -60.5768         0.010944   
     90. D(C   7,C   1,C   0,H  12)     62.0018         0.010944   
     91. D(C   2,C   1,C   0,H  13)     59.8098         0.010944   
     92. D(C   7,C   1,C   0,H  13)   -177.6116         0.010944   
     93. D(C   3,C   2,C   1,C   0)    178.7048         0.010192   
     94. D(H  15,C   2,C   1,H  14)    175.2778         0.010192   
     95. D(C   3,C   2,C   1,H  14)    -63.4235         0.010192   
     96. D(H  15,C   2,C   1,C   7)    -65.4400         0.010192   
     97. D(C   3,C   2,C   1,C   7)     55.8587         0.010192   
     98. D(H  15,C   2,C   1,C   0)     57.4061         0.010192   
     99. D(C   4,C   3,C   2,H  16)   -131.2578         0.009605   
    100. D(C   4,C   3,C   2,H  15)    112.3036         0.009605   
    101. D(C   4,C   3,C   2,C   1)     -9.1024         0.009605   
    102. D(H  17,C   3,C   2,H  16)    106.3706         0.009605   
    103. D(H  17,C   3,C   2,H  15)    -10.0679         0.009605   
    104. D(H  17,C   3,C   2,C   1)   -131.4739         0.009605   
    105. D(C   8,C   4,C   3,H  18)     70.8807         0.009579   
    106. D(C   8,C   4,C   3,C   2)   -168.0528         0.009579   
    107. D(C   5,C   4,C   3,H  18)   -162.6978         0.009579   
    108. D(C   5,C   4,C   3,H  17)     80.3125         0.009579   
    109. D(C   8,C   4,C   3,H  17)    -46.1090         0.009579   
    110. D(C   5,C   4,C   3,C   2)    -41.6313         0.009579   
    111. D(C   7,C   5,C   4,C   3)     51.7010         0.011056   
    112. D(O   6,C   5,C   4,H  19)    119.2732         0.011056   
    113. D(O   6,C   5,C   4,C   8)      0.8513         0.011056   
    114. D(O   6,C   5,C   4,C   3)   -125.4208         0.011056   
    115. D(C   7,C   5,C   4,C   8)    177.9731         0.011056   
    116. D(C   5,C   7,C   1,C   2)    -47.5354         0.010376   
    117. D(C   5,C   7,C   1,C   0)   -170.4754         0.010376   
    118. D(H  21,C   7,C   5,C   4)    115.0870         0.012349   
    119. D(H  20,C   7,C   5,C   4)   -126.9661         0.012349   
    120. D(C   1,C   7,C   5,O   6)    170.7832         0.012349   
    121. D(C   1,C   7,C   5,C   4)     -6.4144         0.012349   
    122. D(H  20,C   7,C   1,H  14)   -168.5808         0.010376   
    123. D(H  20,C   7,C   1,C   2)     72.2853         0.010376   
    124. D(H  20,C   7,C   5,O   6)     50.2315         0.012349   
    125. D(H  20,C   7,C   1,C   0)    -50.6547         0.010376   
    126. D(C   5,C   7,C   1,H  14)     71.5985         0.010376   
    127. D(C  10,C   8,C   4,H  19)     72.6927         0.008790   
    128. D(C  10,C   8,C   4,C   5)   -168.9256         0.008790   
    129. D(C  10,C   8,C   4,C   3)    -45.2637         0.008790   
    130. D(C   9,C   8,C   4,H  19)    -48.9719         0.008790   
    131. D(C   9,C   8,C   4,C   5)     69.4097         0.008790   
    132. D(C   9,C   8,C   4,C   3)   -166.9284         0.008790   
    133. D(H  24,C   9,C   8,H  22)    -57.9467         0.010334   
    134. D(H  24,C   9,C   8,C  10)     58.2271         0.010334   
    135. D(H  24,C   9,C   8,C   4)   -177.6707         0.010334   
    136. D(H  23,C   9,C   8,H  22)     61.1955         0.010334   
    137. D(H  23,C   9,C   8,C  10)    177.3692         0.010334   
    138. D(H  23,C   9,C   8,C   4)    -58.5285         0.010334   
    139. D(H  27,C  10,C   8,H  22)    -52.2065         0.010405   
    140. D(H  27,C  10,C   8,C   9)   -169.0199         0.010405   
    141. D(H  27,C  10,C   8,C   4)     67.7903         0.010405   
    142. D(H  26,C  10,C   8,H  22)     65.9828         0.010405   
    143. D(H  26,C  10,C   8,C   9)    -50.8306         0.010405   
    144. D(H  26,C  10,C   8,C   4)   -174.0204         0.010405   
    -----------------------------------------------------------------

Number of atoms                         .... 29
Number of degrees of freedom            .... 144


         *************************************************************
         *                GEOMETRY OPTIMIZATION CYCLE   1            *
         *************************************************************
---------------------------------
CARTESIAN COORDINATES (ANGSTROEM)
---------------------------------
  C     -3.675661    0.106195   -0.434383
  C     -2.145946    0.012067   -0.431242
  C     -1.517069    1.317189    0.099806
  C      0.033038    1.276765    0.159248
  C      0.654230   -0.120480   -0.107369
  C     -0.185158   -1.161279    0.618954
  O      0.315966   -1.948279    1.408257
  C     -1.676780   -1.187034    0.414229
  C      2.176504   -0.193205    0.248925
  C      2.818876   -1.470678   -0.325538
  C      2.964393    1.022409   -0.273572
  H     -4.114376   -0.832335   -0.835451
  H     -4.062757    0.272444    0.593948
  H     -4.004868    0.947302   -1.081081
  H     -1.818400   -0.138662   -1.484337
  H     -1.909206    1.517325    1.122074
  H     -1.835674    2.167009   -0.543388
  H      0.356771    1.637078    1.160864
  H      0.424770    1.994096   -0.594453
  H      0.557745   -0.319075   -1.198326
  H     -2.167866   -1.154834    1.411938
  H     -1.961027   -2.137309   -0.087001
  H      2.289744   -0.211442    1.355808
  H      2.322968   -2.386040    0.052999
  H      3.888134   -1.529174   -0.029326
  H      2.758115   -1.472044   -1.435198
  H      4.053013    0.885853   -0.097567
  H      2.666102    1.946490    0.263836
  H      2.794421    1.159648   -1.363133

----------------------------
CARTESIAN COORDINATES (A.U.)
----------------------------
  NO LB      ZA    FRAG     MASS         X           Y           Z
   0 C     4.0000*   0    12.011   -6.945993    0.200679   -0.820865
   1 C     4.0000*   0    12.011   -4.055250    0.022803   -0.814929
   2 C     4.0000*   0    12.011   -2.866845    2.489126    0.188606
   3 C     4.0000*   0    12.011    0.062433    2.412736    0.300935
   4 C     4.0000*   0    12.011    1.236316   -0.227674   -0.202898
   5 C     4.0000*   0    12.011   -0.349898   -2.194499    1.169654
   6 O     6.0000*   0    15.999    0.597089   -3.681714    2.661220
   7 C     4.0000*   0    12.011   -3.168655   -2.243169    0.782779
   8 C     4.0000*   0    12.011    4.112996   -0.365105    0.470400
   9 C     4.0000*   0    12.011    5.326904   -2.779179   -0.615178
  10 C     4.0000*   0    12.011    5.601891    1.932073   -0.516976
  11 H     1.0000    0     1.008   -7.775044   -1.572885   -1.578774
  12 H     1.0000    0     1.008   -7.677498    0.514845    1.122399
  13 H     1.0000    0     1.008   -7.568104    1.790141   -2.042947
  14 H     1.0000    0     1.008   -3.436278   -0.262033   -2.804990
  15 H     1.0000    0     1.008   -3.607876    2.867329    2.120413
  16 H     1.0000    0     1.008   -3.468921    4.095054   -1.026855
  17 H     1.0000    0     1.008    0.674199    3.093629    2.193715
  18 H     1.0000    0     1.008    0.802699    3.768295   -1.123353
  19 H     1.0000    0     1.008    1.053985   -0.602964   -2.264508
  20 H     1.0000    0     1.008   -4.096673   -2.182320    2.668176
  21 H     1.0000    0     1.008   -3.705804   -4.038929   -0.164408
  22 H     1.0000    0     1.008    4.326989   -0.399567    2.562106
  23 H     1.0000    0     1.008    4.389773   -4.508962    0.100154
  24 H     1.0000    0     1.008    7.347508   -2.889720   -0.055418
  25 H     1.0000    0     1.008    5.212082   -2.781760   -2.712131
  26 H     1.0000    0     1.008    7.659085    1.674020   -0.184375
  27 H     1.0000    0     1.008    5.038203    3.678333    0.498578
  28 H     1.0000    0     1.008    5.280690    2.191417   -2.575948
* core charge reduced due to ECP

--------------------------------
INTERNAL COORDINATES (ANGSTROEM)
--------------------------------
 C      0   0   0     0.000000000000     0.00000000     0.00000000
 C      1   0   0     1.532611473104     0.00000000     0.00000000
 C      2   1   0     1.542997632635   110.82746209     0.00000000
 C      3   2   1     1.551772909478   113.47071023   178.70481118
 C      4   3   2     1.552178377500   114.62308595   350.89763935
 C      5   4   3     1.521637234453   108.23808010   318.36871115
 O      6   5   4     1.222085712700   121.50495155   234.57920839
 C      6   5   4     1.505825964889   119.55341036    51.70098760
 C      5   4   3     1.565104619870   113.07774611   191.94720654
 C      9   5   4     1.540969432040   111.04552179   193.07161096
 C      9   5   4     1.539964151637   112.56355271   314.73626338
 H      1   2   3     1.110929769494   110.06071566   179.00213393
 H      1   2   3     1.111281552433   110.79137318   299.42320156
 H      1   2   3     1.110880973598   110.08919382    59.80982210
 H      2   1   3     1.113110368554   107.46261532   241.39128810
 H      3   2   1     1.113039850629   108.94118408    57.40607229
 H      3   2   1     1.112385589650   109.29614048   300.78297603
 H      4   3   2     1.112592973515   108.46394950   228.52609056
 H      4   3   2     1.111792660880   108.01034146   112.43299845
 H      5   4   3     1.113075246827   107.11411954    73.82029440
 H      8   6   5     1.112486201297   108.35137439   233.03391249
 H      8   6   5     1.111328234832   109.22647766   115.08699792
 H      9   5   4     1.112809894572   109.03667769    73.75862912
 H     10   9   5     1.107746629820   111.77871112   301.47148284
 H     10   9   5     1.111069755472   110.20827677   182.32929437
 H     10   9   5     1.111323121633   110.51561348    62.30267262
 H     11   9   5     1.111179015983   110.51729683   185.97964377
 H     11   9   5     1.109824568887   110.82158145    67.79033996
 H     11   9   5     1.111246235821   110.60370497   306.38346286

---------------------------
INTERNAL COORDINATES (A.U.)
---------------------------
 C      0   0   0     0.000000000000     0.00000000     0.00000000
 C      1   0   0     2.896215953872     0.00000000     0.00000000
 C      2   1   0     2.915842950969   110.82746209     0.00000000
 C      3   2   1     2.932425820951   113.47071023   178.70481118
 C      4   3   2     2.933192044469   114.62308595   350.89763935
 C      5   4   3     2.875477648294   108.23808010   318.36871115
 O      6   5   4     2.309407309181   121.50495155   234.57920839
 C      6   5   4     2.845598678988   119.55341036    51.70098760
 C      5   4   3     2.957619102488   113.07774611   191.94720654
 C      9   5   4     2.912010207300   111.04552179   193.07161096
 C      9   5   4     2.910110502650   112.56355271   314.73626338
 H      1   2   3     2.099353018365   110.06071566   179.00213393
 H      1   2   3     2.100017791777   110.79137318   299.42320156
 H      1   2   3     2.099260807484   110.08919382    59.80982210
 H      2   1   3     2.103473753395   107.46261532   241.39128810
 H      3   2   1     2.103340493830   108.94118408    57.40607229
 H      3   2   1     2.102104119759   109.29614048   300.78297603
 H      4   3   2     2.102496018468   108.46394950   228.52609056
 H      4   3   2     2.100983646766   108.01034146   112.43299845
 H      5   4   3     2.103407382950   107.11411954    73.82029440
 H      8   6   5     2.102294248218   108.35137439   233.03391249
 H      8   6   5     2.100106008726   109.22647766   115.08699792
 H      9   5   4     2.102905939859   109.03667769    73.75862912
 H     10   9   5     2.093337756134   111.77871112   301.47148284
 H     10   9   5     2.099617553524   110.20827677   182.32929437
 H     10   9   5     2.100096346182   110.51561348    62.30267262
 H     11   9   5     2.099824025968   110.51729683   185.97964377
 H     11   9   5     2.097264491894   110.82158145    67.79033996
 H     11   9   5     2.099951053052   110.60370497   306.38346286

---------------------
BASIS SET INFORMATION
---------------------
There are 3 groups of distinct atoms

 Group   1 Type C   : 6s6p2d contracted to 2s2p1d pattern {42/42/2}
 Group   2 Type O   : 6s6p2d contracted to 2s2p1d pattern {42/42/2}
 Group   3 Type H   : 8s2p contracted to 2s1p pattern {53/2}

Atom   0C    basis set group =>   1
Atom   1C    basis set group =>   1
Atom   2C    basis set group =>   1
Atom   3C    basis set group =>   1
Atom   4C    basis set group =>   1
Atom   5C    basis set group =>   1
Atom   6O    basis set group =>   2
Atom   7C    basis set group =>   1
Atom   8C    basis set group =>   1
Atom   9C    basis set group =>   1
Atom  10C    basis set group =>   1
Atom  11H    basis set group =>   3
Atom  12H    basis set group =>   3
Atom  13H    basis set group =>   3
Atom  14H    basis set group =>   3
Atom  15H    basis set group =>   3
Atom  16H    basis set group =>   3
Atom  17H    basis set group =>   3
Atom  18H    basis set group =>   3
Atom  19H    basis set group =>   3
Atom  20H    basis set group =>   3
Atom  21H    basis set group =>   3
Atom  22H    basis set group =>   3
Atom  23H    basis set group =>   3
Atom  24H    basis set group =>   3
Atom  25H    basis set group =>   3
Atom  26H    basis set group =>   3
Atom  27H    basis set group =>   3
Atom  28H    basis set group =>   3
---------------------------------
AUXILIARY/J BASIS SET INFORMATION
---------------------------------
There are 3 groups of distinct atoms

 Group   1 Type C   : 12s5p4d2f1g contracted to 6s4p3d1f1g pattern {711111/2111/211/2/1}
 Group   2 Type O   : 12s5p4d2f1g contracted to 6s4p3d1f1g pattern {711111/2111/211/2/1}
 Group   3 Type H   : 5s2p1d contracted to 3s1p1d pattern {311/2/1}

Atom   0C    basis set group =>   1
Atom   1C    basis set group =>   1
Atom   2C    basis set group =>   1
Atom   3C    basis set group =>   1
Atom   4C    basis set group =>   1
Atom   5C    basis set group =>   1
Atom   6O    basis set group =>   2
Atom   7C    basis set group =>   1
Atom   8C    basis set group =>   1
Atom   9C    basis set group =>   1
Atom  10C    basis set group =>   1
Atom  11H    basis set group =>   3
Atom  12H    basis set group =>   3
Atom  13H    basis set group =>   3
Atom  14H    basis set group =>   3
Atom  15H    basis set group =>   3
Atom  16H    basis set group =>   3
Atom  17H    basis set group =>   3
Atom  18H    basis set group =>   3
Atom  19H    basis set group =>   3
Atom  20H    basis set group =>   3
Atom  21H    basis set group =>   3
Atom  22H    basis set group =>   3
Atom  23H    basis set group =>   3
Atom  24H    basis set group =>   3
Atom  25H    basis set group =>   3
Atom  26H    basis set group =>   3
Atom  27H    basis set group =>   3
Atom  28H    basis set group =>   3
-------------------------
ECP PARAMETER INFORMATION
-------------------------

 Group 1, Type C  ECP vDZP-ECP (replacing 2 core electrons, lmax=3)
 Group 2, Type O  ECP vDZP-ECP (replacing 2 core electrons, lmax=3)

Atom   0C    ECP group =>   1
Atom   1C    ECP group =>   1
Atom   2C    ECP group =>   1
Atom   3C    ECP group =>   1
Atom   4C    ECP group =>   1
Atom   5C    ECP group =>   1
Atom   6O    ECP group =>   2
Atom   7C    ECP group =>   1
Atom   8C    ECP group =>   1
Atom   9C    ECP group =>   1
Atom  10C    ECP group =>   1



           ************************************************************
           *        Program running with 40 parallel MPI-processes    *
           *              working on a common directory               *
           ************************************************************
------------------------------------------------------------------------------
                             ORCA STARTUP CALCULATIONS
                           -- RI-GTO INTEGRALS CHOSEN --
------------------------------------------------------------------------------
------------------------------------------------------------------------------
                   ___                                                        
                  /   \      - P O W E R E D   B Y -                         
                 /     \                                                     
                 |  |  |   _    _      __       _____    __    __             
                 |  |  |  | |  | |    /  \     |  _  \  |  |  /  |          
                  \  \/   | |  | |   /    \    | | | |  |  | /  /          
                 / \  \   | |__| |  /  /\  \   | |_| |  |  |/  /          
                |  |  |   |  __  | /  /__\  \  |    /   |      \           
                |  |  |   | |  | | |   __   |  |    \   |  |\   \          
                \     /   | |  | | |  |  |  |  | |\  \  |  | \   \       
                 \___/    |_|  |_| |__|  |__|  |_| \__\ |__|  \__/        
                                                                              
                      - O R C A' S   B I G   F R I E N D -                    
                                      &                                       
                       - I N T E G R A L  F E E D E R -                       
                                                                              
 v1 FN, 2020, v2 2021, v3 2022-2024                                           
------------------------------------------------------------------------------


----------------------
SHARK INTEGRAL PACKAGE
----------------------

Number of atoms                             ...     29
Number of basis functions                   ...    233
Number of shells                            ...    109
Maximum angular momentum                    ...      2
Integral batch strategy                     ... SHARK/LIBINT Hybrid
RI-J (if used) integral strategy            ... SPLIT-RIJ (Revised 2003 algorithm where possible)
Printlevel                                  ...      1
Contraction scheme used                     ... SEGMENTED contraction
Prescreening option                         ... SCHWARTZ
   Thresh                                   ... 2.500e-11
   Tcut                                     ... 2.500e-12
   Tpresel                                  ... 2.500e-12 
Coulomb Range Separation                    ... NOT USED
Exchange Range Separation                   ... Long Range
   Mu parameter                             ... 3.000e-01
   Scaling (regular/separated)              ... 1.670e-01 8.330e-01
Multipole approximations                    ... NOT USED
Finite Nucleus Model                        ... NOT USED
CABS basis                                  ... NOT available
Auxiliary Coulomb fitting basis             ... AVAILABLE
   # of basis functions in Aux-J            ...    737
   # of shells in Aux-J                     ...    255
   Maximum angular momentum in Aux-J        ...      4
Auxiliary J/K fitting basis                 ... NOT available
Auxiliary Correlation fitting basis         ... NOT available
Auxiliary 'external' fitting basis          ... NOT available

Checking pre-screening integrals            ... done (  0.0 sec) Dimension = 109
Check shell pair data                       ... done (  0.0 sec)
Shell pair information
Shell pair cut-off parameter TPreSel        ...   2.5e-12
Total number of shell pairs                 ...      5995
Shell pairs after pre-screening             ...      5965
Total number of primitive shell pairs       ...     56362
Primitive shell pairs kept                  ...     44877
          la=0 lb=0:   1705 shell pairs
          la=1 lb=0:   2306 shell pairs
          la=1 lb=1:    810 shell pairs
          la=2 lb=0:    638 shell pairs
          la=2 lb=1:    440 shell pairs
          la=2 lb=2:     66 shell pairs

Calculating one electron integrals          ... done (  0.0 sec)
Calculating ECP integrals                   ... done (  0.1 sec)
Calculating RI/J V-Matrix + Cholesky decomp.... done (  0.0 sec)
Calculating Nuclear repulsion               ... done (  0.0 sec) ENN=    360.573450899954 Eh

Diagonalization of the overlap matrix:
Smallest eigenvalue                        ... 1.165e-03
Time for diagonalization                   ...    0.007 sec
Threshold for overlap eigenvalues          ... 1.000e-07
Number of eigenvalues below threshold      ... 0
Time for construction of square roots      ...    0.005 sec
Total time needed                          ...    0.015 sec

-------------------
DFT GRID GENERATION
-------------------

General Integration Accuracy     IntAcc      ... 4.388
Radial Grid Type                 RadialGrid  ... OptM3 with GC (2021)
Angular Grid (max. ang.)         AngularGrid ... 4 (Lebedev-302)
Angular grid pruning method      GridPruning ... 4 (adaptive)
Weight generation scheme         WeightScheme... mBecke (2022)
Basis function cutoff            BFCut       ... 1.0000e-11
Integration weight cutoff        WCut        ... 1.0000e-14
Partially contracted basis set               ... off
Rotationally invariant grid construction     ... off
Angular grids for H and He will be reduced by one unit

Total number of grid points                  ...   122792
Total number of batches                      ...     1933
Average number of points per batch           ...       63
Average number of grid points per atom       ...     4234

--------------------
COSX GRID GENERATION
--------------------

GRIDX 1
-------
General Integration Accuracy     IntAcc      ... 3.816
Radial Grid Type                 RadialGrid  ... OptM3 with GC (2021)
Angular Grid (max. ang.)         AngularGrid ... 1 (Lebedev-50)
Angular grid pruning method      GridPruning ... 4 (adaptive)
Weight generation scheme         WeightScheme... mBecke (2022)
Basis function cutoff            BFCut       ... 1.0000e-11
Integration weight cutoff        WCut        ... 1.0000e-14
Partially contracted basis set               ... on
Rotationally invariant grid construction     ... off
Angular grids for H and He will be reduced by one unit

Total number of grid points                  ...    15688
Total number of batches                      ...      143
Average number of points per batch           ...      109
Average number of grid points per atom       ...      541
UseSFitting                                  ... on

GRIDX 2
-------
General Integration Accuracy     IntAcc      ... 4.020
Radial Grid Type                 RadialGrid  ... OptM3 with GC (2021)
Angular Grid (max. ang.)         AngularGrid ... 2 (Lebedev-110)
Angular grid pruning method      GridPruning ... 4 (adaptive)
Weight generation scheme         WeightScheme... mBecke (2022)
Basis function cutoff            BFCut       ... 1.0000e-11
Integration weight cutoff        WCut        ... 1.0000e-14
Partially contracted basis set               ... on
Rotationally invariant grid construction     ... off
Angular grids for H and He will be reduced by one unit

Total number of grid points                  ...    32655
Total number of batches                      ...      271
Average number of points per batch           ...      120
Average number of grid points per atom       ...     1126
UseSFitting                                  ... on

GRIDX 3
-------
General Integration Accuracy     IntAcc      ... 4.338
Radial Grid Type                 RadialGrid  ... OptM3 with GC (2021)
Angular Grid (max. ang.)         AngularGrid ... 3 (Lebedev-194)
Angular grid pruning method      GridPruning ... 4 (adaptive)
Weight generation scheme         WeightScheme... mBecke (2022)
Basis function cutoff            BFCut       ... 1.0000e-11
Integration weight cutoff        WCut        ... 1.0000e-14
Partially contracted basis set               ... on
Rotationally invariant grid construction     ... off
Angular grids for H and He will be reduced by one unit

Total number of grid points                  ...    71067
Total number of batches                      ...      569
Average number of points per batch           ...      124
Average number of grid points per atom       ...     2451
UseSFitting                                  ... on
Initializing property integral containers    ... done (  0.0 sec)

SHARK setup successfully completed in   3.7 seconds

Maximum memory used throughout the entire STARTUP-calculation: 37.8 MB


           ************************************************************
           *        Program running with 40 parallel MPI-processes    *
           *              working on a common directory               *
           ************************************************************
-------------------------------------------------------------------------------
                                 ORCA GUESS
                   Start orbitals & Density for SCF / CASSCF
-------------------------------------------------------------------------------

------------
SCF SETTINGS
------------
Hamiltonian:
 Density Functional     Method          .... DFT(GTOs)
 Exchange Functional    Exchange        .... WB97X-V
 Correlation Functional Correlation     .... WB97X-V
 Gradients option       PostSCFGGA      .... off
 Hybrid DFT is turned on
   Fraction HF Exchange ScalHFX         ....  0.167000
   Scaling of DF-GGA-X  ScalDFX         ....  0.000000
   Scaling of DF-GGA-C  ScalDFC         ....  1.000000
   Scaling of DF-LDA-C  ScalLDAC        ....  1.000000
   Perturbative correction              ....  0.000000
 Long-range corrected/Screened/Range-Separated Hybrid DFT is turned on
   Amount of maximum screened exact exchange              ....  0.833000
   Range separation parameter mu (erf(mu*r12)/r12)        ....  0.300000
   NL short-range parameter             ....  6.000000
   NL long-range parameter              ....  0.010000
 RI-approximation to the Coulomb term is turned on
   Number of AuxJ basis functions       .... 737
   RIJ-COSX (HFX calculated with COS-X)).... on


General Settings:
 Integral files         IntName         .... ./output/isomenthone/isomenthone
 Hartree-Fock type      HFTyp           .... RHF
 Total Charge           Charge          ....    0
 Multiplicity           Mult            ....    1
 Number of Electrons    NEL             ....   64
 Basis Dimension        Dim             ....  233
 Nuclear Repulsion      ENuc            ....    360.5734509000 Eh

Convergence Acceleration:
 AO-DIIS                CNVDIIS         .... on
   Start iteration      DIISMaxIt       ....    12
   Startup error        DIISStart       ....  0.200000
   # of expansion vecs  DIISMaxEq       ....     5
   Bias factor          DIISBfac        ....   1.050
   Max. coefficient     DIISMaxC        ....  10.000
 MO-DIIS                CNVKDIIS        .... off
 Trust-Rad. Augm. Hess. CNVTRAH         .... auto
   Auto Start mean grad. ratio tolernc. ....  1.125000
   Auto Start start iteration           ....    50
   Auto Start num. interpolation iter.  ....    10
   Max. Number of Micro iterations      ....    24
   Max. Number of Macro iterations      .... Maxiter - #DIIS iter
   Number of Davidson start vectors     ....     2
   Converg. threshold    (grad. norm)   ....   1.000e-05
   Grad. Scal. Fac. for Micro threshold ....   0.100
   Minimum threshold for Micro iter.    ....   1.000e-02
   NR start threshold (gradient norm)   ....   1.000e-04
   Initial trust radius                 ....   0.400
   Minimum AH scaling param. (alpha)    ....   1.000
   Maximum AH scaling param. (alpha)    .... 1000.000
   Quad. conv. algorithm                .... NR
   White noise on init. David. guess    .... on
   Maximum white noise                  ....   0.010
   Pseudo random numbers                .... off
   Inactive MOs                         .... canonical
   Orbital update algorithm             .... Taylor
   Preconditioner                       .... Diag
   Full preconditioner red. dimension   ....   250
 SOSCF                  CNVSOSCF        .... on
   Start iteration      SOSCFMaxIt      ....   150
   Startup grad/error   SOSCFStart      ....  0.003300
   Hessian update       SOSCFHessUp     .... L-BFGS
 Level Shifting         CNVShift        .... on
   Level shift para.    LevelShift      ....    0.2500
   Turn off err/grad.   ShiftErr        ....    0.0010
 Zerner damping         CNVZerner       .... off
 Static damping         CNVDamp         .... on
   Fraction old density DampFac         ....    0.7000
   Max. Damping (<1)    DampMax         ....    0.9800
   Min. Damping (>=0)   DampMin         ....    0.0000
   Turn off err/grad.   DampErr         ....    0.1000

SCF Procedure:
 Maximum # iterations   MaxIter         ....   125
 SCF integral mode      SCFMode         .... Direct
   Integral package                     .... SHARK and LIBINT hybrid scheme
 Reset frequency        DirectResetFreq ....    20
 Integral Threshold     Thresh          ....  2.500e-11 Eh
 Primitive CutOff       TCut            ....  2.500e-12 Eh

Convergence Tolerance:
 Convergence Check Mode ConvCheckMode   .... Total+1el-Energy
 Convergence forced     ConvForced      .... 0
 Energy Change          TolE            ....  1.000e-08 Eh
 1-El. energy change                    ....  1.000e-05 Eh
 Orbital Gradient       TolG            ....  1.000e-05
 Orbital Rotation angle TolX            ....  1.000e-05
 DIIS Error             TolErr          ....  5.000e-07

------------------------------
INITIAL GUESS: MODEL POTENTIAL
------------------------------
Loading Hartree-Fock densities                     ... done
Atomic calculation to generate a density for atom 0 (C  with ECP)
  Multiplicity assumed   :    1
  Atomic configuration   : 1s2 2s2 2p2 
  Number of open shells  : 1
  Command: /home/aspe232/Project/Software/ORCA/6_0_1/build/orca ./output/isomenthone/isomenthone_atom6.inp "" > ./output/isomenthone/isomenthone_atom6.out
Returned from the atomic calculation with res=0
Atomic calculation to generate a density for atom 6 (O  with ECP)
  Multiplicity assumed   :    3
  Atomic configuration   : 1s2 2s2 2p4 
  Number of open shells  : 1
  Command: /home/aspe232/Project/Software/ORCA/6_0_1/build/orca ./output/isomenthone/isomenthone_atom8.inp "" > ./output/isomenthone/isomenthone_atom8.out
Returned from the atomic calculation with res=0
Calculating cut-offs                               ... done
Initializing the effective Hamiltonian             ... done
Setting up the integral package (SHARK)            ... done
Starting the Coulomb interaction                   ... done (   0.1 sec)
Making the grid                                    ... done (   0.8 sec)
Mapping shells                                     ... done
Starting the XC term evaluation                    ... done (   0.0 sec)
  promolecular density results
     # of electrons  =     85.994634521
     EX              =    -42.876030848
     EC              =     -3.455895535
     EX+EC           =    -46.331926383
Transforming the Hamiltonian                       ... done (   0.1 sec)
Diagonalizing the Hamiltonian                      ... done (   0.0 sec)
Back transforming the eigenvectors                 ... done (   0.0 sec)
Now organizing SCF variables                       ... done
                      ------------------
                      INITIAL GUESS DONE (   2.2 sec)
                      ------------------
             **** ENERGY FILE WAS UPDATED (./output/isomenthone/isomenthone.en.tmp) ****
Finished Guess after   2.8 sec
Maximum memory used throughout the entire GUESS-calculation: 23.5 MB


           ************************************************************
           *        Program running with 40 parallel MPI-processes    *
           *              working on a common directory               *
           ************************************************************

-------------------------------------------------------------------------------------------
                                      ORCA LEAN-SCF
                              memory conserving SCF solver
-------------------------------------------------------------------------------------------

----------------------------------------D-I-I-S--------------------------------------------
Iteration    Energy (Eh)           Delta-E    RMSDP     MaxDP     DIISErr   Damp  Time(sec)
-------------------------------------------------------------------------------------------
               ***  Starting incremental Fock matrix formation  ***
    1    -83.4014200805283394     0.00e+00  3.56e-03  7.21e-02  1.90e-01  0.700   5.3
    2    -83.5948354024064884    -1.93e-01  2.59e-03  5.31e-02  1.17e-01  0.700   3.6
                               ***Turning on AO-DIIS***
    3    -83.6948807885709130    -1.00e-01  1.33e-03  2.73e-02  6.24e-02  0.700   3.3
    4    -83.7537241996878947    -5.88e-02  2.84e-03  5.65e-02  3.93e-02  0.000   3.6
    5    -83.8776788876514274    -1.24e-01  2.37e-04  5.12e-03  4.14e-03  0.000   3.6
    6    -83.8779941690175406    -3.15e-04  1.14e-04  5.21e-03  4.02e-03  0.000   3.5
                              *** Initializing SOSCF ***
---------------------------------------S-O-S-C-F--------------------------------------
Iteration    Energy (Eh)           Delta-E    RMSDP     MaxDP     MaxGrad    Time(sec)
--------------------------------------------------------------------------------------
    7    -83.8780569875628998    -6.28e-05  6.14e-05  2.15e-03  2.40e-03     3.5
               *** Restarting incremental Fock matrix formation ***
    8    -83.8780788732126439    -2.19e-05  3.07e-05  9.99e-04  2.83e-04     4.8
    9    -83.8780826208468966    -3.75e-06  2.34e-05  6.83e-04  1.84e-04     4.2
   10    -83.8780833467841944    -7.26e-07  7.78e-06  3.34e-04  8.38e-05     4.4
   11    -83.8780835860446246    -2.39e-07  3.26e-06  8.95e-05  2.48e-05     4.3
   12    -83.8780836004806361    -1.44e-08  1.30e-06  3.46e-05  7.77e-06     4.0
   13    -83.8780836198833413    -1.94e-08  1.71e-07  3.79e-06  1.63e-06     3.9
                  *** Gradient check signals convergence ***

               *****************************************************
               *                     SUCCESS                       *
               *           SCF CONVERGED AFTER  13 CYCLES          *
               *****************************************************

Recomputing exchange energy using gridx3       ... done (    4.673 sec)
Old exchange energy                            :    -12.289769040 Eh
New exchange energy                            :    -12.289762553 Eh
Exchange energy change after final integration :      0.000006486 Eh
Total energy after final integration           :    -83.878077133 Eh
             **** ENERGY FILE WAS UPDATED (./output/isomenthone/isomenthone.en.tmp) ****

----------------
TOTAL SCF ENERGY
----------------

Total Energy       :        -83.87807713345325 Eh           -2282.43852 eV

Components:
Nuclear Repulsion  :        360.57345089995385 Eh            9811.70242 eV
Electronic Energy  :       -444.45153451983720 Eh          -12094.14111 eV
One Electron Energy:       -840.95677827018108 Eh          -22883.59732 eV
Two Electron Energy:        396.50524375034388 Eh           10789.45621 eV

Virial components:
Potential Energy   :       -149.36944134255901 Eh           -4064.54914 eV
Kinetic Energy     :         65.49136420910575 Eh            1782.11062 eV
Virial Ratio       :          2.28075018968365

DFT components:
N(Alpha)           :       32.000023464099 electrons
N(Beta)            :       32.000023464099 electrons
N(Total)           :       64.000046928198 electrons
E(X)               :      -12.966283674641 Eh       
E(C)               :       -2.402389800643 Eh       
E(XC)              :      -15.368673475284 Eh       

---------------
SCF CONVERGENCE
---------------

  Last Energy change         ...    1.9403e-08  Tolerance :   1.0000e-08
  Last MAX-Density change    ...    3.7907e-06  Tolerance :   1.0000e-07
  Last RMS-Density change    ...    1.7122e-07  Tolerance :   5.0000e-09
  Last DIIS Error            ...    2.3952e-03  Tolerance :   5.0000e-07
  Last Orbital Gradient      ...    1.6317e-06  Tolerance :   1.0000e-05
  Last Orbital Rotation      ...    4.0861e-06  Tolerance :   1.0000e-05


----------------
ORBITAL ENERGIES
----------------

  NO   OCC          E(Eh)            E(eV) 
   0   2.0000      -1.159817       -31.5602 
   1   2.0000      -0.984934       -26.8014 
   2   2.0000      -0.945197       -25.7201 
   3   2.0000      -0.889157       -24.1952 
   4   2.0000      -0.864039       -23.5117 
   5   2.0000      -0.818853       -22.2821 
   6   2.0000      -0.807619       -21.9764 
   7   2.0000      -0.747075       -20.3290 
   8   2.0000      -0.703177       -19.1344 
   9   2.0000      -0.695775       -18.9330 
  10   2.0000      -0.638964       -17.3871 
  11   2.0000      -0.617903       -16.8140 
  12   2.0000      -0.587600       -15.9894 
  13   2.0000      -0.573901       -15.6166 
  14   2.0000      -0.556869       -15.1532 
  15   2.0000      -0.546365       -14.8673 
  16   2.0000      -0.534501       -14.5445 
  17   2.0000      -0.526895       -14.3375 
  18   2.0000      -0.518010       -14.0958 
  19   2.0000      -0.505131       -13.7453 
  20   2.0000      -0.502474       -13.6730 
  21   2.0000      -0.490226       -13.3397 
  22   2.0000      -0.479893       -13.0586 
  23   2.0000      -0.466220       -12.6865 
  24   2.0000      -0.460625       -12.5342 
  25   2.0000      -0.450661       -12.2631 
  26   2.0000      -0.437614       -11.9081 
  27   2.0000      -0.431928       -11.7533 
  28   2.0000      -0.425124       -11.5682 
  29   2.0000      -0.414373       -11.2757 
  30   2.0000      -0.410286       -11.1645 
  31   2.0000      -0.348230        -9.4758 
  32   0.0000       0.055740         1.5168 
  33   0.0000       0.084458         2.2982 
  34   0.0000       0.088750         2.4150 
  35   0.0000       0.096146         2.6163 
  36   0.0000       0.103015         2.8032 
  37   0.0000       0.114537         3.1167 
  38   0.0000       0.121123         3.2959 
  39   0.0000       0.129182         3.5152 
  40   0.0000       0.137794         3.7496 
  41   0.0000       0.148014         4.0277 
  42   0.0000       0.152860         4.1595 
*Only the first 10 virtual orbitals were printed.

                    ********************************
                    * MULLIKEN POPULATION ANALYSIS *
                    ********************************

-----------------------
MULLIKEN ATOMIC CHARGES
-----------------------
   0 C :   -0.077796
   1 C :   -0.114405
   2 C :   -0.051644
   3 C :   -0.059661
   4 C :   -0.130567
   5 C :    0.223650
   6 O :   -0.320635
   7 C :   -0.061357
   8 C :   -0.087056
   9 C :   -0.073460
  10 C :   -0.072405
  11 H :    0.038735
  12 H :    0.036692
  13 H :    0.038370
  14 H :    0.042569
  15 H :    0.040269
  16 H :    0.043594
  17 H :    0.050366
  18 H :    0.051824
  19 H :    0.060812
  20 H :    0.067075
  21 H :    0.071615
  22 H :    0.056432
  23 H :    0.059297
  24 H :    0.035648
  25 H :    0.025427
  26 H :    0.040311
  27 H :    0.034977
  28 H :    0.031325
Sum of atomic charges:    0.0000000

--------------------------------
MULLIKEN REDUCED ORBITAL CHARGES
--------------------------------
  0 C s       :     0.964670  s :     0.964670
      pz      :     1.040513  p :     3.038802
      px      :     0.949576
      py      :     1.048714
      dz2     :     0.013003  d :     0.074324
      dxz     :     0.016260
      dyz     :     0.012736
      dx2y2   :     0.015331
      dxy     :     0.016994

  1 C s       :     1.056311  s :     1.056311
      pz      :     1.020389  p :     2.932905
      px      :     0.982553
      py      :     0.929962
      dz2     :     0.028106  d :     0.125189
      dxz     :     0.020365
      dyz     :     0.020931
      dx2y2   :     0.029712
      dxy     :     0.026075

  2 C s       :     1.001619  s :     1.001619
      pz      :     1.041600  p :     2.954198
      px      :     0.935583
      py      :     0.977015
      dz2     :     0.017226  d :     0.095827
      dxz     :     0.018125
      dyz     :     0.017348
      dx2y2   :     0.023373
      dxy     :     0.019755

  3 C s       :     1.004342  s :     1.004342
      pz      :     1.053124  p :     2.959871
      px      :     0.957600
      py      :     0.949147
      dz2     :     0.015680  d :     0.095448
      dxz     :     0.016591
      dyz     :     0.019929
      dx2y2   :     0.021721
      dxy     :     0.021527

  4 C s       :     1.045646  s :     1.045646
      pz      :     1.047530  p :     2.971154
      px      :     0.958893
      py      :     0.964731
      dz2     :     0.025891  d :     0.113767
      dxz     :     0.016441
      dyz     :     0.017260
      dx2y2   :     0.024051
      dxy     :     0.030124

  5 C s       :     1.131633  s :     1.131633
      pz      :     0.744370  p :     2.439915
      px      :     0.905076
      py      :     0.790470
      dz2     :     0.038893  d :     0.204802
      dxz     :     0.042328
      dyz     :     0.026812
      dx2y2   :     0.053518
      dxy     :     0.043251

  6 O s       :     1.780709  s :     1.780709
      pz      :     1.342410  p :     4.504029
      px      :     1.756123
      py      :     1.405495
      dz2     :     0.010437  d :     0.035897
      dxz     :     0.005630
      dyz     :     0.007653
      dx2y2   :     0.006023
      dxy     :     0.006153

  7 C s       :     0.995254  s :     0.995254
      pz      :     1.042422  p :     2.976902
      px      :     0.945065
      py      :     0.989415
      dz2     :     0.019148  d :     0.089202
      dxz     :     0.015861
      dyz     :     0.015680
      dx2y2   :     0.025000
      dxy     :     0.013513

  8 C s       :     1.059204  s :     1.059204
      pz      :     1.044718  p :     2.907116
      px      :     0.902377
      py      :     0.960021
      dz2     :     0.032265  d :     0.120735
      dxz     :     0.014134
      dyz     :     0.017039
      dx2y2   :     0.030422
      dxy     :     0.026875

  9 C s       :     0.963047  s :     0.963047
      pz      :     1.016569  p :     3.037221
      px      :     1.028438
      py      :     0.992214
      dz2     :     0.023958  d :     0.073192
      dxz     :     0.005362
      dyz     :     0.010121
      dx2y2   :     0.020174
      dxy     :     0.013577

 10 C s       :     0.962509  s :     0.962509
      pz      :     1.024029  p :     3.035491
      px      :     1.024999
      py      :     0.986464
      dz2     :     0.021618  d :     0.074406
      dxz     :     0.004931
      dyz     :     0.014084
      dx2y2   :     0.022887
      dxy     :     0.010886

 11 H s       :     0.917998  s :     0.917998
      pz      :     0.011555  p :     0.043267
      px      :     0.012472
      py      :     0.019240

 12 H s       :     0.920336  s :     0.920336
      pz      :     0.021381  p :     0.042971
      px      :     0.011292
      py      :     0.010298

 13 H s       :     0.918391  s :     0.918391
      pz      :     0.014300  p :     0.043239
      px      :     0.011344
      py      :     0.017595

 14 H s       :     0.917962  s :     0.917962
      pz      :     0.020560  p :     0.039469
      px      :     0.009864
      py      :     0.009045

 15 H s       :     0.918503  s :     0.918503
      pz      :     0.021054  p :     0.041228
      px      :     0.010914
      py      :     0.009261

 16 H s       :     0.914275  s :     0.914275
      pz      :     0.013956  p :     0.042131
      px      :     0.010532
      py      :     0.017643

 17 H s       :     0.908729  s :     0.908729
      pz      :     0.020696  p :     0.040906
      px      :     0.010153
      py      :     0.010057

 18 H s       :     0.905748  s :     0.905748
      pz      :     0.015744  p :     0.042428
      px      :     0.011583
      py      :     0.015101

 19 H s       :     0.898285  s :     0.898285
      pz      :     0.022730  p :     0.040903
      px      :     0.008213
      py      :     0.009960

 20 H s       :     0.890181  s :     0.890181
      pz      :     0.021594  p :     0.042744
      px      :     0.012040
      py      :     0.009111

 21 H s       :     0.884591  s :     0.884591
      pz      :     0.012532  p :     0.043794
      px      :     0.010701
      py      :     0.020560

 22 H s       :     0.903761  s :     0.903761
      pz      :     0.022735  p :     0.039807
      px      :     0.008223
      py      :     0.008849

 23 H s       :     0.895407  s :     0.895407
      pz      :     0.012138  p :     0.045296
      px      :     0.013518
      py      :     0.019641

 24 H s       :     0.920770  s :     0.920770
      pz      :     0.011089  p :     0.043582
      px      :     0.022479
      py      :     0.010014

 25 H s       :     0.931505  s :     0.931505
      pz      :     0.023289  p :     0.043068
      px      :     0.010179
      py      :     0.009600

 26 H s       :     0.916208  s :     0.916208
      pz      :     0.010236  p :     0.043481
      px      :     0.023075
      py      :     0.010170

 27 H s       :     0.920778  s :     0.920778
      pz      :     0.013073  p :     0.044245
      px      :     0.011495
      py      :     0.019677

 28 H s       :     0.925853  s :     0.925853
      pz      :     0.022943  p :     0.042821
      px      :     0.009928
      py      :     0.009950



                     *******************************
                     * LOEWDIN POPULATION ANALYSIS *
                     *******************************

----------------------
LOEWDIN ATOMIC CHARGES
----------------------
   0 C :   -0.115727
   1 C :   -0.086689
   2 C :   -0.078819
   3 C :   -0.072692
   4 C :   -0.063363
   5 C :    0.022803
   6 O :   -0.137707
   7 C :   -0.069315
   8 C :   -0.066951
   9 C :   -0.116129
  10 C :   -0.119269
  11 H :    0.048606
  12 H :    0.046683
  13 H :    0.048639
  14 H :    0.046682
  15 H :    0.047333
  16 H :    0.050463
  17 H :    0.050812
  18 H :    0.050648
  19 H :    0.055333
  20 H :    0.067239
  21 H :    0.066367
  22 H :    0.052339
  23 H :    0.048311
  24 H :    0.047060
  25 H :    0.039981
  26 H :    0.050429
  27 H :    0.043842
  28 H :    0.043092

-------------------------------
LOEWDIN REDUCED ORBITAL CHARGES
-------------------------------
  0 C s       :     0.779614  s :     0.779614
      pz      :     1.063012  p :     3.093131
      px      :     0.968226
      py      :     1.061893
      dz2     :     0.041068  d :     0.242982
      dxz     :     0.056602
      dyz     :     0.040744
      dx2y2   :     0.047849
      dxy     :     0.056719

  1 C s       :     0.757422  s :     0.757422
      pz      :     1.022611  p :     2.940519
      px      :     0.962164
      py      :     0.955744
      dz2     :     0.089851  d :     0.388748
      dxz     :     0.064004
      dyz     :     0.064135
      dx2y2   :     0.089283
      dxy     :     0.081474

  2 C s       :     0.768906  s :     0.768906
      pz      :     1.051419  p :     3.000641
      px      :     0.954832
      py      :     0.994390
      dz2     :     0.054808  d :     0.309271
      dxz     :     0.060034
      dyz     :     0.057131
      dx2y2   :     0.073148
      dxy     :     0.064150

  3 C s       :     0.767499  s :     0.767499
      pz      :     1.063028  p :     2.997407
      px      :     0.962103
      py      :     0.972276
      dz2     :     0.048953  d :     0.307786
      dxz     :     0.054692
      dyz     :     0.066850
      dx2y2   :     0.067272
      dxy     :     0.070019

  4 C s       :     0.764009  s :     0.764009
      pz      :     1.029552  p :     2.944777
      px      :     0.957500
      py      :     0.957724
      dz2     :     0.083085  d :     0.354577
      dxz     :     0.049374
      dyz     :     0.055387
      dx2y2   :     0.076839
      dxy     :     0.089893

  5 C s       :     0.795391  s :     0.795391
      pz      :     0.793319  p :     2.604704
      px      :     0.977226
      py      :     0.834158
      dz2     :     0.096833  d :     0.577103
      dxz     :     0.121938
      dyz     :     0.093999
      dx2y2   :     0.140954
      dxy     :     0.123379

  6 O s       :     1.525750  s :     1.525750
      pz      :     1.396068  p :     4.536190
      px      :     1.695725
      py      :     1.444398
      dz2     :     0.014010  d :     0.075766
      dxz     :     0.014161
      dyz     :     0.020295
      dx2y2   :     0.013701
      dxy     :     0.013599

  7 C s       :     0.768665  s :     0.768665
      pz      :     1.034731  p :     3.009493
      px      :     0.968455
      py      :     1.006308
      dz2     :     0.061611  d :     0.291157
      dxz     :     0.054127
      dyz     :     0.049049
      dx2y2   :     0.080028
      dxy     :     0.046342

  8 C s       :     0.761578  s :     0.761578
      pz      :     1.041731  p :     2.930914
      px      :     0.932347
      py      :     0.956836
      dz2     :     0.102224  d :     0.374459
      dxz     :     0.045192
      dyz     :     0.051545
      dx2y2   :     0.093642
      dxy     :     0.081855

  9 C s       :     0.779858  s :     0.779858
      pz      :     1.044820  p :     3.095288
      px      :     1.045913
      py      :     1.004555
      dz2     :     0.078771  d :     0.240984
      dxz     :     0.017317
      dyz     :     0.033214
      dx2y2   :     0.067501
      dxy     :     0.044181

 10 C s       :     0.779286  s :     0.779286
      pz      :     1.049957  p :     3.095461
      px      :     1.037787
      py      :     1.007717
      dz2     :     0.071158  d :     0.244522
      dxz     :     0.015700
      dyz     :     0.046598
      dx2y2   :     0.076811
      dxy     :     0.034255

 11 H s       :     0.806117  s :     0.806117
      pz      :     0.043285  p :     0.145277
      px      :     0.043295
      py      :     0.058697

 12 H s       :     0.808598  s :     0.808598
      pz      :     0.063003  p :     0.144719
      px      :     0.041024
      py      :     0.040692

 13 H s       :     0.806203  s :     0.806203
      pz      :     0.048545  p :     0.145159
      px      :     0.041130
      py      :     0.055484

 14 H s       :     0.804584  s :     0.804584
      pz      :     0.067174  p :     0.148734
      px      :     0.042693
      py      :     0.038867

 15 H s       :     0.806078  s :     0.806078
      pz      :     0.064228  p :     0.146589
      px      :     0.042261
      py      :     0.040100

 16 H s       :     0.803797  s :     0.803797
      pz      :     0.048674  p :     0.145740
      px      :     0.040476
      py      :     0.056590

 17 H s       :     0.802908  s :     0.802908
      pz      :     0.063378  p :     0.146280
      px      :     0.041069
      py      :     0.041834

 18 H s       :     0.801439  s :     0.801439
      pz      :     0.052620  p :     0.147912
      px      :     0.044071
      py      :     0.051221

 19 H s       :     0.792307  s :     0.792307
      pz      :     0.071947  p :     0.152360
      px      :     0.038460
      py      :     0.041952

 20 H s       :     0.788913  s :     0.788913
      pz      :     0.063547  p :     0.143849
      px      :     0.042663
      py      :     0.037639

 21 H s       :     0.787792  s :     0.787792
      pz      :     0.043724  p :     0.145841
      px      :     0.040430
      py      :     0.061687

 22 H s       :     0.799237  s :     0.799237
      pz      :     0.072538  p :     0.148424
      px      :     0.036309
      py      :     0.039577

 23 H s       :     0.798964  s :     0.798964
      pz      :     0.045516  p :     0.152725
      px      :     0.048950
      py      :     0.058259

 24 H s       :     0.807413  s :     0.807413
      pz      :     0.041529  p :     0.145527
      px      :     0.065006
      py      :     0.038992

 25 H s       :     0.813487  s :     0.813487
      pz      :     0.066918  p :     0.146533
      px      :     0.040515
      py      :     0.039099

 26 H s       :     0.804749  s :     0.804749
      pz      :     0.040319  p :     0.144822
      px      :     0.065366
      py      :     0.039137

 27 H s       :     0.807819  s :     0.807819
      pz      :     0.045704  p :     0.148340
      px      :     0.043555
      py      :     0.059080

 28 H s       :     0.811498  s :     0.811498
      pz      :     0.066234  p :     0.145410
      px      :     0.039826
      py      :     0.039350



                      *****************************
                      * MAYER POPULATION ANALYSIS *
                      *****************************

  NA   - Mulliken gross atomic population
  ZA   - Total nuclear charge
  QA   - Mulliken gross atomic charge
  VA   - Mayer's total valence
  BVA  - Mayer's bonded valence
  FA   - Mayer's free valence

  ATOM       NA         ZA         QA         VA         BVA        FA
  0 C      4.0778     4.0000    -0.0778     3.9881     3.9881     0.0000
  1 C      4.1144     4.0000    -0.1144     3.9963     3.9963    -0.0000
  2 C      4.0516     4.0000    -0.0516     3.9509     3.9509    -0.0000
  3 C      4.0597     4.0000    -0.0597     3.9702     3.9702    -0.0000
  4 C      4.1306     4.0000    -0.1306     3.9415     3.9415     0.0000
  5 C      3.7764     4.0000     0.2236     3.9790     3.9790    -0.0000
  6 O      6.3206     6.0000    -0.3206     2.0105     2.0105     0.0000
  7 C      4.0614     4.0000    -0.0614     3.9340     3.9340    -0.0000
  8 C      4.0871     4.0000    -0.0871     4.0337     4.0337     0.0000
  9 C      4.0735     4.0000    -0.0735     3.9574     3.9574     0.0000
 10 C      4.0724     4.0000    -0.0724     3.9625     3.9625     0.0000
 11 H      0.9613     1.0000     0.0387     1.0287     1.0287     0.0000
 12 H      0.9633     1.0000     0.0367     1.0309     1.0309     0.0000
 13 H      0.9616     1.0000     0.0384     1.0293     1.0293     0.0000
 14 H      0.9574     1.0000     0.0426     1.0071     1.0071    -0.0000
 15 H      0.9597     1.0000     0.0403     1.0154     1.0154    -0.0000
 16 H      0.9564     1.0000     0.0436     1.0160     1.0160     0.0000
 17 H      0.9496     1.0000     0.0504     1.0111     1.0111    -0.0000
 18 H      0.9482     1.0000     0.0518     0.9980     0.9980    -0.0000
 19 H      0.9392     1.0000     0.0608     1.0067     1.0067     0.0000
 20 H      0.9329     1.0000     0.0671     1.0346     1.0346    -0.0000
 21 H      0.9284     1.0000     0.0716     1.0287     1.0287    -0.0000
 22 H      0.9436     1.0000     0.0564     1.0154     1.0154     0.0000
 23 H      0.9407     1.0000     0.0593     1.0276     1.0276     0.0000
 24 H      0.9644     1.0000     0.0356     1.0293     1.0293     0.0000
 25 H      0.9746     1.0000     0.0254     1.0284     1.0284     0.0000
 26 H      0.9597     1.0000     0.0403     1.0271     1.0271    -0.0000
 27 H      0.9650     1.0000     0.0350     1.0218     1.0218     0.0000
 28 H      0.9687     1.0000     0.0313     1.0271     1.0271     0.0000

  Mayer bond orders larger than 0.100000
B(  0-C ,  1-C ) :   1.0202 B(  0-C , 11-H ) :   0.9948 B(  0-C , 12-H ) :   0.9922 
B(  0-C , 13-H ) :   0.9958 B(  1-C ,  2-C ) :   0.9734 B(  1-C ,  7-C ) :   0.9644 
B(  1-C , 14-H ) :   0.9923 B(  2-C ,  3-C ) :   0.9918 B(  2-C , 15-H ) :   0.9965 
B(  2-C , 16-H ) :   1.0055 B(  3-C ,  4-C ) :   0.9701 B(  3-C , 17-H ) :   0.9959 
B(  3-C , 18-H ) :   1.0018 B(  4-C ,  5-C ) :   0.9982 B(  4-C ,  8-C ) :   0.9875 
B(  4-C , 19-H ) :   0.9692 B(  5-C ,  6-O ) :   1.9167 B(  5-C ,  7-C ) :   1.0239 
B(  7-C , 20-H ) :   0.9743 B(  7-C , 21-H ) :   0.9766 B(  8-C ,  9-C ) :   0.9948 
B(  8-C , 10-C ) :   0.9959 B(  8-C , 22-H ) :   0.9886 B(  9-C , 23-H ) :   0.9948 
B(  9-C , 24-H ) :   0.9983 B(  9-C , 25-H ) :   0.9933 B( 10-C , 26-H ) :   0.9977 
B( 10-C , 27-H ) :   0.9985 B( 10-C , 28-H ) :   0.9923 

-------
TIMINGS
-------

Total SCF time: 0 days 0 hours 1 min 1 sec 

Total time                  ....      61.449 sec
Sum of individual times     ....      59.271 sec  ( 96.5%)

SCF preparation             ....       2.554 sec  (  4.2%)
Fock matrix formation       ....      54.790 sec  ( 89.2%)
[...]
 34:   1031.03   0.001427    7.21  0.000432  (-0.019642  0.005935  0.003297)
 35:   1039.81   0.000483    2.44  0.000145  ( 0.010537  0.005345  0.002317)
 36:   1080.40   0.001795    9.07  0.000519  (-0.021901 -0.006203  0.000655)
 37:   1129.90   0.001102    5.57  0.000304  (-0.015658 -0.006422 -0.004238)
 38:   1142.26   0.000109    0.55  0.000030  (-0.000729  0.004791  0.002482)
 39:   1147.21   0.000214    1.08  0.000058  (-0.003878  0.005363 -0.003804)
 40:   1190.39   0.000335    1.69  0.000088  (-0.005718 -0.007046  0.002346)
 41:   1192.22   0.000104    0.53  0.000027  (-0.004718 -0.002236 -0.000025)
 42:   1211.08   0.000983    4.97  0.000253  ( 0.015736  0.000132 -0.002404)
 43:   1230.40   0.000096    0.48  0.000024  (-0.000690 -0.004791 -0.000900)
 44:   1242.27   0.007264   36.71  0.001825  (-0.040412 -0.013333  0.003702)
 45:   1288.45   0.000513    2.59  0.000124  ( 0.000406 -0.011111  0.000848)
 46:   1310.89   0.000528    2.67  0.000126  (-0.009056  0.001220 -0.006495)
 47:   1332.43   0.000052    0.26  0.000012  ( 0.002490 -0.000840 -0.002309)
 48:   1339.01   0.001603    8.10  0.000374  (-0.017420 -0.005269 -0.006516)
 49:   1353.68   0.003083   15.58  0.000711  (-0.021549 -0.014687  0.005533)
 50:   1370.27   0.000168    0.85  0.000038  ( 0.003259  0.004638 -0.002462)
 51:   1382.86   0.000345    1.74  0.000078  (-0.002130 -0.007920  0.003251)
 52:   1394.86   0.000195    0.98  0.000044  ( 0.001637  0.000140  0.006389)
 53:   1417.49   0.000124    0.63  0.000027  ( 0.001054 -0.005091  0.000469)
 54:   1437.49   0.001455    7.35  0.000316  ( 0.006859 -0.015750 -0.004565)
 55:   1438.59   0.001547    7.82  0.000336  (-0.002239  0.018153 -0.001027)
 56:   1448.54   0.000615    3.11  0.000133  ( 0.010673 -0.004305  0.000346)
 57:   1453.40   0.002002   10.12  0.000430  (-0.014238  0.002805  0.014807)
 58:   1462.83   0.008187   41.38  0.001747  (-0.037381 -0.017537  0.006458)
 59:   1485.74   0.001200    6.06  0.000252  (-0.006958 -0.014258  0.000545)
 60:   1515.80   0.000371    1.87  0.000076  ( 0.002251 -0.008196  0.002024)
 61:   1516.98   0.001606    8.11  0.000330  ( 0.015586  0.009158 -0.001882)
 62:   1526.63   0.000111    0.56  0.000023  ( 0.001344  0.004401  0.001265)
 63:   1527.49   0.002299   11.62  0.000470  (-0.001252 -0.007250  0.020386)
 64:   1530.29   0.001779    8.99  0.000363  ( 0.004667 -0.016649 -0.007986)
 65:   1535.48   0.001252    6.33  0.000254  (-0.002488  0.004559  0.015081)
 66:   1541.06   0.001446    7.31  0.000293  ( 0.007561  0.006955  0.013681)
 67:   1549.37   0.002847   14.39  0.000573  (-0.014091  0.004006 -0.018944)
 68:   1865.77   0.042941  217.01  0.007182  ( 0.033509 -0.048291  0.061051)
 69:   3064.69   0.001784    9.01  0.000182  ( 0.009194  0.006020  0.007802)
 70:   3082.76   0.000950    4.80  0.000096  ( 0.001778 -0.005508  0.007918)
 71:   3091.72   0.006158   31.12  0.000622  ( 0.011745 -0.007422 -0.020701)
 72:   3092.45   0.004872   24.62  0.000492  ( 0.006873  0.019962 -0.006777)
 73:   3094.59   0.009025   45.61  0.000910  (-0.029883  0.003485  0.002239)
 74:   3096.61   0.006694   33.83  0.000675  ( 0.018130 -0.008092 -0.016745)
 75:   3106.93   0.002313   11.69  0.000232  (-0.004657 -0.014485  0.000884)
 76:   3111.09   0.002479   12.53  0.000249  ( 0.003657 -0.002910 -0.015061)
 77:   3113.44   0.005455   27.57  0.000547  ( 0.010103  0.019992  0.006713)
 78:   3150.10   0.002972   15.02  0.000294  (-0.005031  0.016112 -0.003084)
 79:   3170.09   0.000730    3.69  0.000072  (-0.006776  0.002842  0.004231)
 80:   3174.09   0.004026   20.35  0.000396  ( 0.001344  0.007637 -0.018323)
 81:   3175.97   0.000282    1.43  0.000028  (-0.000500 -0.004456 -0.002763)
 82:   3180.56   0.009585   48.44  0.000940  ( 0.020865  0.001630  0.022414)
 83:   3184.31   0.004876   24.64  0.000478  (-0.002352 -0.003101 -0.021510)
 84:   3190.01   0.003517   17.77  0.000344  ( 0.000091 -0.017708  0.005521)
 85:   3198.77   0.003970   20.06  0.000387  ( 0.011072 -0.015017 -0.006261)
 86:   3217.39   0.001365    6.90  0.000132  ( 0.007732  0.007325 -0.004353)

* The epsilon (eps) is given for a Dirac delta lineshape.
** The dipole moment derivative (T) already includes vibrational overlap.

The first frequency considered to be a vibration is 6
The total number of vibrations considered is 81


--------------------------
THERMOCHEMISTRY AT 298.15K
--------------------------

Temperature         ...   298.15 K
Pressure            ...     1.00 atm
Total Mass          ...   154.25 AMU
Quasi RRHO          ...     True
Cut-Off Frequency   ...     1.00 cm^-1

Throughout the following assumptions are being made:
  (1) The electronic state is orbitally nondegenerate
  (2) There are no thermally accessible electronically excited states
  (3) Hindered rotations indicated by low frequency modes are not
      treated as such but are treated as vibrations and this may
      cause some error
  (4) All equations used are the standard statistical mechanics
      equations for an ideal gas
  (5) All vibrations are strictly harmonic

freq.      69.88  E(vib)   ...       0.50 
freq.      89.01  E(vib)   ...       0.47 
freq.     100.50  E(vib)   ...       0.46 
freq.     174.27  E(vib)   ...       0.38 
freq.     192.97  E(vib)   ...       0.36 
freq.     224.52  E(vib)   ...       0.33 
freq.     235.60  E(vib)   ...       0.32 
freq.     246.49  E(vib)   ...       0.31 
freq.     274.01  E(vib)   ...       0.28 
freq.     295.53  E(vib)   ...       0.27 
freq.     321.04  E(vib)   ...       0.25 
freq.     384.46  E(vib)   ...       0.20 
freq.     409.47  E(vib)   ...       0.19 
freq.     432.39  E(vib)   ...       0.18 
freq.     462.29  E(vib)   ...       0.16 
freq.     487.80  E(vib)   ...       0.15 
freq.     541.87  E(vib)   ...       0.12 
freq.     617.04  E(vib)   ...       0.09 
freq.     669.55  E(vib)   ...       0.08 
freq.     764.36  E(vib)   ...       0.06 
freq.     860.70  E(vib)   ...       0.04 
freq.     888.15  E(vib)   ...       0.04 
freq.     899.50  E(vib)   ...       0.03 
freq.     915.40  E(vib)   ...       0.03 
freq.     953.34  E(vib)   ...       0.03 
freq.     969.92  E(vib)   ...       0.03 
freq.     988.65  E(vib)   ...       0.02 
freq.     994.80  E(vib)   ...       0.02 
freq.    1031.03  E(vib)   ...       0.02 
freq.    1039.81  E(vib)   ...       0.02 
freq.    1080.40  E(vib)   ...       0.02 
freq.    1129.90  E(vib)   ...       0.01 
freq.    1142.26  E(vib)   ...       0.01 
freq.    1147.21  E(vib)   ...       0.01 
freq.    1190.39  E(vib)   ...       0.01 
freq.    1192.22  E(vib)   ...       0.01 
freq.    1211.08  E(vib)   ...       0.01 
freq.    1230.40  E(vib)   ...       0.01 
freq.    1242.27  E(vib)   ...       0.01 
freq.    1288.45  E(vib)   ...       0.01 
freq.    1310.89  E(vib)   ...       0.01 
freq.    1332.43  E(vib)   ...       0.01 
freq.    1339.01  E(vib)   ...       0.01 
freq.    1353.68  E(vib)   ...       0.01 
freq.    1370.27  E(vib)   ...       0.01 
freq.    1382.86  E(vib)   ...       0.01 
freq.    1394.86  E(vib)   ...       0.00 
freq.    1417.49  E(vib)   ...       0.00 
freq.    1437.49  E(vib)   ...       0.00 
freq.    1438.59  E(vib)   ...       0.00 
freq.    1448.54  E(vib)   ...       0.00 
freq.    1453.40  E(vib)   ...       0.00 
freq.    1462.83  E(vib)   ...       0.00 
freq.    1485.74  E(vib)   ...       0.00 
freq.    1515.80  E(vib)   ...       0.00 
freq.    1516.98  E(vib)   ...       0.00 
freq.    1526.63  E(vib)   ...       0.00 
freq.    1527.49  E(vib)   ...       0.00 
freq.    1530.29  E(vib)   ...       0.00 
freq.    1535.48  E(vib)   ...       0.00 
freq.    1541.06  E(vib)   ...       0.00 
freq.    1549.37  E(vib)   ...       0.00 
freq.    1865.77  E(vib)   ...       0.00 
freq.    3064.69  E(vib)   ...       0.00 
freq.    3082.76  E(vib)   ...       0.00 
freq.    3091.72  E(vib)   ...       0.00 
freq.    3092.45  E(vib)   ...       0.00 
freq.    3094.59  E(vib)   ...       0.00 
freq.    3096.61  E(vib)   ...       0.00 
freq.    3106.93  E(vib)   ...       0.00 
freq.    3111.09  E(vib)   ...       0.00 
freq.    3113.44  E(vib)   ...       0.00 
freq.    3150.10  E(vib)   ...       0.00 
freq.    3170.09  E(vib)   ...       0.00 
freq.    3174.09  E(vib)   ...       0.00 
freq.    3175.97  E(vib)   ...       0.00 
freq.    3180.56  E(vib)   ...       0.00 
freq.    3184.31  E(vib)   ...       0.00 
freq.    3190.01  E(vib)   ...       0.00 
freq.    3198.77  E(vib)   ...       0.00 
freq.    3217.39  E(vib)   ...       0.00 

------------
INNER ENERGY
------------

The inner energy is: U= E(el) + E(ZPE) + E(vib) + E(rot) + E(trans)
    E(el)   - is the total energy from the electronic structure calculation
              = E(kin-el) + E(nuc-el) + E(el-el) + E(nuc-nuc)
    E(ZPE)  - the the zero temperature vibrational energy from the frequency calculation
    E(vib)  - the the finite temperature correction to E(ZPE) due to population
              of excited vibrational states
    E(rot)  - is the rotational thermal energy
    E(trans)- is the translational thermal energy

Summary of contributions to the inner energy U:
Electronic energy                ...    -83.92233268 Eh
Zero point energy                ...      0.27023965 Eh     169.58 kcal/mol
Thermal vibrational correction   ...      0.00897880 Eh       5.63 kcal/mol
Thermal rotational correction    ...      0.00141627 Eh       0.89 kcal/mol
Thermal translational correction ...      0.00141627 Eh       0.89 kcal/mol
-----------------------------------------------------------------------
Total thermal energy                    -83.64028168 Eh


Summary of corrections to the electronic energy:
(perhaps to be used in another calculation)
Total thermal correction                  0.01181134 Eh       7.41 kcal/mol
Non-thermal (ZPE) correction              0.27023965 Eh     169.58 kcal/mol
-----------------------------------------------------------------------
Total correction                          0.28205099 Eh     176.99 kcal/mol


--------
ENTHALPY
--------

The enthalpy is H = U + kB*T
                kB is Boltzmann's constant
Total thermal energy              ...    -83.64028168 Eh 
Thermal Enthalpy correction       ...      0.00094421 Eh       0.59 kcal/mol
-----------------------------------------------------------------------
Total Enthalpy                    ...    -83.63933747 Eh


Note: Only C1 symmetry has been detected, increase convergence thresholds 
      if your molecule has a higher symmetry. Symmetry factor of 1.0 is   
      used for the rotational entropy correction. 
 

Note: Rotational entropy computed according to Herzberg 
Infrared and Raman Spectra, Chapter V,1, Van Nostrand Reinhold, 1945 
Point Group:  C1, Symmetry Number:   1  
Rotational constants in cm-1:     0.065394     0.023746     0.019639 

Vibrational entropy computed according to the QRRHO of S. Grimme
Chem.Eur.J. 2012 18 9955 using a reference frequency of 100.0 cm-1


-------
ENTROPY
-------

The entropy contributions are T*S = T*(S(el)+S(vib)+S(rot)+S(trans))
     S(el)   - electronic entropy
     S(vib)  - vibrational entropy
     S(rot)  - rotational entropy
     S(trans)- translational entropy
The entropies will be listed as multiplied by the temperature to get
units of energy

Electronic entropy                ...      0.00000000 Eh      0.00 kcal/mol
Vibrational entropy               ...      0.01520485 Eh      9.54 kcal/mol
Rotational entropy                ...      0.01441957 Eh      9.05 kcal/mol
Translational entropy             ...      0.01948509 Eh     12.23 kcal/mol
-----------------------------------------------------------------------
Final entropy term                ...      0.04910951 Eh     30.82 kcal/mol

In case the symmetry of your molecule has not been determined correctly
or in case you have a reason to use a different symmetry number we print 
out the resulting rotational entropy values for sn=1,12:

 non-linear molecules -----------------------------------
|  sn= 1 | S(rot)=       0.01441957 Eh      9.05 kcal/mol|
|  sn= 2 | S(rot)=       0.01376511 Eh      8.64 kcal/mol|
|  sn= 3 | S(rot)=       0.01338228 Eh      8.40 kcal/mol|
|  sn= 4 | S(rot)=       0.01311065 Eh      8.23 kcal/mol|
|  sn= 5 | S(rot)=       0.01289996 Eh      8.09 kcal/mol|
|  sn= 6 | S(rot)=       0.01272782 Eh      7.99 kcal/mol|
|  sn= 7 | S(rot)=       0.01258227 Eh      7.90 kcal/mol|
|  sn= 8 | S(rot)=       0.01245620 Eh      7.82 kcal/mol|
|  sn= 9 | S(rot)=       0.01234499 Eh      7.75 kcal/mol|
|  sn=10 | S(rot)=       0.01224551 Eh      7.68 kcal/mol|
|  sn=11 | S(rot)=       0.01215552 Eh      7.63 kcal/mol|
|  sn=12 | S(rot)=       0.01207336 Eh      7.58 kcal/mol|
 linear molecules ---------------------------------------
|  Dinfh | S(rot)=       0.00903666 Eh      5.67 kcal/mol|
|  Cinfv | S(rot)=       0.00969112 Eh      6.08 kcal/mol|
 --------------------------------------------------------


-------------------
GIBBS FREE ENERGY
-------------------

The Gibbs free energy is G = H - T*S

Total enthalpy                    ...    -83.63933747 Eh 
Total entropy correction          ...     -0.04910951 Eh    -30.82 kcal/mol
-----------------------------------------------------------------------
Final Gibbs free energy         ...    -83.68844698 Eh

For completeness - the Gibbs free energy minus the electronic energy
G-E(el)                           ...      0.23388570 Eh    146.77 kcal/mol


Maximum memory used throughout the entire PROP-calculation: 140.5 MB

--------------------------------
SUGGESTED CITATIONS FOR THIS RUN
--------------------------------

Below you find a list of papers that are relevant to this ORCA run
We neither can nor want to force you to cite these papers, but we appreciate if you do
You receive ORCA, which is the product of decades of hard work by many enthusiastic individuals, for free
The only thing we kindly ask in return is that you cite our papers,
We deeply appreciate it, if you show your appreciation for ORCA by not just citing the generic ORCA reference.

Please note that relegating all ORCA citations to the supporting information does *not* help us.
SI sections are not indexed - citations you put there will not count into any citation statistics
But we need these citations in order to attract the funding resources that allow us to do what we are doing

Therefore, if you are a happy ORCA user, please consider citing a few of the papers listed below in the main body of your paper

In addition to the list printed below, the program has created the file ./output/isomenthone/isomenthone.bibtex that contains the list in bibtex format
You can import this file easily into all common literature databanks and citation aid programs


List of essential papers. We consider these as the minimum necessary citations

  1. Neese,F.
     Software update: the ORCA program system, version 5.0
     WIRES Comput. Molec. Sci., 2022 12(1)e1606
     doi.org/10.1002/wcms.1606
  2. Mueller,M.; Hansen,A.; Grimme,S.
     wB97X-3c: A composite range-separated hybrid DFT method with a molecule-optimized polarized valence double-zeta basis set
     J. Chem. Phys., 2023 158 014103
     doi.org/10.1063/5.0133026

List of papers to cite with high priority. The work reported in these papers was absolutely
necessary for this run to complete.
Our perspective: the developers of density functionals and basis sets usually get cited in chemistry papers
Good! But without the algorithms to do something with them, the functionals or basis sets would not do anything.
Hence, in our opinion, the algorithm design and method developments papers are equally worthy of getting cited

  1. Neese,F.
     An improvement of the resolution of the identity approximation for the formation of the Coulomb matrix
     J. Comp. Chem., 2003 24(14)1740-1747
     doi.org/10.1002/jcc.10318
  2. Neese,F.; Wennmohs,F.; Hansen,A.; Becker,U.
     Efficient, approximate and parallel Hartree-Fock and hybrid DFT calculations. A 'chain-of-spheres' algorithm for the Hartree-Fock exchange
     Chem. Phys., 2009 356(1-3)98-109
     doi.org/10.1016/j.chemphys.2008.10.036
  3. Bykov,D.; Petrenko,T.; Izsak,R.; Kossmann,S.; Becker,U.; Valeev,E.; Neese,F.
     Efficient implementation of the analytic second derivatives of Hartree-Fock and hybrid DFT energies: a detailed analysis of different approximations
     Molec. Phys., 2015 113 1961-1977
     doi.org/10.1080/00268976.2015.1025114
  4. Helmich-Paris,B.; de Souza,B.; Neese,F.; Izsák,R.
     An improved chain of spheres for exchange algorithm
     J. Chem. Phys., 2021 155 104109
     doi.org/doi: 10.1063/5.0058766.
  5. Neese,F.
     The SHARK Integral Generation and Digestion System
     J. Comp. Chem., 2022  1-16
     doi.org/10.1002/jcc.26942
  6. Caldeweyher,E.; Bannwarth,C.; Grimme,S.
     Extension of the D3 dispersion coefficient model
     J. Chem. Phys., 2017 147 034112
     doi.org/10.1063/1.4993215
  7. Caldeweyher,E.; Ehlert,S.; Hansen,A.; Neugebauer,H.; Spicher,S.; Bannwarth,C.; Grimme,S.
     A generally applicable atomic-charge dependent London dispersion correction
     J. Chem. Phys., 2019 150 154122
     doi.org/10.1063/1.5090222
  8. Caldeweyher,E.; Mewes,J.; Ehlert,S.; Grimme,S.
     Extension and evaluation of the D4 London-dispersion model for periodic systems
     Phys. Chem. Chem. Phys., 2020 22(16)8499-8512
     doi.org/10.1039/D0CP00502A
  9. Wittmann,L.; Gordiy,I.; Friede,M.; Helmich-Paris,B.; Grimme,S.; Hansen,A.; Bursch,M.
     Extension of the D3 and D4 London Dispersion Corrections to the full Actinides Series
     Phys. Chem. Chem. Phys., 2024 26(32)21379-21394
     doi.org/https://doi.org/10.1039/D4CP01514B 

List of suggested additional citations. These are papers that are important in the 'surrounding' of 
of this run, or papers that preceded the highly important papers. If you like your results we are grateful for a citation.

  1. Izsak,R.; Neese,F.
     An overlap fitted chain of spheres exchange method
     J. Chem. Phys., 2011 135 144105
     doi.org/10.1063/1.3646921
  2. Izsak,R.; Hansen,A.; Neese,F.
     The resolution of identity and chain of spheres approximations for the LPNO-CCSD singles Fock term
     Molec. Phys., 2012 110 2413-2417
     doi.org/10.1080/00268976.2012.687466
  3. Neese,F.
     The ORCA program system
     WIRES Comput. Molec. Sci., 2012 2(1)73-78
     doi.org/10.1002/wcms.81
  4. Izsak,R.; Neese,F.; Klopper,W.
     Robust fitting techniques in the chain of spheres approximation to the Fock exchange: The role of the complementary space
     J. Chem. Phys., 2013 139 
     doi.org/10.1063/1.4819264
  5. Neese,F.
     Software update: the ORCA program system, version 4.0
     WIRES Comput. Molec. Sci., 2018 8(1)1-6
     doi.org/10.1002/wcms.1327
  6. Neese,F.; Wennmohs,F.; Becker,U.; Riplinger,C.
     The ORCA quantum chemistry program package
     J. Chem. Phys., 2020 152 Art. No. L224108
     doi.org/10.1063/5.0004608

List of optional additional citations

  1. Neese,F.
     Approximate second-order SCF convergence for spin unrestricted wavefunctions
     Chem. Phys. Lett., 2000 325(1-3)93-98
     doi.org/10.1016/s0009-2614(00)00662-x

Timings for individual modules:

Sum of individual times          ...      901.054 sec (=  15.018 min)
Startup calculation              ...       44.508 sec (=   0.742 min)   4.9 %
SCF iterations                   ...      532.795 sec (=   8.880 min)  59.1 %
Property integrals               ...       64.148 sec (=   1.069 min)   7.1 %
SCF Response                     ...       42.817 sec (=   0.714 min)   4.8 %
Property calculations            ...      107.109 sec (=   1.785 min)  11.9 %
SCF Gradient evaluation          ...      109.414 sec (=   1.824 min)  12.1 %
Geometry relaxation              ...        0.263 sec (=   0.004 min)   0.0 %
                             ****ORCA TERMINATED NORMALLY****
TOTAL RUN TIME: 0 days 0 hours 15 minutes 7 seconds 526 msec
