
                                 *****************
                                 * O   R   C   A *
                                 *****************

                                            #,                                       
                                            ###                                      
                                            ####                                     
                                            #####                                    
                                            ######                                   
                                           ########,                                 
                                     ,,################,,,,,                         
                               ,,#################################,,                 
                          ,,##########################################,,             
                       ,#########################################, ''#####,          
                    ,#############################################,,   '####,        
                  ,##################################################,,,,####,       
                ,###########''''           ''''###############################       
              ,#####''   ,,,,##########,,,,          '''####'''          '####       
            ,##' ,,,,###########################,,,                        '##       
           ' ,,###''''                  '''############,,,                           
         ,,##''                                '''############,,,,        ,,,,,,###''
      ,#''                                            '''#######################'''  
     '                                                          ''''####''''         
             ,#######,   #######,   ,#######,      ##                                
            ,#'     '#,  ##    ##  ,#'     '#,    #''#        ,####,   ,####,        
            ##       ##  ##   ,#'  ##            #'  '#       #'       #'  '#        
            ##       ##  #######   ##           ,######,      #####,   #    #        
            '#,     ,#'  ##    ##  '#,     ,#' ,#      #,     #,   #   #,  ,#        
             '#######'   ##     ##  '#######'  #'      '#     '####' # '####'        



                #########################################################
                #                        -***-                          #
                #          Department of theory and spectroscopy        #
                #                                                       #
                #                      Frank Neese                      #
                #                                                       #
                #     Directorship, Architecture, Infrastructure        #
                #                    SHARK, DRIVERS                     #
                #        Core code/Algorithms in most modules           #
                #                                                       #
                #        Max Planck Institute fuer Kohlenforschung      #
                #                Kaiser Wilhelm Platz 1                 #
                #                 D-45470 Muelheim/Ruhr                 #
                #                      Germany                          #
                #                                                       #
                #                  All rights reserved                  #
                #                        -***-                          #
                #########################################################


                         Program Version 6.0.1  -  RELEASE   -


 With contributions from (in alphabetic order):
[Max-Planck-Institut fuer Kohlenforschung]                               
  Daniel Aravena         : Magnetic Suceptibility                        
  Michael Atanasov       : Ab Initio Ligand Field Theory (pilot matlab implementation)
  Alexander A. Auer      : GIAO ZORA, VPT2 properties, NMR spectrum      
  Ute Becker             : All parallelization in ORCA, NUMFREQ, NUMCALC 
  Giovanni Bistoni       : ED, misc. LED, open-shell LED, HFLD           
  Martin Brehm           : Molecular dynamics                            
  Dmytro Bykov           : pre 5.0 version of the SCF Hessian            
  Marcos Casanova-Páez   : Triplet and SCS-CIS(D). UHF-(DLPNO)-IP/EA/STEOM-CCSD. UHF-CVS-IP/STEOM-CCSD   
  Vijay G. Chilkuri      : MRCI spin determinant printing, contributions to CSF-ICE 
  Pauline Colinet        : FMM embedding                                 
  Dipayan Datta          : RHF DLPNO-CCSD density                        
  Achintya Kumar Dutta   : EOM-CC, STEOM-CC                              
  Nicolas Foglia         : Exact transition moments, OPA infrastructure, MCD improvements    
  Dmitry Ganyushin       : Spin-Orbit,Spin-Spin,Magnetic field MRCI      
  Miquel Garcia-Rates    : C-PCM and meta-GGA Hessian, CCSD/C-PCM, Gaussian charge scheme 
  Tiago L. C. Gouveia    : GS-ROHF, GS-ROCIS                             
  Yang Guo               : DLPNO-NEVPT2, F12-NEVPT2, CIM, IAO-localization        
  Andreas Hansen         : Spin unrestricted coupled pair/coupled cluster methods 
  Ingolf Harden          : AUTO-CI MPn and infrastructure                
  Benjamin Helmich-Paris : MC-RPA, TRAH-(SCF,CASSCF), AVAS, COSX integrals, SCF dyn. polar. 
  Lee Huntington         : MR-EOM, pCC                                   
  Robert Izsak           : Overlap fitted RIJCOSX, COSX-SCS-MP3, EOM     
  Riya Kayal             : Wick's Theorem for AUTO-CI, AUTO-CI UHF-CCSDT 
  Emily Kempfer          : AUTO-CI, RHF CISDT and CCSDT                  
  Christian Kollmar      : KDIIS, OOCD, Brueckner-CCSD(T), CCSD density, CASPT2, CASPT2-K, improved NEVPT2 
  Axel Koslowski         : Symmetry handling                             
  Simone Kossmann        : meta-GGA functionals, TD-DFT gradient, OOMP2, (MP2 Hessian; deprecated post 5.0) 
  Lucas Lang             : DCDCAS                                        
  Marvin Lechner         : AUTO-CI (C++ implementation), FIC-MRCC        
  Spencer Leger          : CASSCF response                               
  Dagmar Lenk            : GEPOL surface, SMD, ORCA-2-JSON               
  Dimitrios Liakos       : Extrapolation schemes; Compound Job, initial MDCI parallelization 
  Dimitrios Manganas     : Further ROCIS development; embedding schemes. LFT, Crystal Embedding 
  Dimitrios Pantazis     : SARC Basis sets                               
  Anastasios Papadopoulos: AUTO-CI, single reference methods and gradients 
  Taras Petrenko         : pre 6.0 DFT Hessian and TD-DFT gradient, (ASA, deprecated), ECA, 1-Electron XAS/XES, NRVS 
  Peter Pinski           : DLPNO-MP2, DLPNO-MP2 Gradient                 
  Christoph Reimann      : Effective Core Potentials                     
  Marius Retegan         : Local ZFS, SOC                                
  Christoph Riplinger    : Optimizer, TS searches, QM/MM, DLPNO-CCSD(T), (RO)-DLPNO pert. Triples 
  Michael Roemelt        : Original ROCIS implementation                 
  Masaaki Saitow         : Open-shell DLPNO-CCSD energy and density      
  Barbara Sandhoefer     : DKH picture change effects                    
  Kantharuban Sivalingam : CASSCF convergence/infrastructure, NEVPT2 and variants, FIC-MRCI 
  Bernardo de Souza      : ESD, SOC TD-DFT                               
  Georgi L. Stoychev     : AutoAux, RI-MP2 NMR, DLPNO-MP2 response, X2C  
  Van Anh Tran           : RI-MP2 g-tensors                              
  Willem Van den Heuvel  : Paramagnetic NMR                              
  Zikuan Wang            : NOTCH, Electric field optimization            
  Frank Wennmohs         : Technical directorship and infrastructure     
  Hang Xu                : AUTO-CI-Response properties                   
                                                                         
[FACCTs GmbH]                                                            
  Markus Bursch, Miquel Garcia-Rates, Christoph Riplinger, Bernardo de Souza, Georgi L. Stoychev 
                                                                 
  APM, Basis sets (HGBS, AHGBS, def-TZVP (Ac-Lr), def2-XVPD (La-Lu)), CI-OPT, improved COSX, DLPNO-Multilevel,           
  DOCKER, DRACO, updates on ESD, GOAT, IRC, LR-CPCM, MBIS, meta-GGA TD-DFT gradient, ML-optimized integration grids, 
  MM, NACMEs, nearIR, NEB, NEB-TS, NL-DFT gradient (VV10), 2- and 3-layer-ONIOM, interface openCOSMO-RS, QMMM,   
  Crystal-QMMM, SF, symmetry and pop. for TD-DFT, r2SCAN hybrids, SOLVATOR                                   
                                                                         
[Other institutions]                                                     
  V. Asgeirsson          : NEB                                           
  Christoph Bannwarth    : sTDA-DFT, sTD-DFT, PBEh-3c, B97-3c, D3        
  Sebastian Ehlert       : rSCAN, r2SCAN, r2SCAN-3c, D4, dhf basis sets  
  Marvin Friede          : D4 for Fr, Ra, Ac-Lr                          
  Lars Goerigk           : TD-DFT with DH, B97 family of functionals     
  Stefan Grimme          : VdW corrections, initial TS optimization, DFT functionals, gCP, sTDA/sTD-DF 
  Waldemar Hujo          : DFT-NL                                        
  H. Jonsson             : NEB                                           
  Holger Kruse           : gCP                                           
  Marcel Mueller         : wB97X-3c, vDZP basis set                      
  Hagen Neugebauer       : wr2SCAN                                       
  Tobias Risthaus        : range-separated hybrid DFT                    
  Lukas Wittmann         : regularized MP2, r2SCAN double-hybrids, wr2SCAN        
                                                                         
We gratefully acknowledge several colleagues who have allowed us to      
interface, adapt or use parts of their codes:                            
  Ed Valeev, F. Pavosevic, A. Kumar             : LibInt (2-el integral package), F12 methods 
  Garnet Chan, S. Sharma, J. Yang, R. Olivares  : DMRG                   
  Ulf Ekstrom                                   : XCFun DFT Library      
  Mihaly Kallay                                 : mrcc  (arbitrary order and MRCC methods)
  Frank Weinhold                                : gennbo (NPA and NBO analysis)           
  Simon Mueller                                 : openCOSMO-RS                            
  Christopher J. Cramer and Donald G. Truhlar   : smd solvation model                     
  S Lehtola, MJT Oliveira, MAL Marques          : LibXC Library                           
  Liviu Ungur et al                             : ANISO software                          


 Your calculation uses the libint2 library for the computation of 2-el integrals
 For citations please refer to: http://libint.valeyev.net

 Your ORCA version has been built with support for libXC version: 6.2.2
 For citations please refer to: https://libxc.gitlab.io

 This ORCA versions uses:
   CBLAS   interface :  Fast vector & matrix operations
   LAPACKE interface :  Fast linear algebra routines
   SCALAPACK package :  Parallel linear algebra routines
   Shared memory     :  Shared parallel matrices
   BLAS/LAPACK       :  OpenBLAS 0.3.27  USE64BITINT DYNAMIC_ARCH NO_AFFINITY SkylakeX SINGLE_THREADED
        Core in use  :  SkylakeX
   Copyright (c) 2011-2014, The OpenBLAS Project


Your calculation utilizes the atom-pairwise dispersion correction
based on EEQ partial charges (D4)


================================================================================

cite the ECPs for C  [vDZP-ECP] as follows:
   B-Ne (ecp-2-mwb), Al-Ar (ecp-10-mwb), Ga-Kr (ecp-28-mwb), Y-Cd (ecp-28-mwb), In-Xe (ecp-46-mwb):
     A. Bergner, M. Dolg, W. Küchle, H. Stoll, and H. Preuß, Mol. Phys. 80, 1431 (1993)., T. Leininger, A. Berning, A. Nicklass, H. Stoll, H.-J. Werner, and H.-J.Flad, Chem. Phys. 217, 19 (1997).
   Na-Mg, K-Ca, Rb-Sr, Cs-Ba (CRENBL):
     L. Fernandez Pacios and P. A. Christiansen, J. Chem. Phys. 82, 2664 (1985)., M. M. Hurley, L. F. Pacios, P. A. Christiansen, R. B. Ross, and W. C. Ermler, J. Chem. Phys. 84, 6840 (1986)., L. A. LaJohn, P. A. Christiansen, R. B. Ross, T. Atashroo, and W. C. Ermler, J. Chem. Phys. 87, 2812 (1987)., R. B. Ross, J. M. Powers, T. Atashroo, W. C. Ermler, L. A. LaJohn, and P. A. Christiansen, J. Chem. Phys. 93, 6654 (1990). 
   Sc-Zn (ecp-10-mdf):
     M. Dolg, U. Wedig, H. Stoll, and H. Preuss, J. Chem. Phys. 86, 866 (1986). 
   Y-Cd (ecp-28-mwb), Hf-Hg (ecp-60-mwb):
     D. Andrae, U. Häußermann, M. Dolg, H. Stoll, and H. Preuß, Theor. Chim. Acta 77, 123 (1990). 
   La (ecp-46-mwb):
     M. Dolg, H. Stoll, and H. Preuss, J. Chem. Phys. 90, 1730 (1989)., M. Dolg, H. Stoll, and H. Preuss, Theor. Chim. Acta 85, 441 (1993).
   Ce-Lu (SBKJC-ecp):
     T. R. Cundari and W. J. Stevens, J. Chem. Phys. 98, 5555 (1993).
   Tl-Rn (ecp-78-mwb):
     W. Küchle, M. Dolg, H. Stoll, and H. Preuss, Mol. Phys. 74, 1245 (1991).

ECP parameters for C  [vDZP-ECP] have been obtained from:
MM, AH, SG, J. Chem. Phys. 158, 014103 (2023), 10.1063/5.0133026

----- Orbital basis set information -----
Your calculation utilizes the basis: vDZP
   Marcel Mueller, Andreas Hansen, Stefan Grimme 
   J. Chem. Phys. 158, 014103 (2023). DOI: 10.1063/5.0133026

----- AuxJ basis set information -----
Your calculation utilizes the auxiliary basis: def2/J
   F. Weigend, Phys. Chem. Chem. Phys. 8, 1057 (2006).

================================================================================
                                        WARNINGS
                       Please study these warnings very carefully!
================================================================================

WARNING: Frozen-Core approximation turned on, but there are no core electrons.
  ===> : Turning off frozen-core approximation


WARNING: Geometry Optimization
  ===> : Switching off AutoStart
         For restart on a previous wavefunction, please use MOREAD

================================================================================
                                       INPUT FILE
================================================================================
NAME = ./output/limonene/limonene.inp
|  1> ! wB97X-3c OPT FREQ TightSCF
|  2> %pal
|  3>   nprocs 40
|  4> end
|  5> * xyz 0 1
|  6> C      3.400117     0.846432    -0.934828
|  7> C      1.959375     0.745270    -0.517812
|  8> C      0.980320     0.931389    -1.418390
|  9> C     -0.453420     0.775296    -0.992923
| 10> C     -0.624497    -0.512238    -0.150323
| 11> C      0.506022    -0.717388     0.911624
| 12> C      1.576525     0.390035     0.900596
| 13> C     -2.010463    -0.564962     0.478383
| 14> C     -2.376025     0.324644     1.416890
| 15> C     -2.999064    -1.620740     0.056056
| 16> H      4.080485     0.667000    -0.076443
| 17> H      3.617068     0.092721    -1.720987
| 18> H      3.603344     1.861451    -1.336796
| 19> H      1.214063     1.147428    -2.457305
| 20> H     -1.107657     0.734245    -1.890534
| 21> H     -0.737041     1.671788    -0.400735
| 22> H     -0.533289    -1.355899    -0.870666
| 23> H      0.093096    -0.795132     1.941010
| 24> H      1.011879    -1.687710     0.709935
| 25> H      2.460587     0.056307     1.484957
| 26> H      1.165615     1.296596     1.395801
| 27> H     -3.365102     0.286876     1.863912
| 28> H     -1.690830     1.095777     1.755180
| 29> H     -3.911561    -1.137612    -0.353112
| 30> H     -2.580165    -2.288008    -0.725305
| 31> H     -3.279380    -2.243566     0.931816
| 32> *
| 33> 
| 34>                          ****END OF INPUT****
================================================================================

                       *****************************
                       * Geometry Optimization Run *
                       *****************************

Geometry optimization settings:
Update method            Update   .... BFGS
Choice of coordinates    CoordSys .... (2022) Redundant Internals
Initial Hessian          InHess   .... Almloef's Model
Max. no of cycles        MaxIter  .... 78

Convergence Tolerances:
Energy Change            TolE     ....  5.0000e-06 Eh
Max. Gradient            TolMAXG  ....  3.0000e-04 Eh/bohr
RMS Gradient             TolRMSG  ....  1.0000e-04 Eh/bohr
Max. Displacement        TolMAXD  ....  4.0000e-03 bohr
RMS Displacement         TolRMSD  ....  2.0000e-03 bohr
Strict Convergence                .... False

------------------------------------------------------------------------------
                        ORCA OPTIMIZATION COORDINATE SETUP
------------------------------------------------------------------------------

The optimization will be done in redundant internal coordinates (2022)
Making redundant internal coordinates   ...  (2022 redundants) done
Evaluating the initial hessian          ...  (Almloef) done
Evaluating the coordinates              ...  done
Calculating the B-matrix                .... done
Calculating the G-matrix                .... done
Diagonalizing the G-matrix              .... done
Small eigenvalue found = 2.135e-02
Small eigenvalue found = 2.954e-02
The first mode is                       ....   53
The number of degrees of freedom        ....   72

    -----------------------------------------------------------------
                    Redundant Internal Coordinates


    -----------------------------------------------------------------
         Definition                    Initial Value    Approx d2E/dq
    -----------------------------------------------------------------
      1. B(C   1,C   0)                  1.5033         0.412093   
      2. B(C   2,C   1)                  1.3432         0.741958   
      3. B(C   3,C   2)                  1.5037         0.411528   
      4. B(C   4,C   3)                  1.5482         0.349388   
      5. B(C   5,C   4)                  1.5646         0.329016   
      6. B(C   6,C   5)                  1.5403         0.359721   
      7. B(C   6,C   1)                  1.5115         0.399839   
      8. B(C   7,C   4)                  1.5228         0.383572   
      9. B(C   8,C   7)                  1.3438         0.740336   
     10. B(C   9,C   7)                  1.5068         0.406853   
     11. B(H  10,C   0)                  1.1099         0.334690   
     12. B(H  11,C   0)                  1.1105         0.333986   
     13. B(H  12,C   0)                  1.1105         0.334014   
     14. B(H  13,C   2)                  1.0866         0.364655   
     15. B(H  14,C   3)                  1.1115         0.332761   
     16. B(H  15,C   3)                  1.1112         0.333086   
     17. B(H  16,C   4)                  1.1131         0.330810   
     18. B(H  17,C   5)                  1.1118         0.332337   
     19. B(H  18,C   5)                  1.1127         0.331292   
     20. B(H  19,C   6)                  1.1110         0.333311   
     21. B(H  20,C   6)                  1.1117         0.332480   
     22. B(H  21,C   8)                  1.0861         0.365349   
     23. B(H  22,C   8)                  1.0856         0.365936   
     24. B(H  23,C   9)                  1.1106         0.333827   
     25. B(H  24,C   9)                  1.1096         0.335063   
     26. B(H  25,C   9)                  1.1106         0.333848   
     27. A(C   1,C   0,H  12)          109.7136         0.325543   
     28. A(C   1,C   0,H  11)          109.7518         0.325539   
     29. A(C   1,C   0,H  10)          111.2273         0.325652   
     30. A(H  10,C   0,H  11)          108.5434         0.284170   
     31. A(H  10,C   0,H  12)          108.3928         0.284174   
     32. A(H  11,C   0,H  12)          109.1696         0.284081   
     33. A(C   0,C   1,C   2)          120.2152         0.416644   
     34. A(C   0,C   1,C   6)          121.2575         0.373860   
     35. A(C   2,C   1,C   6)          118.4970         0.414413   
     36. A(C   3,C   2,H  13)          119.7553         0.330214   
     37. A(C   1,C   2,H  13)          120.7842         0.364639   
     38. A(C   1,C   2,C   3)          119.3998         0.416542   
     39. A(H  14,C   3,H  15)          108.0550         0.283796   
     40. A(C   2,C   3,H  15)          108.0837         0.325321   
     41. A(C   2,C   3,C   4)          110.2236         0.365210   
     42. A(C   2,C   3,H  14)          109.6679         0.325269   
     43. A(C   4,C   3,H  14)          110.1059         0.316675   
     44. A(C   4,C   3,H  15)          110.6515         0.316726   
     45. A(C   5,C   4,H  16)          106.2997         0.313302   
     46. A(C   3,C   4,H  16)          105.6084         0.316373   
     47. A(C   5,C   4,C   7)          111.8930         0.357175   
     48. A(C   3,C   4,C   7)          110.7356         0.360847   
     49. A(C   3,C   4,C   5)          113.4906         0.351569   
     50. A(C   7,C   4,H  16)          108.3921         0.321227   
     51. A(C   6,C   5,H  17)          108.3619         0.318116   
     52. A(C   4,C   5,H  17)          111.6676         0.313536   
     53. A(C   4,C   5,C   6)          113.7694         0.353306   
     54. A(H  17,C   5,H  18)          106.0028         0.283502   
     55. A(C   6,C   5,H  18)          108.0420         0.317953   
     56. A(C   4,C   5,H  18)          108.6516         0.313376   
     57. A(H  19,C   6,H  20)          107.7440         0.283788   
     58. A(C   5,C   6,H  20)          109.0393         0.318138   
     59. A(C   1,C   6,H  20)          108.6614         0.323688   
     60. A(C   5,C   6,H  19)          109.4686         0.318268   
     61. A(C   1,C   6,H  19)          111.2607         0.323821   
     62. A(C   1,C   6,C   5)          110.5931         0.365230   
     63. A(C   8,C   7,C   9)          118.7589         0.415535   
     64. A(C   4,C   7,C   9)          120.3770         0.370379   
     65. A(C   4,C   7,C   8)          120.8642         0.411209   
     66. A(H  21,C   8,H  22)          118.1145         0.292240   
     67. A(C   7,C   8,H  22)          121.0750         0.364722   
     68. A(C   7,C   8,H  21)          120.8090         0.364621   
     69. A(H  24,C   9,H  25)          108.2593         0.284201   
     70. A(H  23,C   9,H  25)          109.0921         0.284038   
     71. A(C   7,C   9,H  25)          109.7264         0.324833   
     72. A(H  23,C   9,H  24)          108.2001         0.284198   
     73. A(C   7,C   9,H  24)          111.7797         0.325027   
     74. A(C   7,C   9,H  23)          109.7258         0.324829   
     75. D(C   6,C   1,C   0,H  11)    118.0998         0.012573   
     76. D(C   6,C   1,C   0,H  10)     -2.0306         0.012573   
     77. D(C   2,C   1,C   0,H  11)    -59.8678         0.012573   
     78. D(C   2,C   1,C   0,H  10)   -179.9982         0.012573   
     79. D(C   2,C   1,C   0,H  12)     60.0844         0.012573   
     80. D(C   3,C   2,C   1,C   6)     -0.2969         0.039178   
     81. D(H  13,C   2,C   1,C   6)   -177.4561         0.039178   
     82. D(H  13,C   2,C   1,C   0)      0.5670         0.039178   
     83. D(C   3,C   2,C   1,C   0)    177.7262         0.039178   
     84. D(C   4,C   3,C   2,H  13)    131.3245         0.012540   
     85. D(H  14,C   3,C   2,C   1)   -167.2442         0.012540   
     86. D(H  14,C   3,C   2,H  13)      9.9446         0.012540   
     87. D(H  15,C   3,C   2,C   1)     75.1785         0.012540   
     88. D(C   4,C   3,C   2,C   1)    -45.8643         0.012540   
     89. D(C   5,C   4,C   3,C   2)     43.8037         0.009838   
     90. D(C   7,C   4,C   3,H  15)     51.1250         0.009838   
     91. D(C   7,C   4,C   3,H  14)    -68.2601         0.009838   
     92. D(C   7,C   4,C   3,C   2)    170.6211         0.009838   
     93. D(C   5,C   4,C   3,H  15)    -75.6923         0.009838   
     94. D(C   5,C   4,C   3,H  14)    164.9225         0.009838   
     95. D(H  17,C   5,C   4,H  16)   -122.0218         0.008821   
     96. D(H  17,C   5,C   4,C   7)     -3.8712         0.008821   
     97. D(H  17,C   5,C   4,C   3)    122.3361         0.008821   
     98. D(C   6,C   5,C   4,H  16)    114.9288         0.008821   
     99. D(C   6,C   5,C   4,C   7)   -126.9207         0.008821   
    100. D(C   6,C   5,C   4,C   3)     -0.7134         0.008821   
    101. D(H  19,C   6,C   1,C   2)    168.0330         0.011865   
    102. D(H  19,C   6,C   1,C   0)     -9.9686         0.011865   
    103. D(C   5,C   6,C   1,C   2)     46.1464         0.011865   
    104. D(H  20,C   6,C   1,C   0)    108.4935         0.011865   
    105. D(C   5,C   6,C   1,C   0)   -131.8552         0.011865   
    106. D(H  19,C   6,C   5,H  18)    -45.2096         0.010383   
    107. D(H  19,C   6,C   5,H  17)     69.2223         0.010383   
    108. D(H  19,C   6,C   5,C   4)   -165.9389         0.010383   
    109. D(C   1,C   6,C   5,H  18)     77.7248         0.010383   
    110. D(C   1,C   6,C   5,H  17)   -167.8433         0.010383   
    111. D(C   1,C   6,C   5,C   4)    -43.0045         0.010383   
    112. D(C   9,C   7,C   4,C   5)   -118.6572         0.010966   
    113. D(C   9,C   7,C   4,C   3)    113.6472         0.010966   
    114. D(C   8,C   7,C   4,H  16)    178.2405         0.010966   
    115. D(C   8,C   7,C   4,C   5)     61.3442         0.010966   
    116. D(C   8,C   7,C   4,C   3)    -66.3514         0.010966   
    117. D(H  22,C   8,C   7,C   9)    179.4772         0.038991   
    118. D(H  22,C   8,C   7,C   4)     -0.5242         0.038991   
    119. D(H  21,C   8,C   7,C   9)     -0.0654         0.038991   
    120. D(H  21,C   8,C   7,C   4)    179.9332         0.038991   
    121. D(H  25,C   9,C   7,C   4)    119.8342         0.012267   
    122. D(H  24,C   9,C   7,C   8)    179.7197         0.012267   
    123. D(H  24,C   9,C   7,C   4)     -0.2789         0.012267   
    124. D(H  23,C   9,C   7,C   8)     59.6814         0.012267   
    125. D(H  23,C   9,C   7,C   4)   -120.3172         0.012267   
    -----------------------------------------------------------------

Number of atoms                         .... 26
Number of degrees of freedom            .... 125


         *************************************************************
         *                GEOMETRY OPTIMIZATION CYCLE   1            *
         *************************************************************
---------------------------------
CARTESIAN COORDINATES (ANGSTROEM)
---------------------------------
  C      3.400117    0.846432   -0.934828
  C      1.959375    0.745270   -0.517812
  C      0.980320    0.931389   -1.418390
  C     -0.453420    0.775296   -0.992923
  C     -0.624497   -0.512238   -0.150323
  C      0.506022   -0.717388    0.911624
  C      1.576525    0.390035    0.900596
  C     -2.010463   -0.564962    0.478383
  C     -2.376025    0.324644    1.416890
  C     -2.999064   -1.620740    0.056056
  H      4.080485    0.667000   -0.076443
  H      3.617068    0.092721   -1.720987
  H      3.603344    1.861451   -1.336796
  H      1.214063    1.147428   -2.457305
  H     -1.107657    0.734245   -1.890534
  H     -0.737041    1.671788   -0.400735
  H     -0.533289   -1.355899   -0.870666
  H      0.093096   -0.795132    1.941010
  H      1.011879   -1.687710    0.709935
  H      2.460587    0.056307    1.484957
  H      1.165615    1.296596    1.395801
  H     -3.365102    0.286876    1.863912
  H     -1.690830    1.095777    1.755180
  H     -3.911561   -1.137612   -0.353112
  H     -2.580165   -2.288008   -0.725305
  H     -3.279380   -2.243566    0.931816

----------------------------
CARTESIAN COORDINATES (A.U.)
----------------------------
  NO LB      ZA    FRAG     MASS         X           Y           Z
   0 C     4.0000*   0    12.011    6.425290    1.599525   -1.766569
   1 C     4.0000*   0    12.011    3.702682    1.408356   -0.978523
   2 C     4.0000*   0    12.011    1.852536    1.760070   -2.680369
   3 C     4.0000*   0    12.011   -0.856840    1.465097   -1.876353
   4 C     4.0000*   0    12.011   -1.180128   -0.967990   -0.284069
   5 C     4.0000*   0    12.011    0.956243   -1.355667    1.722720
   6 C     4.0000*   0    12.011    2.979200    0.737059    1.701880
   7 C     4.0000*   0    12.011   -3.799224   -1.067623    0.904013
   8 C     4.0000*   0    12.011   -4.490037    0.613488    2.677534
   9 C     4.0000*   0    12.011   -5.667410   -3.062755    0.105930
  10 H     1.0000    0     1.008    7.710999    1.260447   -0.144456
  11 H     1.0000    0     1.008    6.835268    0.175217   -3.252194
  12 H     1.0000    0     1.008    6.809333    3.517633   -2.526178
  13 H     1.0000    0     1.008    2.294247    2.168325   -4.643633
  14 H     1.0000    0     1.008   -2.093168    1.387522   -3.572592
  15 H     1.0000    0     1.008   -1.392806    3.159221   -0.757279
  16 H     1.0000    0     1.008   -1.007770   -2.562278   -1.645320
  17 H     1.0000    0     1.008    0.175926   -1.502582    3.667977
  18 H     1.0000    0     1.008    1.912174   -3.189310    1.341583
  19 H     1.0000    0     1.008    4.649836    0.106405    2.806162
  20 H     1.0000    0     1.008    2.202693    2.450211    2.637682
  21 H     1.0000    0     1.008   -6.359121    0.542117    3.522283
  22 H     1.0000    0     1.008   -3.195206    2.070718    3.316810
  23 H     1.0000    0     1.008   -7.391779   -2.149775   -0.667285
  24 H     1.0000    0     1.008   -4.875805   -4.323709   -1.370628
  25 H     1.0000    0     1.008   -6.197130   -4.239725    1.760877
* core charge reduced due to ECP

--------------------------------
INTERNAL COORDINATES (ANGSTROEM)
--------------------------------
 C      0   0   0     0.000000000000     0.00000000     0.00000000
 C      1   0   0     1.503287598919     0.00000000     0.00000000
 C      2   1   0     1.343216181138   120.21523280     0.00000000
 C      3   2   1     1.503661391517   119.39977664   177.72618323
 C      4   3   2     1.548220236622   110.22359387   314.13568311
 C      5   4   3     1.564573795853   113.49062611    43.80374603
 C      2   1   3     1.511504972598   121.25745517   177.96756104
 C      5   4   3     1.522810824682   110.73559007   170.62106544
 C      8   5   4     1.343811668400   120.86417873   293.64857323
 C      8   5   4     1.506771123102   120.37696840   113.64717233
 H      1   2   3     1.109919486392   111.22733099   180.00181550
 H      1   2   3     1.110492674988   109.75181028   300.13221916
 H      1   2   3     1.110469746060   109.71364690    60.08439898
 H      3   2   1     1.086578582890   120.78419062     0.56702878
 H      4   3   2     1.111493024760   109.66793341   192.75581862
 H      4   3   2     1.111226981786   108.08365943    75.17854246
 H      5   4   3     1.113093356298   105.60843728   287.75364855
 H      6   5   4     1.111839713272   111.66763649   122.33609176
 H      6   5   4     1.112696967217   108.65155174   238.89966767
 H      7   2   1     1.111043552769   111.26067145   350.03143895
 H      7   2   1     1.111722927193   108.66139591   108.49348223
 H      9   8   5     1.086060956962   120.80899564   179.93324775
 H      9   8   5     1.085623514767   121.07496076   359.47584148
 H     10   8   5     1.110622299262   109.72578416   239.68277333
 H     10   8   5     1.109616135583   111.77966193   359.72108101
 H     10   8   5     1.110605629255   109.72635972   119.83418811

---------------------------
INTERNAL COORDINATES (A.U.)
---------------------------
 C      0   0   0     0.000000000000     0.00000000     0.00000000
 C      1   0   0     2.840801862477     0.00000000     0.00000000
 C      2   1   0     2.538310721002   120.21523280     0.00000000
 C      3   2   1     2.841508228118   119.39977664   177.72618323
 C      4   3   2     2.925712242210   110.22359387   314.13568311
 C      5   4   3     2.956615990472   113.49062611    43.80374603
 C      2   1   3     2.856330448271   121.25745517   177.96756104
 C      5   4   3     2.877695412419   110.73559007   170.62106544
 C      8   5   4     2.539436028845   120.86417873   293.64857323
 C      8   5   4     2.847384769164   120.37696840   113.64717233
 H      1   2   3     2.097443859984   111.22733099   180.00181550
 H      1   2   3     2.098527029454   109.75181028   300.13221916
 H      1   2   3     2.098483700058   109.71364690    60.08439898
 H      3   2   1     2.053335944646   120.78419062     0.56702878
 H      4   3   2     2.100417416561   109.66793341   192.75581862
 H      4   3   2     2.099914668199   108.08365943    75.17854246
 H      5   4   3     2.103441604890   105.60843728   287.75364855
 H      6   5   4     2.101072562901   111.66763649   122.33609176
 H      6   5   4     2.102692538085   108.65155174   238.89966767
 H      7   2   1     2.099568037592   111.26067145   350.03143895
 H      7   2   1     2.100851869196   108.66139591   108.49348223
 H      9   8   5     2.052357773402   120.80899564   179.93324775
 H      9   8   5     2.051531127454   121.07496076   359.47584148
 H     10   8   5     2.098771983830   109.72578416   239.68277333
 H     10   8   5     2.096870610032   111.77966193   359.72108101
 H     10   8   5     2.098740482082   109.72635972   119.83418811

---------------------
BASIS SET INFORMATION
---------------------
There are 2 groups of distinct atoms

 Group   1 Type C   : 6s6p2d contracted to 2s2p1d pattern {42/42/2}
 Group   2 Type H   : 8s2p contracted to 2s1p pattern {53/2}

Atom   0C    basis set group =>   1
Atom   1C    basis set group =>   1
Atom   2C    basis set group =>   1
Atom   3C    basis set group =>   1
Atom   4C    basis set group =>   1
Atom   5C    basis set group =>   1
Atom   6C    basis set group =>   1
Atom   7C    basis set group =>   1
Atom   8C    basis set group =>   1
Atom   9C    basis set group =>   1
Atom  10H    basis set group =>   2
Atom  11H    basis set group =>   2
Atom  12H    basis set group =>   2
Atom  13H    basis set group =>   2
Atom  14H    basis set group =>   2
Atom  15H    basis set group =>   2
Atom  16H    basis set group =>   2
Atom  17H    basis set group =>   2
Atom  18H    basis set group =>   2
Atom  19H    basis set group =>   2
Atom  20H    basis set group =>   2
Atom  21H    basis set group =>   2
Atom  22H    basis set group =>   2
Atom  23H    basis set group =>   2
Atom  24H    basis set group =>   2
Atom  25H    basis set group =>   2
---------------------------------
AUXILIARY/J BASIS SET INFORMATION
---------------------------------
There are 2 groups of distinct atoms

 Group   1 Type C   : 12s5p4d2f1g contracted to 6s4p3d1f1g pattern {711111/2111/211/2/1}
 Group   2 Type H   : 5s2p1d contracted to 3s1p1d pattern {311/2/1}

Atom   0C    basis set group =>   1
Atom   1C    basis set group =>   1
Atom   2C    basis set group =>   1
Atom   3C    basis set group =>   1
Atom   4C    basis set group =>   1
Atom   5C    basis set group =>   1
Atom   6C    basis set group =>   1
Atom   7C    basis set group =>   1
Atom   8C    basis set group =>   1
Atom   9C    basis set group =>   1
Atom  10H    basis set group =>   2
Atom  11H    basis set group =>   2
Atom  12H    basis set group =>   2
Atom  13H    basis set group =>   2
Atom  14H    basis set group =>   2
Atom  15H    basis set group =>   2
Atom  16H    basis set group =>   2
Atom  17H    basis set group =>   2
Atom  18H    basis set group =>   2
Atom  19H    basis set group =>   2
Atom  20H    basis set group =>   2
Atom  21H    basis set group =>   2
Atom  22H    basis set group =>   2
Atom  23H    basis set group =>   2
Atom  24H    basis set group =>   2
Atom  25H    basis set group =>   2
-------------------------
ECP PARAMETER INFORMATION
-------------------------

 Group 1, Type C  ECP vDZP-ECP (replacing 2 core electrons, lmax=3)

Atom   0C    ECP group =>   1
Atom   1C    ECP group =>   1
Atom   2C    ECP group =>   1
Atom   3C    ECP group =>   1
Atom   4C    ECP group =>   1
Atom   5C    ECP group =>   1
Atom   6C    ECP group =>   1
Atom   7C    ECP group =>   1
Atom   8C    ECP group =>   1
Atom   9C    ECP group =>   1



           ************************************************************
           *        Program running with 40 parallel MPI-processes    *
           *              working on a common directory               *
           ************************************************************
------------------------------------------------------------------------------
                             ORCA STARTUP CALCULATIONS
                           -- RI-GTO INTEGRALS CHOSEN --
------------------------------------------------------------------------------
------------------------------------------------------------------------------
                   ___                                                        
                  /   \      - P O W E R E D   B Y -                         
                 /     \                                                     
                 |  |  |   _    _      __       _____    __    __             
                 |  |  |  | |  | |    /  \     |  _  \  |  |  /  |          
                  \  \/   | |  | |   /    \    | | | |  |  | /  /          
                 / \  \   | |__| |  /  /\  \   | |_| |  |  |/  /          
                |  |  |   |  __  | /  /__\  \  |    /   |      \           
                |  |  |   | |  | | |   __   |  |    \   |  |\   \          
                \     /   | |  | | |  |  |  |  | |\  \  |  | \   \       
                 \___/    |_|  |_| |__|  |__|  |_| \__\ |__|  \__/        
                                                                              
                      - O R C A' S   B I G   F R I E N D -                    
                                      &                                       
                       - I N T E G R A L  F E E D E R -                       
                                                                              
 v1 FN, 2020, v2 2021, v3 2022-2024                                           
------------------------------------------------------------------------------


----------------------
SHARK INTEGRAL PACKAGE
----------------------

Number of atoms                             ...     26
Number of basis functions                   ...    210
Number of shells                            ...     98
Maximum angular momentum                    ...      2
Integral batch strategy                     ... SHARK/LIBINT Hybrid
RI-J (if used) integral strategy            ... SPLIT-RIJ (Revised 2003 algorithm where possible)
Printlevel                                  ...      1
Contraction scheme used                     ... SEGMENTED contraction
Prescreening option                         ... SCHWARTZ
   Thresh                                   ... 2.500e-11
   Tcut                                     ... 2.500e-12
   Tpresel                                  ... 2.500e-12 
Coulomb Range Separation                    ... NOT USED
Exchange Range Separation                   ... Long Range
   Mu parameter                             ... 3.000e-01
   Scaling (regular/separated)              ... 1.670e-01 8.330e-01
Multipole approximations                    ... NOT USED
Finite Nucleus Model                        ... NOT USED
CABS basis                                  ... NOT available
Auxiliary Coulomb fitting basis             ... AVAILABLE
   # of basis functions in Aux-J            ...    666
   # of shells in Aux-J                     ...    230
   Maximum angular momentum in Aux-J        ...      4
Auxiliary J/K fitting basis                 ... NOT available
Auxiliary Correlation fitting basis         ... NOT available
Auxiliary 'external' fitting basis          ... NOT available

Checking pre-screening integrals            ... done (  0.0 sec) Dimension = 98
Check shell pair data                       ... done (  0.0 sec)
Shell pair information
Shell pair cut-off parameter TPreSel        ...   2.5e-12
Total number of shell pairs                 ...      4851
Shell pairs after pre-screening             ...      4817
Total number of primitive shell pairs       ...     45524
Primitive shell pairs kept                  ...     36782
          la=0 lb=0:   1374 shell pairs
          la=1 lb=0:   1857 shell pairs
          la=1 lb=1:    651 shell pairs
          la=2 lb=0:    520 shell pairs
          la=2 lb=1:    360 shell pairs
          la=2 lb=2:     55 shell pairs

Calculating one electron integrals          ... done (  0.0 sec)
Calculating ECP integrals                   ... done (  0.1 sec)
Calculating RI/J V-Matrix + Cholesky decomp.... done (  0.0 sec)
Calculating Nuclear repulsion               ... done (  0.0 sec) ENN=    284.312910725490 Eh

Diagonalization of the overlap matrix:
Smallest eigenvalue                        ... 1.075e-03
Time for diagonalization                   ...    0.006 sec
Threshold for overlap eigenvalues          ... 1.000e-07
Number of eigenvalues below threshold      ... 0
Time for construction of square roots      ...    0.004 sec
Total time needed                          ...    0.013 sec

-------------------
DFT GRID GENERATION
-------------------

General Integration Accuracy     IntAcc      ... 4.388
Radial Grid Type                 RadialGrid  ... OptM3 with GC (2021)
Angular Grid (max. ang.)         AngularGrid ... 4 (Lebedev-302)
Angular grid pruning method      GridPruning ... 4 (adaptive)
Weight generation scheme         WeightScheme... mBecke (2022)
Basis function cutoff            BFCut       ... 1.0000e-11
Integration weight cutoff        WCut        ... 1.0000e-14
Partially contracted basis set               ... off
Rotationally invariant grid construction     ... off
Angular grids for H and He will be reduced by one unit

Total number of grid points                  ...   110822
Total number of batches                      ...     1744
Average number of points per batch           ...       63
Average number of grid points per atom       ...     4262

--------------------
COSX GRID GENERATION
--------------------

GRIDX 1
-------
General Integration Accuracy     IntAcc      ... 3.816
Radial Grid Type                 RadialGrid  ... OptM3 with GC (2021)
Angular Grid (max. ang.)         AngularGrid ... 1 (Lebedev-50)
Angular grid pruning method      GridPruning ... 4 (adaptive)
Weight generation scheme         WeightScheme... mBecke (2022)
Basis function cutoff            BFCut       ... 1.0000e-11
Integration weight cutoff        WCut        ... 1.0000e-14
Partially contracted basis set               ... on
Rotationally invariant grid construction     ... off
Angular grids for H and He will be reduced by one unit

Total number of grid points                  ...    14204
Total number of batches                      ...      130
Average number of points per batch           ...      109
Average number of grid points per atom       ...      546
UseSFitting                                  ... on

GRIDX 2
-------
General Integration Accuracy     IntAcc      ... 4.020
Radial Grid Type                 RadialGrid  ... OptM3 with GC (2021)
Angular Grid (max. ang.)         AngularGrid ... 2 (Lebedev-110)
Angular grid pruning method      GridPruning ... 4 (adaptive)
Weight generation scheme         WeightScheme... mBecke (2022)
Basis function cutoff            BFCut       ... 1.0000e-11
Integration weight cutoff        WCut        ... 1.0000e-14
Partially contracted basis set               ... on
Rotationally invariant grid construction     ... off
Angular grids for H and He will be reduced by one unit

Total number of grid points                  ...    29615
Total number of batches                      ...      245
Average number of points per batch           ...      120
Average number of grid points per atom       ...     1139
UseSFitting                                  ... on

GRIDX 3
-------
General Integration Accuracy     IntAcc      ... 4.338
Radial Grid Type                 RadialGrid  ... OptM3 with GC (2021)
Angular Grid (max. ang.)         AngularGrid ... 3 (Lebedev-194)
Angular grid pruning method      GridPruning ... 4 (adaptive)
Weight generation scheme         WeightScheme... mBecke (2022)
Basis function cutoff            BFCut       ... 1.0000e-11
Integration weight cutoff        WCut        ... 1.0000e-14
Partially contracted basis set               ... on
Rotationally invariant grid construction     ... off
Angular grids for H and He will be reduced by one unit

Total number of grid points                  ...    64488
Total number of batches                      ...      517
Average number of points per batch           ...      124
Average number of grid points per atom       ...     2480
UseSFitting                                  ... on
Initializing property integral containers    ... done (  0.0 sec)

SHARK setup successfully completed in   3.3 seconds

Maximum memory used throughout the entire STARTUP-calculation: 31.5 MB


           ************************************************************
           *        Program running with 40 parallel MPI-processes    *
           *              working on a common directory               *
           ************************************************************
-------------------------------------------------------------------------------
                                 ORCA GUESS
                   Start orbitals & Density for SCF / CASSCF
-------------------------------------------------------------------------------

------------
SCF SETTINGS
------------
Hamiltonian:
 Density Functional     Method          .... DFT(GTOs)
 Exchange Functional    Exchange        .... WB97X-V
 Correlation Functional Correlation     .... WB97X-V
 Gradients option       PostSCFGGA      .... off
 Hybrid DFT is turned on
   Fraction HF Exchange ScalHFX         ....  0.167000
   Scaling of DF-GGA-X  ScalDFX         ....  0.000000
   Scaling of DF-GGA-C  ScalDFC         ....  1.000000
   Scaling of DF-LDA-C  ScalLDAC        ....  1.000000
   Perturbative correction              ....  0.000000
 Long-range corrected/Screened/Range-Separated Hybrid DFT is turned on
   Amount of maximum screened exact exchange              ....  0.833000
   Range separation parameter mu (erf(mu*r12)/r12)        ....  0.300000
   NL short-range parameter             ....  6.000000
   NL long-range parameter              ....  0.010000
 RI-approximation to the Coulomb term is turned on
   Number of AuxJ basis functions       .... 666
   RIJ-COSX (HFX calculated with COS-X)).... on


General Settings:
 Integral files         IntName         .... ./output/limonene/limonene
 Hartree-Fock type      HFTyp           .... RHF
 Total Charge           Charge          ....    0
 Multiplicity           Mult            ....    1
 Number of Electrons    NEL             ....   56
 Basis Dimension        Dim             ....  210
 Nuclear Repulsion      ENuc            ....    284.3129107255 Eh

Convergence Acceleration:
 AO-DIIS                CNVDIIS         .... on
   Start iteration      DIISMaxIt       ....    12
   Startup error        DIISStart       ....  0.200000
   # of expansion vecs  DIISMaxEq       ....     5
   Bias factor          DIISBfac        ....   1.050
   Max. coefficient     DIISMaxC        ....  10.000
 MO-DIIS                CNVKDIIS        .... off
 Trust-Rad. Augm. Hess. CNVTRAH         .... auto
   Auto Start mean grad. ratio tolernc. ....  1.125000
   Auto Start start iteration           ....    50
   Auto Start num. interpolation iter.  ....    10
   Max. Number of Micro iterations      ....    24
   Max. Number of Macro iterations      .... Maxiter - #DIIS iter
   Number of Davidson start vectors     ....     2
   Converg. threshold    (grad. norm)   ....   1.000e-05
   Grad. Scal. Fac. for Micro threshold ....   0.100
   Minimum threshold for Micro iter.    ....   1.000e-02
   NR start threshold (gradient norm)   ....   1.000e-04
   Initial trust radius                 ....   0.400
   Minimum AH scaling param. (alpha)    ....   1.000
   Maximum AH scaling param. (alpha)    .... 1000.000
   Quad. conv. algorithm                .... NR
   White noise on init. David. guess    .... on
   Maximum white noise                  ....   0.010
   Pseudo random numbers                .... off
   Inactive MOs                         .... canonical
   Orbital update algorithm             .... Taylor
   Preconditioner                       .... Diag
   Full preconditioner red. dimension   ....   250
 SOSCF                  CNVSOSCF        .... on
   Start iteration      SOSCFMaxIt      ....   150
   Startup grad/error   SOSCFStart      ....  0.003300
   Hessian update       SOSCFHessUp     .... L-BFGS
 Level Shifting         CNVShift        .... on
   Level shift para.    LevelShift      ....    0.2500
   Turn off err/grad.   ShiftErr        ....    0.0010
 Zerner damping         CNVZerner       .... off
 Static damping         CNVDamp         .... on
   Fraction old density DampFac         ....    0.7000
   Max. Damping (<1)    DampMax         ....    0.9800
   Min. Damping (>=0)   DampMin         ....    0.0000
   Turn off err/grad.   DampErr         ....    0.1000

SCF Procedure:
 Maximum # iterations   MaxIter         ....   125
 SCF integral mode      SCFMode         .... Direct
   Integral package                     .... SHARK and LIBINT hybrid scheme
 Reset frequency        DirectResetFreq ....    20
 Integral Threshold     Thresh          ....  2.500e-11 Eh
 Primitive CutOff       TCut            ....  2.500e-12 Eh

Convergence Tolerance:
 Convergence Check Mode ConvCheckMode   .... Total+1el-Energy
 Convergence forced     ConvForced      .... 0
 Energy Change          TolE            ....  1.000e-08 Eh
 1-El. energy change                    ....  1.000e-05 Eh
 Orbital Gradient       TolG            ....  1.000e-05
 Orbital Rotation angle TolX            ....  1.000e-05
 DIIS Error             TolErr          ....  5.000e-07

------------------------------
INITIAL GUESS: MODEL POTENTIAL
------------------------------
Loading Hartree-Fock densities                     ... done
Atomic calculation to generate a density for atom 0 (C  with ECP)
  Multiplicity assumed   :    1
  Atomic configuration   : 1s2 2s2 2p2 
  Number of open shells  : 1
  Command: /home/aspe232/Project/Software/ORCA/6_0_1/build/orca ./output/limonene/limonene_atom6.inp "" > ./output/limonene/limonene_atom6.out
Returned from the atomic calculation with res=0
Calculating cut-offs                               ... done
Initializing the effective Hamiltonian             ... done
Setting up the integral package (SHARK)            ... done
Starting the Coulomb interaction                   ... done (   0.0 sec)
Making the grid                                    ... done (   0.6 sec)
Mapping shells                                     ... done
Starting the XC term evaluation                    ... done (   0.0 sec)
  promolecular density results
     # of electrons  =     75.989647388
     EX              =    -36.889735821
     EC              =     -3.020188324
     EX+EC           =    -39.909924146
Transforming the Hamiltonian                       ... done (   0.0 sec)
Diagonalizing the Hamiltonian                      ... done (   0.0 sec)
Back transforming the eigenvectors                 ... done (   0.0 sec)
Now organizing SCF variables                       ... done
                      ------------------
                      INITIAL GUESS DONE (   1.5 sec)
                      ------------------
             **** ENERGY FILE WAS UPDATED (./output/limonene/limonene.en.tmp) ****
Finished Guess after   2.0 sec
Maximum memory used throughout the entire GUESS-calculation: 19.7 MB


           ************************************************************
           *        Program running with 40 parallel MPI-processes    *
           *              working on a common directory               *
           ************************************************************

-------------------------------------------------------------------------------------------
                                      ORCA LEAN-SCF
                              memory conserving SCF solver
-------------------------------------------------------------------------------------------

----------------------------------------D-I-I-S--------------------------------------------
Iteration    Energy (Eh)           Delta-E    RMSDP     MaxDP     DIISErr   Damp  Time(sec)
-------------------------------------------------------------------------------------------
               ***  Starting incremental Fock matrix formation  ***
    1    -66.0996770011685726     0.00e+00  4.13e-03  7.27e-02  1.78e-01  0.700   4.0
    2    -66.2805189121857552    -1.81e-01  3.03e-03  5.15e-02  1.09e-01  0.700   3.3
                               ***Turning on AO-DIIS***
    3    -66.3760666477702443    -9.55e-02  1.56e-03  2.68e-02  5.73e-02  0.700   3.3
    4    -66.4323623447140790    -5.63e-02  3.32e-03  5.81e-02  3.60e-02  0.000   3.3
    5    -66.5501700679091073    -1.18e-01  2.48e-04  4.89e-03  4.85e-03  0.000   3.2
                              *** Initializing SOSCF ***
---------------------------------------S-O-S-C-F--------------------------------------
Iteration    Energy (Eh)           Delta-E    RMSDP     MaxDP     MaxGrad    Time(sec)
--------------------------------------------------------------------------------------
    6    -66.5504790781870383    -3.09e-04  1.12e-04  1.49e-03  1.13e-03     3.3
               *** Restarting incremental Fock matrix formation ***
    7    -66.5505181891696225    -3.91e-05  6.73e-05  8.65e-04  3.02e-04     4.3
    8    -66.5505288637377816    -1.07e-05  4.28e-05  6.40e-04  2.60e-04     3.9
    9    -66.5505311186848303    -2.25e-06  1.32e-05  1.81e-04  6.49e-05     3.8
   10    -66.5505314394072798    -3.21e-07  3.47e-06  6.32e-05  1.97e-05     3.4
   11    -66.5505314494277513    -1.00e-08  1.21e-06  2.19e-05  6.19e-06     3.4
   12    -66.5505314609834500    -1.16e-08  3.18e-07  7.52e-06  2.38e-06     3.3
                  *** Gradient check signals convergence ***

               *****************************************************
               *                     SUCCESS                       *
               *           SCF CONVERGED AFTER  12 CYCLES          *
               *****************************************************

Recomputing exchange energy using gridx3       ... done (    3.524 sec)
Old exchange energy                            :    -10.579954918 Eh
New exchange energy                            :    -10.579988865 Eh
Exchange energy change after final integration :     -0.000033947 Eh
Total energy after final integration           :    -66.550565408 Eh
             **** ENERGY FILE WAS UPDATED (./output/limonene/limonene.en.tmp) ****

----------------
TOTAL SCF ENERGY
----------------

Total Energy       :        -66.55056540822619 Eh           -1810.93295 eV

Components:
Nuclear Repulsion  :        284.31291072548953 Eh            7736.54762 eV
Electronic Energy  :       -350.86344218647298 Eh           -9547.47965 eV
One Electron Energy:       -661.19557121911078 Eh          -17992.04619 eV
Two Electron Energy:        310.33212903263779 Eh            8444.56654 eV

Virial components:
Potential Energy   :       -118.45211046277726 Eh           -3223.24579 eV
Kinetic Energy     :         51.90154505455106 Eh            1412.31284 eV
Virial Ratio       :          2.28224632500397

DFT components:
N(Alpha)           :       27.999950613360 electrons
N(Beta)            :       27.999950613360 electrons
N(Total)           :       55.999901226720 electrons
E(X)               :      -10.703462437271 Eh       
E(C)               :       -2.077006560734 Eh       
E(XC)              :      -12.780468998005 Eh       

---------------
SCF CONVERGENCE
---------------

  Last Energy change         ...    1.1556e-08  Tolerance :   1.0000e-08
  Last MAX-Density change    ...    7.5209e-06  Tolerance :   1.0000e-07
  Last RMS-Density change    ...    3.1845e-07  Tolerance :   5.0000e-09
  Last DIIS Error            ...    1.1256e-03  Tolerance :   5.0000e-07
  Last Orbital Gradient      ...    2.3815e-06  Tolerance :   1.0000e-05
  Last Orbital Rotation      ...    8.6070e-06  Tolerance :   1.0000e-05


----------------
ORBITAL ENERGIES
----------------

  NO   OCC          E(Eh)            E(eV) 
   0   2.0000      -0.983882       -26.7728 
   1   2.0000      -0.939417       -25.5628 
   2   2.0000      -0.881572       -23.9888 
   3   2.0000      -0.872609       -23.7449 
   4   2.0000      -0.813524       -22.1371 
   5   2.0000      -0.804947       -21.9037 
   6   2.0000      -0.743761       -20.2388 
   7   2.0000      -0.717838       -19.5334 
   8   2.0000      -0.643265       -17.5041 
   9   2.0000      -0.612001       -16.6534 
  10   2.0000      -0.596662       -16.2360 
  11   2.0000      -0.582020       -15.8376 
  12   2.0000      -0.546445       -14.8695 
  13   2.0000      -0.541637       -14.7387 
  14   2.0000      -0.532458       -14.4889 
  15   2.0000      -0.522239       -14.2108 
  16   2.0000      -0.510549       -13.8928 
  17   2.0000      -0.501302       -13.6411 
  18   2.0000      -0.492005       -13.3881 
  19   2.0000      -0.489045       -13.3076 
  20   2.0000      -0.469456       -12.7746 
  21   2.0000      -0.460867       -12.5408 
  22   2.0000      -0.454014       -12.3543 
  23   2.0000      -0.426858       -11.6154 
  24   2.0000      -0.412784       -11.2324 
  25   2.0000      -0.399343       -10.8667 
  26   2.0000      -0.336573        -9.1586 
  27   2.0000      -0.323047        -8.7905 
  28   0.0000       0.075954         2.0668 
  29   0.0000       0.084723         2.3054 
  30   0.0000       0.093545         2.5455 
  31   0.0000       0.097804         2.6614 
  32   0.0000       0.106045         2.8856 
  33   0.0000       0.111637         3.0378 
  34   0.0000       0.121757         3.3132 
  35   0.0000       0.128789         3.5045 
  36   0.0000       0.134639         3.6637 
  37   0.0000       0.146812         3.9950 
  38   0.0000       0.157886         4.2963 
*Only the first 10 virtual orbitals were printed.

                    ********************************
                    * MULLIKEN POPULATION ANALYSIS *
                    ********************************

-----------------------
MULLIKEN ATOMIC CHARGES
-----------------------
   0 C :   -0.093135
   1 C :   -0.066689
   2 C :   -0.021721
   3 C :   -0.058614
   4 C :   -0.112738
   5 C :   -0.036987
   6 C :   -0.068401
   7 C :   -0.082048
   8 C :   -0.028425
   9 C :   -0.087075
  10 H :    0.033342
  11 H :    0.053885
  12 H :    0.053788
  13 H :    0.011592
  14 H :    0.050060
  15 H :    0.049049
  16 H :    0.044697
  17 H :    0.044172
  18 H :    0.042211
  19 H :    0.040533
  20 H :    0.050423
  21 H :    0.021709
  22 H :    0.015473
  23 H :    0.054823
  24 H :    0.034069
  25 H :    0.056008
Sum of atomic charges:    0.0000000

--------------------------------
MULLIKEN REDUCED ORBITAL CHARGES
--------------------------------
  0 C s       :     0.957264  s :     0.957264
      pz      :     1.041930  p :     3.062028
      px      :     0.970462
      py      :     1.049636
      dz2     :     0.007768  d :     0.073844
      dxz     :     0.020334
      dyz     :     0.013496
      dx2y2   :     0.018382
      dxy     :     0.013864

  1 C s       :     1.084148  s :     1.084148
      pz      :     0.966552  p :     2.863666
      px      :     0.936365
      py      :     0.960748
      dz2     :     0.029533  d :     0.118876
      dxz     :     0.033099
      dyz     :     0.019064
      dx2y2   :     0.015437
      dxy     :     0.021743

  2 C s       :     1.024352  s :     1.024352
      pz      :     0.970228  p :     2.906711
      px      :     0.930296
      py      :     1.006187
      dz2     :     0.025797  d :     0.090657
      dxz     :     0.023886
      dyz     :     0.008177
      dx2y2   :     0.013803
      dxy     :     0.018993

  3 C s       :     0.992544  s :     0.992544
      pz      :     1.015185  p :     2.964899
      px      :     0.971744
      py      :     0.977970
      dz2     :     0.012274  d :     0.101171
      dxz     :     0.025192
      dyz     :     0.019823
      dx2y2   :     0.024469
      dxy     :     0.019412

  4 C s       :     1.039742  s :     1.039742
      pz      :     0.997119  p :     2.954272
      px      :     0.942906
      py      :     1.014247
      dz2     :     0.017467  d :     0.118724
      dxz     :     0.026817
      dyz     :     0.029123
      dx2y2   :     0.027508
      dxy     :     0.017808

  5 C s       :     1.005350  s :     1.005350
      pz      :     1.011733  p :     2.936102
      px      :     0.932332
      py      :     0.992037
      dz2     :     0.023011  d :     0.095535
      dxz     :     0.021520
      dyz     :     0.009894
      dx2y2   :     0.018575
      dxy     :     0.022535

  6 C s       :     0.999116  s :     0.999116
      pz      :     0.973064  p :     2.969672
      px      :     0.995521
      py      :     1.001086
      dz2     :     0.018111  d :     0.099613
      dxz     :     0.023409
      dyz     :     0.022820
      dx2y2   :     0.017695
      dxy     :     0.017578

  7 C s       :     1.096856  s :     1.096856
      pz      :     0.980512  p :     2.865353
      px      :     0.926583
      py      :     0.958258
      dz2     :     0.024968  d :     0.119840
      dxz     :     0.024383
      dyz     :     0.016258
      dx2y2   :     0.027049
      dxy     :     0.027181

  8 C s       :     0.977338  s :     0.977338
      pz      :     1.003985  p :     2.987425
      px      :     0.988418
      py      :     0.995022
      dz2     :     0.013200  d :     0.063662
      dxz     :     0.014502
      dyz     :     0.007244
      dx2y2   :     0.013897
      dxy     :     0.014820

  9 C s       :     0.958294  s :     0.958294
      pz      :     1.040568  p :     3.055960
      px      :     1.011929
      py      :     1.003463
      dz2     :     0.008353  d :     0.072822
      dxz     :     0.013058
      dyz     :     0.021466
      dx2y2   :     0.012927
      dxy     :     0.017018

 10 H s       :     0.922552  s :     0.922552
      pz      :     0.017769  p :     0.044106
      px      :     0.015510
      py      :     0.010827

 11 H s       :     0.902030  s :     0.902030
      pz      :     0.016998  p :     0.044086
      px      :     0.010725
      py      :     0.016363

 12 H s       :     0.902069  s :     0.902069
      pz      :     0.012062  p :     0.044144
      px      :     0.010715
      py      :     0.021366

 13 H s       :     0.939334  s :     0.939334
      pz      :     0.023566  p :     0.049074
      px      :     0.010487
      py      :     0.015021

 14 H s       :     0.907689  s :     0.907689
      pz      :     0.018241  p :     0.042251
      px      :     0.014658
      py      :     0.009352

 15 H s       :     0.907606  s :     0.907606
      pz      :     0.013594  p :     0.043345
      px      :     0.011101
      py      :     0.018650

 16 H s       :     0.915427  s :     0.915427
      pz      :     0.014775  p :     0.039875
      px      :     0.008796
      py      :     0.016305

 17 H s       :     0.912294  s :     0.912294
      pz      :     0.021418  p :     0.043534
      px      :     0.012320
      py      :     0.009796

 18 H s       :     0.916385  s :     0.916385
      pz      :     0.009720  p :     0.041405
      px      :     0.012542
      py      :     0.019143

 19 H s       :     0.916432  s :     0.916432
      pz      :     0.013451  p :     0.043036
      px      :     0.018405
      py      :     0.011180

 20 H s       :     0.906733  s :     0.906733
      pz      :     0.012246  p :     0.042844
      px      :     0.011573
      py      :     0.019026

 21 H s       :     0.928064  s :     0.928064
      pz      :     0.014926  p :     0.050227
      px      :     0.023563
      py      :     0.011738

 22 H s       :     0.933544  s :     0.933544
      pz      :     0.014181  p :     0.050982
      px      :     0.016826
      py      :     0.019976

 23 H s       :     0.901055  s :     0.901055
      pz      :     0.012050  p :     0.044122
      px      :     0.019653
      py      :     0.012419

 24 H s       :     0.921760  s :     0.921760
      pz      :     0.017074  p :     0.044171
      px      :     0.011740
      py      :     0.015357

 25 H s       :     0.899865  s :     0.899865
      pz      :     0.018304  p :     0.044127
      px      :     0.011331
      py      :     0.014491



                     *******************************
                     * LOEWDIN POPULATION ANALYSIS *
                     *******************************

----------------------
LOEWDIN ATOMIC CHARGES
----------------------
   0 C :   -0.120117
   1 C :   -0.048070
   2 C :   -0.055483
   3 C :   -0.083510
   4 C :   -0.059336
   5 C :   -0.068162
   6 C :   -0.084526
   7 C :   -0.038678
   8 C :   -0.087194
   9 C :   -0.117627
  10 H :    0.048105
  11 H :    0.054385
  12 H :    0.054775
  13 H :    0.033621
  14 H :    0.054017
  15 H :    0.050407
  16 H :    0.049372
  17 H :    0.048575
  18 H :    0.046780
  19 H :    0.051854
  20 H :    0.050325
  21 H :    0.032228
  22 H :    0.028187
  23 H :    0.055847
  24 H :    0.048023
  25 H :    0.056201

-------------------------------
LOEWDIN REDUCED ORBITAL CHARGES
-------------------------------
  0 C s       :     0.777757  s :     0.777757
      pz      :     1.056147  p :     3.104479
      px      :     0.981703
      py      :     1.066630
      dz2     :     0.023695  d :     0.237881
      dxz     :     0.068484
      dyz     :     0.044786
      dx2y2   :     0.059532
      dxy     :     0.041384

  1 C s       :     0.795320  s :     0.795320
      pz      :     1.000268  p :     2.874670
      px      :     1.000182
      py      :     0.874220
      dz2     :     0.095901  d :     0.378080
      dxz     :     0.108501
      dyz     :     0.057684
      dx2y2   :     0.053014
      dxy     :     0.062980

  2 C s       :     0.803794  s :     0.803794
      pz      :     1.041782  p :     2.953000
      px      :     0.990869
      py      :     0.920348
      dz2     :     0.087006  d :     0.298689
      dxz     :     0.082805
      dyz     :     0.021085
      dx2y2   :     0.049759
      dxy     :     0.058035

  3 C s       :     0.763186  s :     0.763186
      pz      :     1.024506  p :     3.000722
      px      :     0.987486
      py      :     0.988731
      dz2     :     0.039977  d :     0.319602
      dxz     :     0.081913
      dyz     :     0.063983
      dx2y2   :     0.076590
      dxy     :     0.057138

  4 C s       :     0.761041  s :     0.761041
      pz      :     0.984069  p :     2.933437
      px      :     0.950713
      py      :     0.998655
      dz2     :     0.053508  d :     0.364858
      dxz     :     0.080782
      dyz     :     0.091743
      dx2y2   :     0.084258
      dxy     :     0.054568

  5 C s       :     0.773238  s :     0.773238
      pz      :     1.015508  p :     2.989002
      px      :     0.967186
      py      :     1.006307
      dz2     :     0.074085  d :     0.305923
      dxz     :     0.068078
      dyz     :     0.031293
      dx2y2   :     0.061766
      dxy     :     0.070700

  6 C s       :     0.763951  s :     0.763951
      pz      :     0.984632  p :     3.005745
      px      :     1.010870
      py      :     1.010243
      dz2     :     0.054304  d :     0.314830
      dxz     :     0.077731
      dyz     :     0.070219
      dx2y2   :     0.057590
      dxy     :     0.054986

  7 C s       :     0.802063  s :     0.802063
      pz      :     0.942701  p :     2.859198
      px      :     0.961377
      py      :     0.955121
      dz2     :     0.068805  d :     0.377418
      dxz     :     0.080556
      dyz     :     0.057015
      dx2y2   :     0.087341
      dxy     :     0.083700

  8 C s       :     0.824253  s :     0.824253
      pz      :     0.995526  p :     3.048606
      px      :     1.042532
      py      :     1.010547
      dz2     :     0.032134  d :     0.214335
      dxz     :     0.053607
      dyz     :     0.033884
      dx2y2   :     0.047313
      dxy     :     0.047397

  9 C s       :     0.778077  s :     0.778077
      pz      :     1.057260  p :     3.104014
      px      :     1.026954
      py      :     1.019799
      dz2     :     0.025504  d :     0.235537
      dxz     :     0.041231
      dyz     :     0.072673
      dx2y2   :     0.041995
      dxy     :     0.054135

 10 H s       :     0.806554  s :     0.806554
      pz      :     0.055215  p :     0.145340
      px      :     0.047845
      py      :     0.042281

 11 H s       :     0.798786  s :     0.798786
      pz      :     0.054449  p :     0.146829
      px      :     0.040401
      py      :     0.051979

 12 H s       :     0.798454  s :     0.798454
      pz      :     0.044734  p :     0.146771
      px      :     0.040294
      py      :     0.061744

 13 H s       :     0.812581  s :     0.812581
      pz      :     0.067376  p :     0.153798
      px      :     0.037490
      py      :     0.048931

 14 H s       :     0.802765  s :     0.802765
      pz      :     0.056446  p :     0.143218
      px      :     0.048744
      py      :     0.038029

 15 H s       :     0.800582  s :     0.800582
      pz      :     0.048303  p :     0.149011
      px      :     0.042766
      py      :     0.057941

 16 H s       :     0.802161  s :     0.802161
      pz      :     0.053106  p :     0.148467
      px      :     0.036800
      py      :     0.058560

 17 H s       :     0.802748  s :     0.802748
      pz      :     0.065192  p :     0.148676
      px      :     0.042740
      py      :     0.040744

 18 H s       :     0.806116  s :     0.806116
      pz      :     0.040087  p :     0.147104
      px      :     0.045159
      py      :     0.061858

 19 H s       :     0.804130  s :     0.804130
      pz      :     0.045363  p :     0.144016
      px      :     0.057120
      py      :     0.041533

 20 H s       :     0.800765  s :     0.800765
      pz      :     0.045723  p :     0.148910
      px      :     0.044053
      py      :     0.059135

 21 H s       :     0.814323  s :     0.814323
      pz      :     0.047019  p :     0.153450
      px      :     0.065713
      py      :     0.040718

 22 H s       :     0.817708  s :     0.817708
      pz      :     0.044911  p :     0.154105
      px      :     0.052699
      py      :     0.056495

 23 H s       :     0.797359  s :     0.797359
      pz      :     0.043718  p :     0.146793
      px      :     0.059355
      py      :     0.043720

 24 H s       :     0.805933  s :     0.805933
      pz      :     0.054229  p :     0.146043
      px      :     0.042630
      py      :     0.049185

 25 H s       :     0.797091  s :     0.797091
      pz      :     0.055816  p :     0.146708
      px      :     0.042968
      py      :     0.047924



                      *****************************
                      * MAYER POPULATION ANALYSIS *
                      *****************************

  NA   - Mulliken gross atomic population
  ZA   - Total nuclear charge
  QA   - Mulliken gross atomic charge
  VA   - Mayer's total valence
  BVA  - Mayer's bonded valence
  FA   - Mayer's free valence

  ATOM       NA         ZA         QA         VA         BVA        FA
  0 C      4.0931     4.0000    -0.0931     3.9755     3.9755     0.0000
  1 C      4.0667     4.0000    -0.0667     4.0473     4.0473    -0.0000
  2 C      4.0217     4.0000    -0.0217     3.9789     3.9789    -0.0000
  3 C      4.0586     4.0000    -0.0586     3.9891     3.9891    -0.0000
  4 C      4.1127     4.0000    -0.1127     3.9971     3.9971    -0.0000
  5 C      4.0370     4.0000    -0.0370     3.9394     3.9394     0.0000
  6 C      4.0684     4.0000    -0.0684     3.9751     3.9751     0.0000
  7 C      4.0820     4.0000    -0.0820     4.0952     4.0952     0.0000
  8 C      4.0284     4.0000    -0.0284     3.9695     3.9695     0.0000
  9 C      4.0871     4.0000    -0.0871     3.9647     3.9647     0.0000
 10 H      0.9667     1.0000     0.0333     1.0321     1.0321     0.0000
 11 H      0.9461     1.0000     0.0539     1.0231     1.0231    -0.0000
 12 H      0.9462     1.0000     0.0538     1.0241     1.0241     0.0000
 13 H      0.9884     1.0000     0.0116     1.0429     1.0429    -0.0000
 14 H      0.9499     1.0000     0.0501     1.0102     1.0102    -0.0000
 15 H      0.9510     1.0000     0.0490     1.0237     1.0237     0.0000
 16 H      0.9553     1.0000     0.0447     1.0043     1.0043    -0.0000
 17 H      0.9558     1.0000     0.0442     1.0268     1.0268     0.0000
 18 H      0.9578     1.0000     0.0422     1.0091     1.0091     0.0000
 19 H      0.9595     1.0000     0.0405     1.0207     1.0207    -0.0000
 20 H      0.9496     1.0000     0.0504     1.0107     1.0107    -0.0000
 21 H      0.9783     1.0000     0.0217     1.0391     1.0391     0.0000
 22 H      0.9845     1.0000     0.0155     1.0358     1.0358     0.0000
 23 H      0.9452     1.0000     0.0548     1.0249     1.0249    -0.0000
 24 H      0.9659     1.0000     0.0341     1.0313     1.0313     0.0000
 25 H      0.9440     1.0000     0.0560     1.0239     1.0239    -0.0000

  Mayer bond orders larger than 0.100000
B(  0-C ,  1-C ) :   1.0193 B(  0-C , 10-H ) :   0.9937 B(  0-C , 11-H ) :   0.9842 
B(  0-C , 12-H ) :   0.9856 B(  1-C ,  2-C ) :   1.9067 B(  1-C ,  6-C ) :   1.0070 
B(  2-C ,  3-C ) :   1.0223 B(  2-C , 13-H ) :   0.9939 B(  3-C ,  4-C ) :   0.9663 
B(  3-C , 14-H ) :   0.9992 B(  3-C , 15-H ) :   0.9800 B(  4-C ,  5-C ) :   0.9709 
B(  4-C ,  7-C ) :   1.0251 B(  4-C , 16-H ) :   1.0027 B(  5-C ,  6-C ) :   0.9788 
B(  5-C , 17-H ) :   0.9986 B(  5-C , 18-H ) :   1.0019 B(  6-C , 19-H ) :   0.9998 
B(  6-C , 20-H ) :   0.9820 B(  7-C ,  8-C ) :   1.9509 B(  7-C ,  9-C ) :   1.0158 
B(  8-C , 21-H ) :   0.9888 B(  8-C , 22-H ) :   0.9906 B(  9-C , 23-H ) :   0.9829 
B(  9-C , 24-H ) :   0.9944 B(  9-C , 25-H ) :   0.9842 

-------
TIMINGS
-------

Total SCF time: 0 days 0 hours 0 min 50 sec 

Total time                  ....      50.599 sec
Sum of individual times     ....      48.470 sec  ( 95.8%)

SCF preparation             ....       2.340 sec  (  4.6%)
Fock matrix formation       ....      44.877 sec  ( 88.7%)
  Startup                   ....       0.276 sec  (  0.6% of F)
  Split-RI-J                ....       1.411 sec  (  3.1% of F)
  Chain of spheres X        ....      20.636 sec  ( 46.0% of F)
  XC integration            ....      21.806 sec  ( 48.6% of F)
    XC Preparation          ....       0.000 sec  (  0.0% of XC)
    Basis function eval.    ....       0.513 sec  (  2.4% of XC)
    Density eval.           ....       0.221 sec  (  1.0% of XC)
    XC-Functional eval.     ....       0.163 sec  (  0.7% of XC)
    XC-Potential eval.      ....       0.298 sec  (  1.4% of XC)
Diagonalization             ....       0.000 sec  (  0.0%)
Density matrix formation    ....       0.245 sec  (  0.5%)
Total Energy calculation    ....       0.224 sec  (  0.4%)
Population analysis         ....       0.049 sec  (  0.1%)
Orbital Transformation      ....       0.054 sec  (  0.1%)
Orbital Orthonormalization  ....       0.000 sec  (  0.0%)
DIIS solution               ....       0.474 sec  (  0.9%)
SOSCF solution              ....       0.207 sec  (  0.4%)
Finished LeanSCF after  50.7 sec

Maximum memory used throughout the entire LEANSCF-calculation: 38.7 MB


           ************************************************************
           *        Program running with 40 parallel MPI-processes    *
           *              working on a common directory               *
           ************************************************************

------------------------------------------------------------------------------
                         ORCA PROPERTY INTEGRAL CALCULATIONS
------------------------------------------------------------------------------

GBWName                                   ... ./output/limonene/limonene.gbw
Number of atoms                           ...     26
Number of basis functions                 ...    210
Max core memory                           ...   1024 MB

Dipole integrals                          ... YES
Quadrupole integrals                      ...  NO
Linear momentum integrals                 ...  NO
Angular momentum integrals                ...  NO
Higher moments length integrals           ...  NO
Higher moments velocity integrals         ...  NO
Kinetic energy integrals                  ...  NO
GIAO right hand sides                     ...  NO
GIAO dipole derivative integrals          ...  NO
SOC integrals                             ...  NO
EPR diamagnetic integrals (GIAO)          ...  NO
EPR gauge integrals                       ...  NO
Field gradient integrals                  ...  NO (   0 nuclei)
Spin-dipole/Fermi contact integrals       ...  NO (   0 nuclei)
Contact density integrals                 ...  NO (   0 nuclei)
Nucleus-orbit integrals                   ...  NO (   0 nuclei)
Geometric perturbations                   ...  NO (  26 nuclei)

Choice of electric origin   ... Center of mass
Position of electric origin ... ( -0.0063,  0.0912, -0.0383) 
Choice of magnetic origin   ... GIAO
Position of magnetic origin ... (  0.0000,  0.0000,  0.0000) 

Calculating integrals                     ... Electric Dipole (Length)     done (  0.0 sec)

Property integrals calculated in   0.0 sec

Maximum memory used throughout the entire PROPINT-calculation: 16.7 MB


-------------------------------------------------------------------------------
                          DFT DISPERSION CORRECTION                            
                                                                               
                                DFTD4 V3.4.0                                   
-------------------------------------------------------------------------------
The wB97X-3c composite method is recognized
Using three-body term ABC
Active option DFTDOPT                   ...         5   

-------------------------   ----------------
Dispersion correction           -0.030043422
-------------------------   ----------------


-------------------------   --------------------
FINAL SINGLE POINT ENERGY       -66.580608830628
-------------------------   --------------------



           ************************************************************
           *        Program running with 40 parallel MPI-processes    *
           *              working on a common directory               *
           ************************************************************
------------------------------------------------------------------------------
                         ORCA SCF GRADIENT CALCULATION
------------------------------------------------------------------------------

Nuc. rep. gradient        (SHARK) ... done (  0.0 sec)
HCore & Overlap gradient  (SHARK) ... done (  0.1 sec)
ECP gradient              (SHARK) ... done (  0.4 sec)
Split-RIJ-J gradient      (SHARK) ... done (  0.4 sec)
COSX-gradient                     ... done (  5.4 sec)
XC gradient                       ... done (  1.7 sec)
Dispersion correction             ... done (  0.1 sec)

-------------------
DISPERSION GRADIENT
-------------------

[...]
 20:    589.15   0.000072    0.37  0.000038  (-0.001219 -0.003876  0.004677)
 21:    707.30   0.000073    0.37  0.000032  (-0.003743  0.002805 -0.003183)
 22:    715.21   0.000202    1.02  0.000088  ( 0.005543 -0.005926 -0.004729)
 23:    793.86   0.000834    4.21  0.000328  ( 0.011637 -0.010798 -0.008707)
 24:    836.23   0.000742    3.75  0.000277  ( 0.008777 -0.013721 -0.003408)
 25:    839.14   0.001411    7.13  0.000525  ( 0.014628 -0.015581 -0.008253)
 26:    915.22   0.000336    1.70  0.000115  (-0.006207 -0.006863  0.005389)
 27:    935.91   0.005721   28.91  0.001907  ( 0.017962  0.036280 -0.016390)
 28:    940.25   0.003208   16.21  0.001065  ( 0.024228  0.020358 -0.007952)
 29:    968.87   0.001077    5.44  0.000347  (-0.008624  0.001737  0.016415)
 30:    993.08   0.000147    0.74  0.000046  (-0.005665  0.001956 -0.003211)
 31:   1006.28   0.000533    2.69  0.000165  ( 0.007798 -0.005315 -0.008731)
 32:   1043.71   0.000327    1.65  0.000098  ( 0.000906 -0.000275  0.009842)
 33:   1053.11   0.000025    0.13  0.000007  ( 0.001780 -0.001438  0.001474)
 34:   1060.71   0.000571    2.89  0.000168  ( 0.004715 -0.010343 -0.006225)
 35:   1085.82   0.000271    1.37  0.000078  (-0.007283  0.002134  0.004499)
 36:   1110.87   0.000666    3.37  0.000187  (-0.010295 -0.000405 -0.008997)
 37:   1122.42   0.000017    0.09  0.000005  ( 0.000693 -0.002049 -0.000122)
 38:   1147.91   0.000510    2.58  0.000139  (-0.008193 -0.004191 -0.007338)
 39:   1213.96   0.000949    4.79  0.000244  (-0.013686  0.000687  0.007487)
 40:   1227.42   0.000575    2.90  0.000146  ( 0.008312 -0.001196  0.008695)
 41:   1256.45   0.000081    0.41  0.000020  (-0.000236 -0.004308 -0.001177)
 42:   1271.62   0.001139    5.76  0.000279  ( 0.014734 -0.007222  0.003197)
 43:   1307.00   0.000676    3.42  0.000161  ( 0.008522  0.000857 -0.009387)
 44:   1351.36   0.000745    3.77  0.000172  (-0.011830  0.002594 -0.005046)
 45:   1381.49   0.000177    0.90  0.000040  ( 0.001197  0.004335  0.004453)
 46:   1402.97   0.000129    0.65  0.000029  ( 0.003712 -0.001140  0.003682)
 47:   1418.65   0.000512    2.59  0.000113  ( 0.008204 -0.002359 -0.006301)
 48:   1425.65   0.000042    0.21  0.000009  ( 0.002067  0.000766  0.002062)
 49:   1441.93   0.000981    4.96  0.000212  (-0.008185  0.009186 -0.007808)
 50:   1449.56   0.001242    6.28  0.000267  (-0.013595 -0.000760 -0.009055)
 51:   1460.67   0.001276    6.45  0.000273  ( 0.007846  0.012521 -0.007367)
 52:   1474.24   0.000708    3.58  0.000150  ( 0.007849 -0.009331 -0.001070)
 53:   1505.17   0.000749    3.79  0.000155  ( 0.002435  0.010872  0.005588)
 54:   1510.39   0.002052   10.37  0.000424  (-0.016253  0.011215  0.005826)
 55:   1511.42   0.003265   16.50  0.000674  (-0.005242 -0.022797 -0.011270)
 56:   1520.17   0.004963   25.08  0.001019  ( 0.017844 -0.003524 -0.026230)
 57:   1523.24   0.001800    9.10  0.000369  (-0.009521 -0.000616 -0.016666)
 58:   1529.79   0.002824   14.27  0.000576  (-0.012734  0.014025 -0.014740)
 59:   1546.23   0.000544    2.75  0.000110  (-0.002506  0.006628 -0.007719)
 60:   1768.17   0.005150   26.03  0.000909  ( 0.001668 -0.007350 -0.029192)
 61:   1805.69   0.000795    4.02  0.000137  (-0.006160 -0.003873 -0.009189)
 62:   3070.91   0.002640   13.34  0.000268  (-0.013157 -0.009073  0.003587)
 63:   3090.54   0.001502    7.59  0.000152  (-0.000536  0.011434  0.004543)
 64:   3092.21   0.004311   21.78  0.000435  (-0.000889 -0.009132 -0.018731)
 65:   3095.36   0.017222   87.03  0.001736  ( 0.026450  0.028610  0.014771)
 66:   3100.19   0.006376   32.22  0.000642  ( 0.018191  0.000288  0.017629)
 67:   3108.54   0.007284   36.81  0.000731  ( 0.009526 -0.024147  0.007578)
 68:   3137.12   0.003738   18.89  0.000372  (-0.012709  0.014438 -0.001377)
 69:   3161.50   0.004730   23.90  0.000467  (-0.006987  0.001107  0.020417)
 70:   3165.45   0.004103   20.74  0.000405  (-0.018793  0.000380 -0.007155)
 71:   3170.20   0.002368   11.97  0.000233  (-0.011397  0.008666  0.005300)
 72:   3181.72   0.001737    8.78  0.000170  (-0.002354 -0.012715  0.001774)
 73:   3203.47   0.001728    8.73  0.000168  ( 0.002580 -0.004262  0.011979)
 74:   3206.39   0.002280   11.52  0.000222  ( 0.010881 -0.005672 -0.008445)
 75:   3214.98   0.005701   28.81  0.000553  (-0.004264 -0.009442  0.021119)
 76:   3217.43   0.001773    8.96  0.000172  ( 0.005984 -0.005358 -0.010366)
 77:   3310.63   0.001373    6.94  0.000129  (-0.009847  0.005298 -0.002103)

* The epsilon (eps) is given for a Dirac delta lineshape.
** The dipole moment derivative (T) already includes vibrational overlap.

The first frequency considered to be a vibration is 6
The total number of vibrations considered is 72


--------------------------
THERMOCHEMISTRY AT 298.15K
--------------------------

Temperature         ...   298.15 K
Pressure            ...     1.00 atm
Total Mass          ...   136.24 AMU
Quasi RRHO          ...     True
Cut-Off Frequency   ...     1.00 cm^-1

Throughout the following assumptions are being made:
  (1) The electronic state is orbitally nondegenerate
  (2) There are no thermally accessible electronically excited states
  (3) Hindered rotations indicated by low frequency modes are not
      treated as such but are treated as vibrations and this may
      cause some error
  (4) All equations used are the standard statistical mechanics
      equations for an ideal gas
  (5) All vibrations are strictly harmonic

freq.      49.09  E(vib)   ...       0.53 
freq.      73.66  E(vib)   ...       0.49 
freq.     165.94  E(vib)   ...       0.39 
freq.     203.20  E(vib)   ...       0.35 
freq.     238.31  E(vib)   ...       0.32 
freq.     243.63  E(vib)   ...       0.31 
freq.     329.98  E(vib)   ...       0.24 
freq.     335.96  E(vib)   ...       0.24 
freq.     395.11  E(vib)   ...       0.20 
freq.     400.04  E(vib)   ...       0.19 
freq.     433.33  E(vib)   ...       0.17 
freq.     453.02  E(vib)   ...       0.16 
freq.     462.56  E(vib)   ...       0.16 
freq.     553.46  E(vib)   ...       0.12 
freq.     589.15  E(vib)   ...       0.10 
freq.     707.30  E(vib)   ...       0.07 
freq.     715.21  E(vib)   ...       0.07 
freq.     793.86  E(vib)   ...       0.05 
freq.     836.23  E(vib)   ...       0.04 
freq.     839.14  E(vib)   ...       0.04 
freq.     915.22  E(vib)   ...       0.03 
freq.     935.91  E(vib)   ...       0.03 
freq.     940.25  E(vib)   ...       0.03 
freq.     968.87  E(vib)   ...       0.03 
freq.     993.08  E(vib)   ...       0.02 
freq.    1006.28  E(vib)   ...       0.02 
freq.    1043.71  E(vib)   ...       0.02 
freq.    1053.11  E(vib)   ...       0.02 
freq.    1060.71  E(vib)   ...       0.02 
freq.    1085.82  E(vib)   ...       0.02 
freq.    1110.87  E(vib)   ...       0.01 
freq.    1122.42  E(vib)   ...       0.01 
freq.    1147.91  E(vib)   ...       0.01 
freq.    1213.96  E(vib)   ...       0.01 
freq.    1227.42  E(vib)   ...       0.01 
freq.    1256.45  E(vib)   ...       0.01 
freq.    1271.62  E(vib)   ...       0.01 
freq.    1307.00  E(vib)   ...       0.01 
freq.    1351.36  E(vib)   ...       0.01 
freq.    1381.49  E(vib)   ...       0.01 
freq.    1402.97  E(vib)   ...       0.00 
freq.    1418.65  E(vib)   ...       0.00 
freq.    1425.65  E(vib)   ...       0.00 
freq.    1441.93  E(vib)   ...       0.00 
freq.    1449.56  E(vib)   ...       0.00 
freq.    1460.67  E(vib)   ...       0.00 
freq.    1474.24  E(vib)   ...       0.00 
freq.    1505.17  E(vib)   ...       0.00 
freq.    1510.39  E(vib)   ...       0.00 
freq.    1511.42  E(vib)   ...       0.00 
freq.    1520.17  E(vib)   ...       0.00 
freq.    1523.24  E(vib)   ...       0.00 
freq.    1529.79  E(vib)   ...       0.00 
freq.    1546.23  E(vib)   ...       0.00 
freq.    1768.17  E(vib)   ...       0.00 
freq.    1805.69  E(vib)   ...       0.00 
freq.    3070.91  E(vib)   ...       0.00 
freq.    3090.54  E(vib)   ...       0.00 
freq.    3092.21  E(vib)   ...       0.00 
freq.    3095.36  E(vib)   ...       0.00 
freq.    3100.19  E(vib)   ...       0.00 
freq.    3108.54  E(vib)   ...       0.00 
freq.    3137.12  E(vib)   ...       0.00 
freq.    3161.50  E(vib)   ...       0.00 
freq.    3165.45  E(vib)   ...       0.00 
freq.    3170.20  E(vib)   ...       0.00 
freq.    3181.72  E(vib)   ...       0.00 
freq.    3203.47  E(vib)   ...       0.00 
freq.    3206.39  E(vib)   ...       0.00 
freq.    3214.98  E(vib)   ...       0.00 
freq.    3217.43  E(vib)   ...       0.00 
freq.    3310.63  E(vib)   ...       0.00 

------------
INNER ENERGY
------------

The inner energy is: U= E(el) + E(ZPE) + E(vib) + E(rot) + E(trans)
    E(el)   - is the total energy from the electronic structure calculation
              = E(kin-el) + E(nuc-el) + E(el-el) + E(nuc-nuc)
    E(ZPE)  - the the zero temperature vibrational energy from the frequency calculation
    E(vib)  - the the finite temperature correction to E(ZPE) due to population
              of excited vibrational states
    E(rot)  - is the rotational thermal energy
    E(trans)- is the translational thermal energy

Summary of contributions to the inner energy U:
Electronic energy                ...    -66.60350127 Eh
Zero point energy                ...      0.24155923 Eh     151.58 kcal/mol
Thermal vibrational correction   ...      0.00736526 Eh       4.62 kcal/mol
Thermal rotational correction    ...      0.00141627 Eh       0.89 kcal/mol
Thermal translational correction ...      0.00141627 Eh       0.89 kcal/mol
-----------------------------------------------------------------------
Total thermal energy                    -66.35174424 Eh


Summary of corrections to the electronic energy:
(perhaps to be used in another calculation)
Total thermal correction                  0.01019780 Eh       6.40 kcal/mol
Non-thermal (ZPE) correction              0.24155923 Eh     151.58 kcal/mol
-----------------------------------------------------------------------
Total correction                          0.25175704 Eh     157.98 kcal/mol


--------
ENTHALPY
--------

The enthalpy is H = U + kB*T
                kB is Boltzmann's constant
Total thermal energy              ...    -66.35174424 Eh 
Thermal Enthalpy correction       ...      0.00094421 Eh       0.59 kcal/mol
-----------------------------------------------------------------------
Total Enthalpy                    ...    -66.35080003 Eh


Note: Only C1 symmetry has been detected, increase convergence thresholds 
      if your molecule has a higher symmetry. Symmetry factor of 1.0 is   
      used for the rotational entropy correction. 
 

Note: Rotational entropy computed according to Herzberg 
Infrared and Raman Spectra, Chapter V,1, Van Nostrand Reinhold, 1945 
Point Group:  C1, Symmetry Number:   1  
Rotational constants in cm-1:     0.066918     0.033140     0.030700 

Vibrational entropy computed according to the QRRHO of S. Grimme
Chem.Eur.J. 2012 18 9955 using a reference frequency of 100.0 cm-1


-------
ENTROPY
-------

The entropy contributions are T*S = T*(S(el)+S(vib)+S(rot)+S(trans))
     S(el)   - electronic entropy
     S(vib)  - vibrational entropy
     S(rot)  - rotational entropy
     S(trans)- translational entropy
The entropies will be listed as multiplied by the temperature to get
units of energy

Electronic entropy                ...      0.00000000 Eh      0.00 kcal/mol
Vibrational entropy               ...      0.01221071 Eh      7.66 kcal/mol
Rotational entropy                ...      0.01404043 Eh      8.81 kcal/mol
Translational entropy             ...      0.01930920 Eh     12.12 kcal/mol
-----------------------------------------------------------------------
Final entropy term                ...      0.04556034 Eh     28.59 kcal/mol

In case the symmetry of your molecule has not been determined correctly
or in case you have a reason to use a different symmetry number we print 
out the resulting rotational entropy values for sn=1,12:

 non-linear molecules -----------------------------------
|  sn= 1 | S(rot)=       0.01404043 Eh      8.81 kcal/mol|
|  sn= 2 | S(rot)=       0.01338598 Eh      8.40 kcal/mol|
|  sn= 3 | S(rot)=       0.01300314 Eh      8.16 kcal/mol|
|  sn= 4 | S(rot)=       0.01273152 Eh      7.99 kcal/mol|
|  sn= 5 | S(rot)=       0.01252083 Eh      7.86 kcal/mol|
|  sn= 6 | S(rot)=       0.01234869 Eh      7.75 kcal/mol|
|  sn= 7 | S(rot)=       0.01220314 Eh      7.66 kcal/mol|
|  sn= 8 | S(rot)=       0.01207706 Eh      7.58 kcal/mol|
|  sn= 9 | S(rot)=       0.01196585 Eh      7.51 kcal/mol|
|  sn=10 | S(rot)=       0.01186638 Eh      7.45 kcal/mol|
|  sn=11 | S(rot)=       0.01177639 Eh      7.39 kcal/mol|
|  sn=12 | S(rot)=       0.01169423 Eh      7.34 kcal/mol|
 linear molecules ---------------------------------------
|  Dinfh | S(rot)=       0.00861487 Eh      5.41 kcal/mol|
|  Cinfv | S(rot)=       0.00926932 Eh      5.82 kcal/mol|
 --------------------------------------------------------


-------------------
GIBBS FREE ENERGY
-------------------

The Gibbs free energy is G = H - T*S

Total enthalpy                    ...    -66.35080003 Eh 
Total entropy correction          ...     -0.04556034 Eh    -28.59 kcal/mol
-----------------------------------------------------------------------
Final Gibbs free energy         ...    -66.39636037 Eh

For completeness - the Gibbs free energy minus the electronic energy
G-E(el)                           ...      0.20714090 Eh    129.98 kcal/mol


Maximum memory used throughout the entire PROP-calculation: 113.6 MB

--------------------------------
SUGGESTED CITATIONS FOR THIS RUN
--------------------------------

Below you find a list of papers that are relevant to this ORCA run
We neither can nor want to force you to cite these papers, but we appreciate if you do
You receive ORCA, which is the product of decades of hard work by many enthusiastic individuals, for free
The only thing we kindly ask in return is that you cite our papers,
We deeply appreciate it, if you show your appreciation for ORCA by not just citing the generic ORCA reference.

Please note that relegating all ORCA citations to the supporting information does *not* help us.
SI sections are not indexed - citations you put there will not count into any citation statistics
But we need these citations in order to attract the funding resources that allow us to do what we are doing

Therefore, if you are a happy ORCA user, please consider citing a few of the papers listed below in the main body of your paper

In addition to the list printed below, the program has created the file ./output/limonene/limonene.bibtex that contains the list in bibtex format
You can import this file easily into all common literature databanks and citation aid programs


List of essential papers. We consider these as the minimum necessary citations

  1. Neese,F.
     Software update: the ORCA program system, version 5.0
     WIRES Comput. Molec. Sci., 2022 12(1)e1606
     doi.org/10.1002/wcms.1606
  2. Mueller,M.; Hansen,A.; Grimme,S.
     wB97X-3c: A composite range-separated hybrid DFT method with a molecule-optimized polarized valence double-zeta basis set
     J. Chem. Phys., 2023 158 014103
     doi.org/10.1063/5.0133026

List of papers to cite with high priority. The work reported in these papers was absolutely
necessary for this run to complete.
Our perspective: the developers of density functionals and basis sets usually get cited in chemistry papers
Good! But without the algorithms to do something with them, the functionals or basis sets would not do anything.
Hence, in our opinion, the algorithm design and method developments papers are equally worthy of getting cited

  1. Neese,F.
     An improvement of the resolution of the identity approximation for the formation of the Coulomb matrix
     J. Comp. Chem., 2003 24(14)1740-1747
     doi.org/10.1002/jcc.10318
  2. Neese,F.; Wennmohs,F.; Hansen,A.; Becker,U.
     Efficient, approximate and parallel Hartree-Fock and hybrid DFT calculations. A 'chain-of-spheres' algorithm for the Hartree-Fock exchange
     Chem. Phys., 2009 356(1-3)98-109
     doi.org/10.1016/j.chemphys.2008.10.036
  3. Bykov,D.; Petrenko,T.; Izsak,R.; Kossmann,S.; Becker,U.; Valeev,E.; Neese,F.
     Efficient implementation of the analytic second derivatives of Hartree-Fock and hybrid DFT energies: a detailed analysis of different approximations
     Molec. Phys., 2015 113 1961-1977
     doi.org/10.1080/00268976.2015.1025114
  4. Helmich-Paris,B.; de Souza,B.; Neese,F.; Izsák,R.
     An improved chain of spheres for exchange algorithm
     J. Chem. Phys., 2021 155 104109
     doi.org/doi: 10.1063/5.0058766.
  5. Neese,F.
     The SHARK Integral Generation and Digestion System
     J. Comp. Chem., 2022  1-16
     doi.org/10.1002/jcc.26942
  6. Caldeweyher,E.; Bannwarth,C.; Grimme,S.
     Extension of the D3 dispersion coefficient model
     J. Chem. Phys., 2017 147 034112
     doi.org/10.1063/1.4993215
  7. Caldeweyher,E.; Ehlert,S.; Hansen,A.; Neugebauer,H.; Spicher,S.; Bannwarth,C.; Grimme,S.
     A generally applicable atomic-charge dependent London dispersion correction
     J. Chem. Phys., 2019 150 154122
     doi.org/10.1063/1.5090222
  8. Caldeweyher,E.; Mewes,J.; Ehlert,S.; Grimme,S.
     Extension and evaluation of the D4 London-dispersion model for periodic systems
     Phys. Chem. Chem. Phys., 2020 22(16)8499-8512
     doi.org/10.1039/D0CP00502A
  9. Wittmann,L.; Gordiy,I.; Friede,M.; Helmich-Paris,B.; Grimme,S.; Hansen,A.; Bursch,M.
     Extension of the D3 and D4 London Dispersion Corrections to the full Actinides Series
     Phys. Chem. Chem. Phys., 2024 26(32)21379-21394
     doi.org/https://doi.org/10.1039/D4CP01514B 

List of suggested additional citations. These are papers that are important in the 'surrounding' of 
of this run, or papers that preceded the highly important papers. If you like your results we are grateful for a citation.

  1. Izsak,R.; Neese,F.
     An overlap fitted chain of spheres exchange method
     J. Chem. Phys., 2011 135 144105
     doi.org/10.1063/1.3646921
  2. Izsak,R.; Hansen,A.; Neese,F.
     The resolution of identity and chain of spheres approximations for the LPNO-CCSD singles Fock term
     Molec. Phys., 2012 110 2413-2417
     doi.org/10.1080/00268976.2012.687466
  3. Neese,F.
     The ORCA program system
     WIRES Comput. Molec. Sci., 2012 2(1)73-78
     doi.org/10.1002/wcms.81
  4. Izsak,R.; Neese,F.; Klopper,W.
     Robust fitting techniques in the chain of spheres approximation to the Fock exchange: The role of the complementary space
     J. Chem. Phys., 2013 139 
     doi.org/10.1063/1.4819264
  5. Neese,F.
     Software update: the ORCA program system, version 4.0
     WIRES Comput. Molec. Sci., 2018 8(1)1-6
     doi.org/10.1002/wcms.1327
  6. Neese,F.; Wennmohs,F.; Becker,U.; Riplinger,C.
     The ORCA quantum chemistry program package
     J. Chem. Phys., 2020 152 Art. No. L224108
     doi.org/10.1063/5.0004608

List of optional additional citations

  1. Neese,F.
     Approximate second-order SCF convergence for spin unrestricted wavefunctions
     Chem. Phys. Lett., 2000 325(1-3)93-98
     doi.org/10.1016/s0009-2614(00)00662-x

Timings for individual modules:

Sum of individual times          ...     2813.878 sec (=  46.898 min)
Startup calculation              ...      175.248 sec (=   2.921 min)   6.2 %
SCF iterations                   ...     2016.506 sec (=  33.608 min)  71.7 %
Property integrals               ...       80.026 sec (=   1.334 min)   2.8 %
SCF Response                     ...       34.770 sec (=   0.579 min)   1.2 %
Property calculations            ...       77.899 sec (=   1.298 min)   2.8 %
SCF Gradient evaluation          ...      428.447 sec (=   7.141 min)  15.2 %
Geometry relaxation              ...        0.981 sec (=   0.016 min)   0.0 %
                             ****ORCA TERMINATED NORMALLY****
TOTAL RUN TIME: 0 days 0 hours 47 minutes 18 seconds 175 msec
