
                                 *****************
                                 * O   R   C   A *
                                 *****************

                                            #,                                       
                                            ###                                      
                                            ####                                     
                                            #####                                    
                                            ######                                   
                                           ########,                                 
                                     ,,################,,,,,                         
                               ,,#################################,,                 
                          ,,##########################################,,             
                       ,#########################################, ''#####,          
                    ,#############################################,,   '####,        
                  ,##################################################,,,,####,       
                ,###########''''           ''''###############################       
              ,#####''   ,,,,##########,,,,          '''####'''          '####       
            ,##' ,,,,###########################,,,                        '##       
           ' ,,###''''                  '''############,,,                           
         ,,##''                                '''############,,,,        ,,,,,,###''
      ,#''                                            '''#######################'''  
     '                                                          ''''####''''         
             ,#######,   #######,   ,#######,      ##                                
            ,#'     '#,  ##    ##  ,#'     '#,    #''#        ,####,   ,####,        
            ##       ##  ##   ,#'  ##            #'  '#       #'       #'  '#        
            ##       ##  #######   ##           ,######,      #####,   #    #        
            '#,     ,#'  ##    ##  '#,     ,#' ,#      #,     #,   #   #,  ,#        
             '#######'   ##     ##  '#######'  #'      '#     '####' # '####'        



                #########################################################
                #                        -***-                          #
                #          Department of theory and spectroscopy        #
                #                                                       #
                #                      Frank Neese                      #
                #                                                       #
                #     Directorship, Architecture, Infrastructure        #
                #                    SHARK, DRIVERS                     #
                #        Core code/Algorithms in most modules           #
                #                                                       #
                #        Max Planck Institute fuer Kohlenforschung      #
                #                Kaiser Wilhelm Platz 1                 #
                #                 D-45470 Muelheim/Ruhr                 #
                #                      Germany                          #
                #                                                       #
                #                  All rights reserved                  #
                #                        -***-                          #
                #########################################################


                         Program Version 6.0.1  -  RELEASE   -


 With contributions from (in alphabetic order):
[Max-Planck-Institut fuer Kohlenforschung]                               
  Daniel Aravena         : Magnetic Suceptibility                        
  Michael Atanasov       : Ab Initio Ligand Field Theory (pilot matlab implementation)
  Alexander A. Auer      : GIAO ZORA, VPT2 properties, NMR spectrum      
  Ute Becker             : All parallelization in ORCA, NUMFREQ, NUMCALC 
  Giovanni Bistoni       : ED, misc. LED, open-shell LED, HFLD           
  Martin Brehm           : Molecular dynamics                            
  Dmytro Bykov           : pre 5.0 version of the SCF Hessian            
  Marcos Casanova-Páez   : Triplet and SCS-CIS(D). UHF-(DLPNO)-IP/EA/STEOM-CCSD. UHF-CVS-IP/STEOM-CCSD   
  Vijay G. Chilkuri      : MRCI spin determinant printing, contributions to CSF-ICE 
  Pauline Colinet        : FMM embedding                                 
  Dipayan Datta          : RHF DLPNO-CCSD density                        
  Achintya Kumar Dutta   : EOM-CC, STEOM-CC                              
  Nicolas Foglia         : Exact transition moments, OPA infrastructure, MCD improvements    
  Dmitry Ganyushin       : Spin-Orbit,Spin-Spin,Magnetic field MRCI      
  Miquel Garcia-Rates    : C-PCM and meta-GGA Hessian, CCSD/C-PCM, Gaussian charge scheme 
  Tiago L. C. Gouveia    : GS-ROHF, GS-ROCIS                             
  Yang Guo               : DLPNO-NEVPT2, F12-NEVPT2, CIM, IAO-localization        
  Andreas Hansen         : Spin unrestricted coupled pair/coupled cluster methods 
  Ingolf Harden          : AUTO-CI MPn and infrastructure                
  Benjamin Helmich-Paris : MC-RPA, TRAH-(SCF,CASSCF), AVAS, COSX integrals, SCF dyn. polar. 
  Lee Huntington         : MR-EOM, pCC                                   
  Robert Izsak           : Overlap fitted RIJCOSX, COSX-SCS-MP3, EOM     
  Riya Kayal             : Wick's Theorem for AUTO-CI, AUTO-CI UHF-CCSDT 
  Emily Kempfer          : AUTO-CI, RHF CISDT and CCSDT                  
  Christian Kollmar      : KDIIS, OOCD, Brueckner-CCSD(T), CCSD density, CASPT2, CASPT2-K, improved NEVPT2 
  Axel Koslowski         : Symmetry handling                             
  Simone Kossmann        : meta-GGA functionals, TD-DFT gradient, OOMP2, (MP2 Hessian; deprecated post 5.0) 
  Lucas Lang             : DCDCAS                                        
  Marvin Lechner         : AUTO-CI (C++ implementation), FIC-MRCC        
  Spencer Leger          : CASSCF response                               
  Dagmar Lenk            : GEPOL surface, SMD, ORCA-2-JSON               
  Dimitrios Liakos       : Extrapolation schemes; Compound Job, initial MDCI parallelization 
  Dimitrios Manganas     : Further ROCIS development; embedding schemes. LFT, Crystal Embedding 
  Dimitrios Pantazis     : SARC Basis sets                               
  Anastasios Papadopoulos: AUTO-CI, single reference methods and gradients 
  Taras Petrenko         : pre 6.0 DFT Hessian and TD-DFT gradient, (ASA, deprecated), ECA, 1-Electron XAS/XES, NRVS 
  Peter Pinski           : DLPNO-MP2, DLPNO-MP2 Gradient                 
  Christoph Reimann      : Effective Core Potentials                     
  Marius Retegan         : Local ZFS, SOC                                
  Christoph Riplinger    : Optimizer, TS searches, QM/MM, DLPNO-CCSD(T), (RO)-DLPNO pert. Triples 
  Michael Roemelt        : Original ROCIS implementation                 
  Masaaki Saitow         : Open-shell DLPNO-CCSD energy and density      
  Barbara Sandhoefer     : DKH picture change effects                    
  Kantharuban Sivalingam : CASSCF convergence/infrastructure, NEVPT2 and variants, FIC-MRCI 
  Bernardo de Souza      : ESD, SOC TD-DFT                               
  Georgi L. Stoychev     : AutoAux, RI-MP2 NMR, DLPNO-MP2 response, X2C  
  Van Anh Tran           : RI-MP2 g-tensors                              
  Willem Van den Heuvel  : Paramagnetic NMR                              
  Zikuan Wang            : NOTCH, Electric field optimization            
  Frank Wennmohs         : Technical directorship and infrastructure     
  Hang Xu                : AUTO-CI-Response properties                   
                                                                         
[FACCTs GmbH]                                                            
  Markus Bursch, Miquel Garcia-Rates, Christoph Riplinger, Bernardo de Souza, Georgi L. Stoychev 
                                                                 
  APM, Basis sets (HGBS, AHGBS, def-TZVP (Ac-Lr), def2-XVPD (La-Lu)), CI-OPT, improved COSX, DLPNO-Multilevel,           
  DOCKER, DRACO, updates on ESD, GOAT, IRC, LR-CPCM, MBIS, meta-GGA TD-DFT gradient, ML-optimized integration grids, 
  MM, NACMEs, nearIR, NEB, NEB-TS, NL-DFT gradient (VV10), 2- and 3-layer-ONIOM, interface openCOSMO-RS, QMMM,   
  Crystal-QMMM, SF, symmetry and pop. for TD-DFT, r2SCAN hybrids, SOLVATOR                                   
                                                                         
[Other institutions]                                                     
  V. Asgeirsson          : NEB                                           
  Christoph Bannwarth    : sTDA-DFT, sTD-DFT, PBEh-3c, B97-3c, D3        
  Sebastian Ehlert       : rSCAN, r2SCAN, r2SCAN-3c, D4, dhf basis sets  
  Marvin Friede          : D4 for Fr, Ra, Ac-Lr                          
  Lars Goerigk           : TD-DFT with DH, B97 family of functionals     
  Stefan Grimme          : VdW corrections, initial TS optimization, DFT functionals, gCP, sTDA/sTD-DF 
  Waldemar Hujo          : DFT-NL                                        
  H. Jonsson             : NEB                                           
  Holger Kruse           : gCP                                           
  Marcel Mueller         : wB97X-3c, vDZP basis set                      
  Hagen Neugebauer       : wr2SCAN                                       
  Tobias Risthaus        : range-separated hybrid DFT                    
  Lukas Wittmann         : regularized MP2, r2SCAN double-hybrids, wr2SCAN        
                                                                         
We gratefully acknowledge several colleagues who have allowed us to      
interface, adapt or use parts of their codes:                            
  Ed Valeev, F. Pavosevic, A. Kumar             : LibInt (2-el integral package), F12 methods 
  Garnet Chan, S. Sharma, J. Yang, R. Olivares  : DMRG                   
  Ulf Ekstrom                                   : XCFun DFT Library      
  Mihaly Kallay                                 : mrcc  (arbitrary order and MRCC methods)
  Frank Weinhold                                : gennbo (NPA and NBO analysis)           
  Simon Mueller                                 : openCOSMO-RS                            
  Christopher J. Cramer and Donald G. Truhlar   : smd solvation model                     
  S Lehtola, MJT Oliveira, MAL Marques          : LibXC Library                           
  Liviu Ungur et al                             : ANISO software                          


 Your calculation uses the libint2 library for the computation of 2-el integrals
 For citations please refer to: http://libint.valeyev.net

 Your ORCA version has been built with support for libXC version: 6.2.2
 For citations please refer to: https://libxc.gitlab.io

 This ORCA versions uses:
   CBLAS   interface :  Fast vector & matrix operations
   LAPACKE interface :  Fast linear algebra routines
   SCALAPACK package :  Parallel linear algebra routines
   Shared memory     :  Shared parallel matrices
   BLAS/LAPACK       :  OpenBLAS 0.3.27  USE64BITINT DYNAMIC_ARCH NO_AFFINITY SkylakeX SINGLE_THREADED
        Core in use  :  SkylakeX
   Copyright (c) 2011-2014, The OpenBLAS Project


Your calculation utilizes the atom-pairwise dispersion correction
based on EEQ partial charges (D4)


================================================================================

cite the ECPs for C  [vDZP-ECP], O  [vDZP-ECP] as follows:
   B-Ne (ecp-2-mwb), Al-Ar (ecp-10-mwb), Ga-Kr (ecp-28-mwb), Y-Cd (ecp-28-mwb), In-Xe (ecp-46-mwb):
     A. Bergner, M. Dolg, W. Küchle, H. Stoll, and H. Preuß, Mol. Phys. 80, 1431 (1993)., T. Leininger, A. Berning, A. Nicklass, H. Stoll, H.-J. Werner, and H.-J.Flad, Chem. Phys. 217, 19 (1997).
   Na-Mg, K-Ca, Rb-Sr, Cs-Ba (CRENBL):
     L. Fernandez Pacios and P. A. Christiansen, J. Chem. Phys. 82, 2664 (1985)., M. M. Hurley, L. F. Pacios, P. A. Christiansen, R. B. Ross, and W. C. Ermler, J. Chem. Phys. 84, 6840 (1986)., L. A. LaJohn, P. A. Christiansen, R. B. Ross, T. Atashroo, and W. C. Ermler, J. Chem. Phys. 87, 2812 (1987)., R. B. Ross, J. M. Powers, T. Atashroo, W. C. Ermler, L. A. LaJohn, and P. A. Christiansen, J. Chem. Phys. 93, 6654 (1990). 
   Sc-Zn (ecp-10-mdf):
     M. Dolg, U. Wedig, H. Stoll, and H. Preuss, J. Chem. Phys. 86, 866 (1986). 
   Y-Cd (ecp-28-mwb), Hf-Hg (ecp-60-mwb):
     D. Andrae, U. Häußermann, M. Dolg, H. Stoll, and H. Preuß, Theor. Chim. Acta 77, 123 (1990). 
   La (ecp-46-mwb):
     M. Dolg, H. Stoll, and H. Preuss, J. Chem. Phys. 90, 1730 (1989)., M. Dolg, H. Stoll, and H. Preuss, Theor. Chim. Acta 85, 441 (1993).
   Ce-Lu (SBKJC-ecp):
     T. R. Cundari and W. J. Stevens, J. Chem. Phys. 98, 5555 (1993).
   Tl-Rn (ecp-78-mwb):
     W. Küchle, M. Dolg, H. Stoll, and H. Preuss, Mol. Phys. 74, 1245 (1991).

ECP parameters for C  [vDZP-ECP], O  [vDZP-ECP] have been obtained from:
MM, AH, SG, J. Chem. Phys. 158, 014103 (2023), 10.1063/5.0133026

----- Orbital basis set information -----
Your calculation utilizes the basis: vDZP
   Marcel Mueller, Andreas Hansen, Stefan Grimme 
   J. Chem. Phys. 158, 014103 (2023). DOI: 10.1063/5.0133026

----- AuxJ basis set information -----
Your calculation utilizes the auxiliary basis: def2/J
   F. Weigend, Phys. Chem. Chem. Phys. 8, 1057 (2006).

================================================================================
                                        WARNINGS
                       Please study these warnings very carefully!
================================================================================

WARNING: Frozen-Core approximation turned on, but there are no core electrons.
  ===> : Turning off frozen-core approximation


WARNING: Geometry Optimization
  ===> : Switching off AutoStart
         For restart on a previous wavefunction, please use MOREAD

================================================================================
                                       INPUT FILE
================================================================================
NAME = ./output/_e_cinnamaldehyde/_e_cinnamaldehyde.inp
|  1> ! wB97X-3c OPT FREQ TightSCF
|  2> %pal
|  3>   nprocs 40
|  4> end
|  5> * xyz 0 1
|  6> C     -2.872894    -0.102124     0.425060
|  7> C     -2.458616     0.962899    -0.376966
|  8> C     -1.114812     1.083455    -0.743701
|  9> C     -0.166274     0.143662    -0.303444
| 10> C     -0.599223    -0.936485     0.494078
| 11> C     -1.945054    -1.051988     0.856965
| 12> C      1.246277     0.309385    -0.727226
| 13> C      2.283940    -0.265440    -0.107313
| 14> C      3.657198    -0.046395    -0.575437
| 15> O      4.621017    -0.583234     0.030286
| 16> H     -3.913848    -0.194918     0.706667
| 17> H     -3.179332     1.695779    -0.716117
| 18> H     -0.813590     1.917239    -1.366384
| 19> H      0.085166    -1.706136     0.821602
| 20> H     -2.270131    -1.883846     1.468541
| 21> H      1.443896     0.968303    -1.566037
| 22> H      2.141405    -0.884325     0.767678
| 23> H      3.854876     0.574169    -1.440600
| 24> *
| 25> 
| 26>                          ****END OF INPUT****
================================================================================

                       *****************************
                       * Geometry Optimization Run *
                       *****************************

Geometry optimization settings:
Update method            Update   .... BFGS
Choice of coordinates    CoordSys .... (2022) Redundant Internals
Initial Hessian          InHess   .... Almloef's Model
Max. no of cycles        MaxIter  .... 54

Convergence Tolerances:
Energy Change            TolE     ....  5.0000e-06 Eh
Max. Gradient            TolMAXG  ....  3.0000e-04 Eh/bohr
RMS Gradient             TolRMSG  ....  1.0000e-04 Eh/bohr
Max. Displacement        TolMAXD  ....  4.0000e-03 bohr
RMS Displacement         TolRMSD  ....  2.0000e-03 bohr
Strict Convergence                .... False

------------------------------------------------------------------------------
                        ORCA OPTIMIZATION COORDINATE SETUP
------------------------------------------------------------------------------

The optimization will be done in redundant internal coordinates (2022)
Making redundant internal coordinates   ...  (2022 redundants) done
Evaluating the initial hessian          ...  (Almloef) done
Evaluating the coordinates              ...  done
Calculating the B-matrix                .... done
Calculating the G-matrix                .... done
Diagonalizing the G-matrix              .... done
Small eigenvalue found = 1.425e-02
The first mode is                       ....   33
The number of degrees of freedom        ....   48

    -----------------------------------------------------------------
                    Redundant Internal Coordinates


    -----------------------------------------------------------------
         Definition                    Initial Value    Approx d2E/dq
    -----------------------------------------------------------------
      1. B(C   1,C   0)                  1.3961         0.610910   
      2. B(C   2,C   1)                  1.3982         0.606356   
      3. B(C   3,C   2)                  1.4060         0.589188   
      4. B(C   4,C   3)                  1.4107         0.578949   
      5. B(C   5,C   4)                  1.3987         0.605201   
      6. B(C   5,C   0)                  1.3963         0.610489   
      7. B(C   6,C   3)                  1.4840         0.442297   
      8. B(C   7,C   6)                  1.3385         0.755051   
      9. B(C   8,C   7)                  1.4673         0.470346   
     10. B(O   9,C   8)                  1.2586         0.906849   
     11. B(H  10,C   0)                  1.0824         0.370353   
     12. B(H  11,C   1)                  1.0824         0.370309   
     13. B(H  12,C   2)                  1.0834         0.368995   
     14. B(H  13,C   4)                  1.0808         0.372545   
     15. B(H  14,C   5)                  1.0824         0.370234   
     16. B(H  15,C   6)                  1.0848         0.367021   
     17. B(H  16,C   7)                  1.0812         0.371963   
     18. B(H  17,C   8)                  1.0829         0.369609   
     19. A(C   5,C   0,H  10)          120.0183         0.353664   
     20. A(C   1,C   0,H  10)          120.0166         0.353705   
     21. A(C   1,C   0,C   5)          119.9640         0.431713   
     22. A(C   0,C   1,C   2)          120.1099         0.431187   
     23. A(C   2,C   1,H  11)          119.9604         0.353250   
     24. A(C   0,C   1,H  11)          119.9297         0.353698   
     25. A(C   3,C   2,H  12)          120.4536         0.351326   
     26. A(C   1,C   2,C   3)          120.5741         0.428394   
     27. A(C   1,C   2,H  12)          118.9705         0.353037   
     28. A(C   2,C   3,C   6)          118.5607         0.405004   
     29. A(C   2,C   3,C   4)          118.8005         0.424860   
     30. A(C   4,C   3,C   6)          122.6187         0.403753   
     31. A(C   3,C   4,C   5)          120.3446         0.426904   
     32. A(C   5,C   4,H  13)          118.1572         0.353496   
     33. A(C   3,C   4,H  13)          121.4825         0.350854   
     34. A(C   0,C   5,C   4)          120.1961         0.430986   
     35. A(C   0,C   5,H  14)          119.8671         0.353644   
     36. A(C   4,C   5,H  14)          119.9353         0.353124   
     37. A(C   7,C   6,H  15)          118.5389         0.366138   
     38. A(C   3,C   6,H  15)          117.5179         0.334543   
     39. A(C   3,C   6,C   7)          123.8975         0.423252   
     40. A(C   8,C   7,H  16)          117.8419         0.338738   
     41. A(C   6,C   7,H  16)          121.2290         0.366978   
     42. A(C   6,C   7,C   8)          120.9109         0.427937   
     43. A(O   9,C   8,H  17)          119.2842         0.375950   
     44. A(C   7,C   8,H  17)          120.7493         0.338380   
     45. A(C   7,C   8,O   9)          119.9665         0.439378   
     46. D(C   2,C   1,C   0,H  10)   -179.8960         0.025780   
     47. D(H  11,C   1,C   0,C   5)    179.6520         0.025780   
     48. D(C   2,C   1,C   0,C   5)     -0.2852         0.025780   
     49. D(H  11,C   1,C   0,H  10)      0.0413         0.025780   
     50. D(C   3,C   2,C   1,C   0)     -0.4702         0.025376   
     51. D(H  12,C   2,C   1,H  11)      0.0771         0.025376   
     52. D(C   3,C   2,C   1,H  11)    179.5926         0.025376   
     53. D(H  12,C   2,C   1,C   0)   -179.9857         0.025376   
     54. D(C   6,C   3,C   2,H  12)     -0.9096         0.023886   
     55. D(C   6,C   3,C   2,C   1)    179.5821         0.023886   
     56. D(C   4,C   3,C   2,H  12)   -179.3243         0.023886   
     57. D(C   4,C   3,C   2,C   1)      1.1675         0.023886   
     58. D(H  13,C   4,C   3,C   2)    177.4026         0.023024   
     59. D(C   5,C   4,C   3,C   6)   -179.4762         0.023024   
     60. D(C   5,C   4,C   3,C   2)     -1.1294         0.023024   
     61. D(H  13,C   4,C   3,C   6)     -0.9443         0.023024   
     62. D(H  14,C   5,C   4,H  13)      1.3778         0.025274   
     63. D(C   0,C   5,C   4,H  13)   -178.1842         0.025274   
     64. D(C   0,C   5,C   4,C   3)      0.3958         0.025274   
     65. D(H  14,C   5,C   0,H  10)      0.3693         0.025742   
     66. D(H  14,C   5,C   0,C   1)   -179.2414         0.025742   
     67. D(H  14,C   5,C   4,C   3)    179.9578         0.025274   
     68. D(C   4,C   5,C   0,H  10)    179.9316         0.025742   
     69. D(C   4,C   5,C   0,C   1)      0.3209         0.025742   
     70. D(H  15,C   6,C   3,C   4)    161.6573         0.013345   
     71. D(H  15,C   6,C   3,C   2)    -16.6933         0.013345   
     72. D(C   7,C   6,C   3,C   4)    -20.8447         0.013345   
     73. D(C   7,C   6,C   3,C   2)    160.8047         0.013345   
     74. D(H  16,C   7,C   6,C   3)     -1.0064         0.040710   
     75. D(C   8,C   7,C   6,H  15)     -1.9468         0.040710   
     76. D(C   8,C   7,C   6,C   3)   -179.4210         0.040710   
     77. D(H  16,C   7,C   6,H  15)    176.4677         0.040710   
     78. D(H  17,C   8,C   7,H  16)   -179.3259         0.015064   
     79. D(H  17,C   8,C   7,C   6)     -0.8591         0.015064   
     80. D(O   9,C   8,C   7,H  16)      0.7061         0.015064   
     81. D(O   9,C   8,C   7,C   6)    179.1729         0.015064   
    -----------------------------------------------------------------

Number of atoms                         .... 18
Number of degrees of freedom            .... 81


         *************************************************************
         *                GEOMETRY OPTIMIZATION CYCLE   1            *
         *************************************************************
---------------------------------
CARTESIAN COORDINATES (ANGSTROEM)
---------------------------------
  C     -2.872894   -0.102124    0.425060
  C     -2.458616    0.962899   -0.376966
  C     -1.114812    1.083455   -0.743701
  C     -0.166274    0.143662   -0.303444
  C     -0.599223   -0.936485    0.494078
  C     -1.945054   -1.051988    0.856965
  C      1.246277    0.309385   -0.727226
  C      2.283940   -0.265440   -0.107313
  C      3.657198   -0.046395   -0.575437
  O      4.621017   -0.583234    0.030286
  H     -3.913848   -0.194918    0.706667
  H     -3.179332    1.695779   -0.716117
  H     -0.813590    1.917239   -1.366384
  H      0.085166   -1.706136    0.821602
  H     -2.270131   -1.883846    1.468541
  H      1.443896    0.968303   -1.566037
  H      2.141405   -0.884325    0.767678
  H      3.854876    0.574169   -1.440600

----------------------------
CARTESIAN COORDINATES (A.U.)
----------------------------
  NO LB      ZA    FRAG     MASS         X           Y           Z
   0 C     4.0000*   0    12.011   -5.428983   -0.192986    0.803247
   1 C     4.0000*   0    12.011   -4.646111    1.819615   -0.712363
   2 C     4.0000*   0    12.011   -2.106689    2.047433   -1.405391
   3 C     4.0000*   0    12.011   -0.314212    0.271482   -0.573426
   4 C     4.0000*   0    12.011   -1.132367   -1.769700    0.933672
   5 C     4.0000*   0    12.011   -3.675619   -1.987969    1.619429
   6 C     4.0000*   0    12.011    2.355122    0.584653   -1.374258
   7 C     4.0000*   0    12.011    4.316021   -0.501609   -0.202792
   8 C     4.0000*   0    12.011    6.911103   -0.087674   -1.087418
   9 O     6.0000*   0    15.999    8.732457   -1.102153    0.057232
  10 H     1.0000    0     1.008   -7.396101   -0.368342    1.335407
  11 H     1.0000    0     1.008   -6.008067    3.204558   -1.353265
  12 H     1.0000    0     1.008   -1.537462    3.623057   -2.582092
  13 H     1.0000    0     1.008    0.160940   -3.224130    1.552603
  14 H     1.0000    0     1.008   -4.289926   -3.559953    2.775140
  15 H     1.0000    0     1.008    2.728568    1.829827   -2.959381
  16 H     1.0000    0     1.008    4.046669   -1.671132    1.450701
  17 H     1.0000    0     1.008    7.284660    1.085022   -2.722339
* core charge reduced due to ECP

--------------------------------
INTERNAL COORDINATES (ANGSTROEM)
--------------------------------
 C      0   0   0     0.000000000000     0.00000000     0.00000000
 C      1   0   0     1.396118174256     0.00000000     0.00000000
 C      2   1   0     1.398155034242   120.10985921     0.00000000
 C      3   2   1     1.405973487069   120.57413377   359.52980994
 C      4   3   2     1.410745802295   118.80053133     1.16746495
 C      1   2   3     1.396306059974   119.96397138   359.71475880
 C      4   3   2     1.484033565609   118.56071678   179.58212388
 C      7   4   3     1.338454485503   123.89745458   160.80467743
 C      8   7   4     1.467296263869   120.91094519   180.57903151
 O      9   8   7     1.258587910879   119.96654869   179.17292075
 H      1   2   3     1.082357823920   120.01657329   180.10404503
 H      2   1   3     1.082389970324   119.92967046   179.93724605
 H      3   2   1     1.083358006584   118.97052233   180.01431644
 H      5   4   3     1.080751097940   121.48250284   177.40255704
 H      6   1   2     1.082445375929   119.86713898   180.75855304
 H      7   4   3     1.084818000222   117.51788723   343.30668259
 H      8   7   4     1.081177191551   121.22895023   358.99357879
 H      9   8   7     1.082905021850   120.74926951   359.14085987

---------------------------
INTERNAL COORDINATES (A.U.)
---------------------------
 C      0   0   0     0.000000000000     0.00000000     0.00000000
 C      1   0   0     2.638280999935     0.00000000     0.00000000
 C      2   1   0     2.642130107481   120.10985921     0.00000000
 C      3   2   1     2.656904842115   120.57413377   359.52980994
 C      4   3   2     2.665923210917   118.80053133     1.16746495
 C      1   2   3     2.638636052486   119.96397138   359.71475880
 C      4   3   2     2.804417012548   118.56071678   179.58212388
 C      7   4   3     2.529312420319   123.89745458   160.80467743
 C      8   7   4     2.772788096039   120.91094519   180.57903151
 O      9   8   7     2.378386467026   119.96654869   179.17292075
 H      1   2   3     2.045359866116   120.01657329   180.10404503
 H      2   1   3     2.045420614015   119.92967046   179.93724605
 H      3   2   1     2.047249937434   118.97052233   180.01431644
 H      5   4   3     2.042323594041   121.48250284   177.40255704
 H      6   1   2     2.045525315434   119.86713898   180.75855304
 H      7   4   3     2.050008925568   117.51788723   343.30668259
 H      8   7   4     2.043128794274   121.22895023   358.99357879
 H      9   8   7     2.046393920345   120.74926951   359.14085987

---------------------
BASIS SET INFORMATION
---------------------
There are 3 groups of distinct atoms

 Group   1 Type C   : 6s6p2d contracted to 2s2p1d pattern {42/42/2}
 Group   2 Type O   : 6s6p2d contracted to 2s2p1d pattern {42/42/2}
 Group   3 Type H   : 8s2p contracted to 2s1p pattern {53/2}

Atom   0C    basis set group =>   1
Atom   1C    basis set group =>   1
Atom   2C    basis set group =>   1
Atom   3C    basis set group =>   1
Atom   4C    basis set group =>   1
Atom   5C    basis set group =>   1
Atom   6C    basis set group =>   1
Atom   7C    basis set group =>   1
Atom   8C    basis set group =>   1
Atom   9O    basis set group =>   2
Atom  10H    basis set group =>   3
Atom  11H    basis set group =>   3
Atom  12H    basis set group =>   3
Atom  13H    basis set group =>   3
Atom  14H    basis set group =>   3
Atom  15H    basis set group =>   3
Atom  16H    basis set group =>   3
Atom  17H    basis set group =>   3
---------------------------------
AUXILIARY/J BASIS SET INFORMATION
---------------------------------
There are 3 groups of distinct atoms

 Group   1 Type C   : 12s5p4d2f1g contracted to 6s4p3d1f1g pattern {711111/2111/211/2/1}
 Group   2 Type O   : 12s5p4d2f1g contracted to 6s4p3d1f1g pattern {711111/2111/211/2/1}
 Group   3 Type H   : 5s2p1d contracted to 3s1p1d pattern {311/2/1}

Atom   0C    basis set group =>   1
Atom   1C    basis set group =>   1
Atom   2C    basis set group =>   1
Atom   3C    basis set group =>   1
Atom   4C    basis set group =>   1
Atom   5C    basis set group =>   1
Atom   6C    basis set group =>   1
Atom   7C    basis set group =>   1
Atom   8C    basis set group =>   1
Atom   9O    basis set group =>   2
Atom  10H    basis set group =>   3
Atom  11H    basis set group =>   3
Atom  12H    basis set group =>   3
Atom  13H    basis set group =>   3
Atom  14H    basis set group =>   3
Atom  15H    basis set group =>   3
Atom  16H    basis set group =>   3
Atom  17H    basis set group =>   3
-------------------------
ECP PARAMETER INFORMATION
-------------------------

 Group 1, Type C  ECP vDZP-ECP (replacing 2 core electrons, lmax=3)
 Group 2, Type O  ECP vDZP-ECP (replacing 2 core electrons, lmax=3)

Atom   0C    ECP group =>   1
Atom   1C    ECP group =>   1
Atom   2C    ECP group =>   1
Atom   3C    ECP group =>   1
Atom   4C    ECP group =>   1
Atom   5C    ECP group =>   1
Atom   6C    ECP group =>   1
Atom   7C    ECP group =>   1
Atom   8C    ECP group =>   1
Atom   9O    ECP group =>   2



           ************************************************************
           *        Program running with 40 parallel MPI-processes    *
           *              working on a common directory               *
           ************************************************************
------------------------------------------------------------------------------
                             ORCA STARTUP CALCULATIONS
                           -- RI-GTO INTEGRALS CHOSEN --
------------------------------------------------------------------------------
------------------------------------------------------------------------------
                   ___                                                        
                  /   \      - P O W E R E D   B Y -                         
                 /     \                                                     
                 |  |  |   _    _      __       _____    __    __             
                 |  |  |  | |  | |    /  \     |  _  \  |  |  /  |          
                  \  \/   | |  | |   /    \    | | | |  |  | /  /          
                 / \  \   | |__| |  /  /\  \   | |_| |  |  |/  /          
                |  |  |   |  __  | /  /__\  \  |    /   |      \           
                |  |  |   | |  | | |   __   |  |    \   |  |\   \          
                \     /   | |  | | |  |  |  |  | |\  \  |  | \   \       
                 \___/    |_|  |_| |__|  |__|  |_| \__\ |__|  \__/        
                                                                              
                      - O R C A' S   B I G   F R I E N D -                    
                                      &                                       
                       - I N T E G R A L  F E E D E R -                       
                                                                              
 v1 FN, 2020, v2 2021, v3 2022-2024                                           
------------------------------------------------------------------------------


----------------------
SHARK INTEGRAL PACKAGE
----------------------

Number of atoms                             ...     18
Number of basis functions                   ...    170
Number of shells                            ...     74
Maximum angular momentum                    ...      2
Integral batch strategy                     ... SHARK/LIBINT Hybrid
RI-J (if used) integral strategy            ... SPLIT-RIJ (Revised 2003 algorithm where possible)
Printlevel                                  ...      1
Contraction scheme used                     ... SEGMENTED contraction
Prescreening option                         ... SCHWARTZ
   Thresh                                   ... 2.500e-11
   Tcut                                     ... 2.500e-12
   Tpresel                                  ... 2.500e-12 
Coulomb Range Separation                    ... NOT USED
Exchange Range Separation                   ... Long Range
   Mu parameter                             ... 3.000e-01
   Scaling (regular/separated)              ... 1.670e-01 8.330e-01
Multipole approximations                    ... NOT USED
Finite Nucleus Model                        ... NOT USED
CABS basis                                  ... NOT available
Auxiliary Coulomb fitting basis             ... AVAILABLE
   # of basis functions in Aux-J            ...    578
   # of shells in Aux-J                     ...    190
   Maximum angular momentum in Aux-J        ...      4
Auxiliary J/K fitting basis                 ... NOT available
Auxiliary Correlation fitting basis         ... NOT available
Auxiliary 'external' fitting basis          ... NOT available

Checking pre-screening integrals            ... done (  0.0 sec) Dimension = 74
Check shell pair data                       ... done (  0.0 sec)
Shell pair information
Shell pair cut-off parameter TPreSel        ...   2.5e-12
Total number of shell pairs                 ...      2775
Shell pairs after pre-screening             ...      2742
Total number of primitive shell pairs       ...     24572
Primitive shell pairs kept                  ...     20018
          la=0 lb=0:    663 shell pairs
          la=1 lb=0:    997 shell pairs
          la=1 lb=1:    398 shell pairs
          la=2 lb=0:    358 shell pairs
          la=2 lb=1:    272 shell pairs
          la=2 lb=2:     54 shell pairs

Calculating one electron integrals          ... done (  0.0 sec)
Calculating ECP integrals                   ... done (  0.1 sec)
Calculating RI/J V-Matrix + Cholesky decomp.... done (  0.0 sec)
Calculating Nuclear repulsion               ... done (  0.0 sec) ENN=    222.225325581415 Eh

Diagonalization of the overlap matrix:
Smallest eigenvalue                        ... 4.490e-04
Time for diagonalization                   ...    0.004 sec
Threshold for overlap eigenvalues          ... 1.000e-07
Number of eigenvalues below threshold      ... 0
Time for construction of square roots      ...    0.003 sec
Total time needed                          ...    0.035 sec

-------------------
DFT GRID GENERATION
-------------------

General Integration Accuracy     IntAcc      ... 4.388
Radial Grid Type                 RadialGrid  ... OptM3 with GC (2021)
Angular Grid (max. ang.)         AngularGrid ... 4 (Lebedev-302)
Angular grid pruning method      GridPruning ... 4 (adaptive)
Weight generation scheme         WeightScheme... mBecke (2022)
Basis function cutoff            BFCut       ... 1.0000e-11
Integration weight cutoff        WCut        ... 1.0000e-14
Partially contracted basis set               ... off
Rotationally invariant grid construction     ... off
Angular grids for H and He will be reduced by one unit

Total number of grid points                  ...    86034
Total number of batches                      ...     1355
Average number of points per batch           ...       63
Average number of grid points per atom       ...     4780

--------------------
COSX GRID GENERATION
--------------------

GRIDX 1
-------
General Integration Accuracy     IntAcc      ... 3.816
Radial Grid Type                 RadialGrid  ... OptM3 with GC (2021)
Angular Grid (max. ang.)         AngularGrid ... 1 (Lebedev-50)
Angular grid pruning method      GridPruning ... 4 (adaptive)
Weight generation scheme         WeightScheme... mBecke (2022)
Basis function cutoff            BFCut       ... 1.0000e-11
Integration weight cutoff        WCut        ... 1.0000e-14
Partially contracted basis set               ... on
Rotationally invariant grid construction     ... off
Angular grids for H and He will be reduced by one unit

Total number of grid points                  ...    11000
Total number of batches                      ...       95
Average number of points per batch           ...      115
Average number of grid points per atom       ...      611
UseSFitting                                  ... on

GRIDX 2
-------
General Integration Accuracy     IntAcc      ... 4.020
Radial Grid Type                 RadialGrid  ... OptM3 with GC (2021)
Angular Grid (max. ang.)         AngularGrid ... 2 (Lebedev-110)
Angular grid pruning method      GridPruning ... 4 (adaptive)
Weight generation scheme         WeightScheme... mBecke (2022)
Basis function cutoff            BFCut       ... 1.0000e-11
Integration weight cutoff        WCut        ... 1.0000e-14
Partially contracted basis set               ... on
Rotationally invariant grid construction     ... off
Angular grids for H and He will be reduced by one unit

Total number of grid points                  ...    24147
Total number of batches                      ...      196
Average number of points per batch           ...      123
Average number of grid points per atom       ...     1342
UseSFitting                                  ... on

GRIDX 3
-------
General Integration Accuracy     IntAcc      ... 4.338
Radial Grid Type                 RadialGrid  ... OptM3 with GC (2021)
Angular Grid (max. ang.)         AngularGrid ... 3 (Lebedev-194)
Angular grid pruning method      GridPruning ... 4 (adaptive)
Weight generation scheme         WeightScheme... mBecke (2022)
Basis function cutoff            BFCut       ... 1.0000e-11
Integration weight cutoff        WCut        ... 1.0000e-14
Partially contracted basis set               ... on
Rotationally invariant grid construction     ... off
Angular grids for H and He will be reduced by one unit

Total number of grid points                  ...    53003
Total number of batches                      ...      423
Average number of points per batch           ...      125
Average number of grid points per atom       ...     2945
UseSFitting                                  ... on
Initializing property integral containers    ... done (  0.0 sec)

SHARK setup successfully completed in   2.6 seconds

Maximum memory used throughout the entire STARTUP-calculation: 24.1 MB


           ************************************************************
           *        Program running with 40 parallel MPI-processes    *
           *              working on a common directory               *
           ************************************************************
-------------------------------------------------------------------------------
                                 ORCA GUESS
                   Start orbitals & Density for SCF / CASSCF
-------------------------------------------------------------------------------

------------
SCF SETTINGS
------------
Hamiltonian:
 Density Functional     Method          .... DFT(GTOs)
 Exchange Functional    Exchange        .... WB97X-V
 Correlation Functional Correlation     .... WB97X-V
 Gradients option       PostSCFGGA      .... off
 Hybrid DFT is turned on
   Fraction HF Exchange ScalHFX         ....  0.167000
   Scaling of DF-GGA-X  ScalDFX         ....  0.000000
   Scaling of DF-GGA-C  ScalDFC         ....  1.000000
   Scaling of DF-LDA-C  ScalLDAC        ....  1.000000
   Perturbative correction              ....  0.000000
 Long-range corrected/Screened/Range-Separated Hybrid DFT is turned on
   Amount of maximum screened exact exchange              ....  0.833000
   Range separation parameter mu (erf(mu*r12)/r12)        ....  0.300000
   NL short-range parameter             ....  6.000000
   NL long-range parameter              ....  0.010000
 RI-approximation to the Coulomb term is turned on
   Number of AuxJ basis functions       .... 578
   RIJ-COSX (HFX calculated with COS-X)).... on


General Settings:
 Integral files         IntName         .... ./output/_e_cinnamaldehyde/_e_cinnamaldehyde
 Hartree-Fock type      HFTyp           .... RHF
 Total Charge           Charge          ....    0
 Multiplicity           Mult            ....    1
 Number of Electrons    NEL             ....   50
 Basis Dimension        Dim             ....  170
 Nuclear Repulsion      ENuc            ....    222.2253255814 Eh

Convergence Acceleration:
 AO-DIIS                CNVDIIS         .... on
   Start iteration      DIISMaxIt       ....    12
   Startup error        DIISStart       ....  0.200000
   # of expansion vecs  DIISMaxEq       ....     5
   Bias factor          DIISBfac        ....   1.050
   Max. coefficient     DIISMaxC        ....  10.000
 MO-DIIS                CNVKDIIS        .... off
 Trust-Rad. Augm. Hess. CNVTRAH         .... auto
   Auto Start mean grad. ratio tolernc. ....  1.125000
   Auto Start start iteration           ....    50
   Auto Start num. interpolation iter.  ....    10
   Max. Number of Micro iterations      ....    24
   Max. Number of Macro iterations      .... Maxiter - #DIIS iter
   Number of Davidson start vectors     ....     2
   Converg. threshold    (grad. norm)   ....   1.000e-05
   Grad. Scal. Fac. for Micro threshold ....   0.100
   Minimum threshold for Micro iter.    ....   1.000e-02
   NR start threshold (gradient norm)   ....   1.000e-04
   Initial trust radius                 ....   0.400
   Minimum AH scaling param. (alpha)    ....   1.000
   Maximum AH scaling param. (alpha)    .... 1000.000
   Quad. conv. algorithm                .... NR
   White noise on init. David. guess    .... on
   Maximum white noise                  ....   0.010
   Pseudo random numbers                .... off
   Inactive MOs                         .... canonical
   Orbital update algorithm             .... Taylor
   Preconditioner                       .... Diag
   Full preconditioner red. dimension   ....   250
 SOSCF                  CNVSOSCF        .... on
   Start iteration      SOSCFMaxIt      ....   150
   Startup grad/error   SOSCFStart      ....  0.003300
   Hessian update       SOSCFHessUp     .... L-BFGS
 Level Shifting         CNVShift        .... on
   Level shift para.    LevelShift      ....    0.2500
   Turn off err/grad.   ShiftErr        ....    0.0010
 Zerner damping         CNVZerner       .... off
 Static damping         CNVDamp         .... on
   Fraction old density DampFac         ....    0.7000
   Max. Damping (<1)    DampMax         ....    0.9800
   Min. Damping (>=0)   DampMin         ....    0.0000
   Turn off err/grad.   DampErr         ....    0.1000

SCF Procedure:
 Maximum # iterations   MaxIter         ....   125
 SCF integral mode      SCFMode         .... Direct
   Integral package                     .... SHARK and LIBINT hybrid scheme
 Reset frequency        DirectResetFreq ....    20
 Integral Threshold     Thresh          ....  2.500e-11 Eh
 Primitive CutOff       TCut            ....  2.500e-12 Eh

Convergence Tolerance:
 Convergence Check Mode ConvCheckMode   .... Total+1el-Energy
 Convergence forced     ConvForced      .... 0
 Energy Change          TolE            ....  1.000e-08 Eh
 1-El. energy change                    ....  1.000e-05 Eh
 Orbital Gradient       TolG            ....  1.000e-05
 Orbital Rotation angle TolX            ....  1.000e-05
 DIIS Error             TolErr          ....  5.000e-07

------------------------------
INITIAL GUESS: MODEL POTENTIAL
------------------------------
Loading Hartree-Fock densities                     ... done
Atomic calculation to generate a density for atom 0 (C  with ECP)
  Multiplicity assumed   :    1
  Atomic configuration   : 1s2 2s2 2p2 
  Number of open shells  : 1
  Command: /home/aspe232/Project/Software/ORCA/6_0_1/build/orca ./output/_e_cinnamaldehyde/_e_cinnamaldehyde_atom6.inp "" > ./output/_e_cinnamaldehyde/_e_cinnamaldehyde_atom6.out
Returned from the atomic calculation with res=0
Atomic calculation to generate a density for atom 9 (O  with ECP)
  Multiplicity assumed   :    3
  Atomic configuration   : 1s2 2s2 2p4 
  Number of open shells  : 1
  Command: /home/aspe232/Project/Software/ORCA/6_0_1/build/orca ./output/_e_cinnamaldehyde/_e_cinnamaldehyde_atom8.inp "" > ./output/_e_cinnamaldehyde/_e_cinnamaldehyde_atom8.out
Returned from the atomic calculation with res=0
Calculating cut-offs                               ... done
Initializing the effective Hamiltonian             ... done
Setting up the integral package (SHARK)            ... done
Starting the Coulomb interaction                   ... done (   0.0 sec)
Making the grid                                    ... done (   0.6 sec)
Mapping shells                                     ... done
Starting the XC term evaluation                    ... done (   0.0 sec)
  promolecular density results
     # of electrons  =     69.995985405
     EX              =    -38.071730342
     EC              =     -2.869118462
     EX+EC           =    -40.940848805
Transforming the Hamiltonian                       ... done (   0.0 sec)
Diagonalizing the Hamiltonian                      ... done (   0.0 sec)
Back transforming the eigenvectors                 ... done (   0.0 sec)
Now organizing SCF variables                       ... done
                      ------------------
                      INITIAL GUESS DONE (   1.7 sec)
                      ------------------
             **** ENERGY FILE WAS UPDATED (./output/_e_cinnamaldehyde/_e_cinnamaldehyde.en.tmp) ****
Finished Guess after   2.0 sec
Maximum memory used throughout the entire GUESS-calculation: 14.6 MB


           ************************************************************
           *        Program running with 40 parallel MPI-processes    *
           *              working on a common directory               *
           ************************************************************

-------------------------------------------------------------------------------------------
                                      ORCA LEAN-SCF
                              memory conserving SCF solver
-------------------------------------------------------------------------------------------

----------------------------------------D-I-I-S--------------------------------------------
Iteration    Energy (Eh)           Delta-E    RMSDP     MaxDP     DIISErr   Damp  Time(sec)
-------------------------------------------------------------------------------------------
               ***  Starting incremental Fock matrix formation  ***
    1    -71.7886489463009241     0.00e+00  4.57e-03  7.52e-02  1.77e-01  0.700   2.9
    2    -71.8990019642729692    -1.10e-01  3.42e-03  5.02e-02  1.00e-01  0.700   2.5
                               ***Turning on AO-DIIS***
    3    -71.9577415534165254    -5.87e-02  1.99e-03  2.92e-02  5.50e-02  0.700   2.0
    4    -71.9932095175243774    -3.55e-02  4.29e-03  6.17e-02  3.52e-02  0.000   2.3
    5    -72.0694420986164062    -7.62e-02  3.05e-04  8.52e-03  6.44e-03  0.000   2.2
    6    -72.0697291388015913    -2.87e-04  1.36e-04  5.40e-03  4.33e-03  0.000   2.6
                              *** Initializing SOSCF ***
---------------------------------------S-O-S-C-F--------------------------------------
Iteration    Energy (Eh)           Delta-E    RMSDP     MaxDP     MaxGrad    Time(sec)
--------------------------------------------------------------------------------------
    7    -72.0698138493936256    -8.47e-05  8.62e-05  1.74e-03  1.16e-03     2.0
               *** Restarting incremental Fock matrix formation ***
    8    -72.0698642319503904    -5.04e-05  5.27e-05  8.94e-04  7.45e-04     2.5
    9    -72.0698754554833556    -1.12e-05  5.40e-05  1.08e-03  3.38e-04     2.4
   10    -72.0698778035714156    -2.35e-06  1.60e-05  6.25e-04  1.81e-04     2.5
   11    -72.0698786682019374    -8.65e-07  7.19e-06  2.11e-04  6.89e-05     2.7
   12    -72.0698787439613113    -7.58e-08  3.21e-06  1.05e-04  3.82e-05     2.3
   13    -72.0698787835994210    -3.96e-08  9.64e-07  2.35e-05  9.25e-06     2.4
   14    -72.0698787852902854    -1.69e-09  4.28e-07  1.43e-05  7.18e-06     2.3
                 **** Energy Check signals convergence ****

               *****************************************************
               *                     SUCCESS                       *
               *           SCF CONVERGED AFTER  14 CYCLES          *
               *****************************************************

Recomputing exchange energy using gridx3       ... done (    1.825 sec)
Old exchange energy                            :     -9.637084040 Eh
New exchange energy                            :     -9.637112048 Eh
Exchange energy change after final integration :     -0.000028008 Eh
Total energy after final integration           :    -72.069906793 Eh
             **** ENERGY FILE WAS UPDATED (./output/_e_cinnamaldehyde/_e_cinnamaldehyde.en.tmp) ****

----------------
TOTAL SCF ENERGY
----------------

Total Energy       :        -72.06990679319296 Eh           -1961.12187 eV

Components:
Nuclear Repulsion  :        222.22532558141498 Eh            6047.05854 eV
Electronic Energy  :       -294.29520436670526 Eh           -8008.17964 eV
One Electron Energy:       -549.41598045086118 Eh          -14950.36889 eV
Two Electron Energy:        255.12077608415592 Eh            6942.18925 eV

Virial components:
Potential Energy   :       -127.09440513587023 Eh           -3458.41459 eV
Kinetic Energy     :         55.02449834267727 Eh            1497.29272 eV
Virial Ratio       :          2.30977853436049

DFT components:
N(Alpha)           :       24.999960831597 electrons
N(Beta)            :       24.999960831597 electrons
N(Total)           :       49.999921663194 electrons
E(X)               :      -10.494793515108 Eh       
E(C)               :       -1.904816029908 Eh       
E(XC)              :      -12.399609545016 Eh       

---------------
SCF CONVERGENCE
---------------

  Last Energy change         ...    1.6909e-09  Tolerance :   1.0000e-08
  Last MAX-Density change    ...    1.4279e-05  Tolerance :   1.0000e-07
  Last RMS-Density change    ...    4.2820e-07  Tolerance :   5.0000e-09
  Last DIIS Error            ...    1.1649e-03  Tolerance :   5.0000e-07
  Last Orbital Gradient      ...    7.1841e-06  Tolerance :   1.0000e-05
  Last Orbital Rotation      ...    1.3630e-05  Tolerance :   1.0000e-05


----------------
ORBITAL ENERGIES
----------------

  NO   OCC          E(Eh)            E(eV) 
   0   2.0000      -1.146245       -31.1909 
   1   2.0000      -1.023531       -27.8517 
   2   2.0000      -0.964539       -26.2465 
   3   2.0000      -0.905283       -24.6340 
   4   2.0000      -0.897141       -24.4125 
   5   2.0000      -0.795872       -21.6568 
   6   2.0000      -0.758235       -20.6326 
   7   2.0000      -0.728541       -19.8246 
   8   2.0000      -0.705369       -19.1941 
   9   2.0000      -0.657090       -17.8803 
  10   2.0000      -0.616866       -16.7858 
  11   2.0000      -0.601457       -16.3665 
  12   2.0000      -0.574515       -15.6334 
  13   2.0000      -0.565377       -15.3847 
  14   2.0000      -0.552091       -15.0232 
  15   2.0000      -0.529912       -14.4196 
  16   2.0000      -0.517059       -14.0699 
  17   2.0000      -0.512383       -13.9427 
  18   2.0000      -0.499554       -13.5936 
  19   2.0000      -0.473203       -12.8765 
  20   2.0000      -0.468583       -12.7508 
  21   2.0000      -0.421071       -11.4579 
  22   2.0000      -0.372619       -10.1395 
  23   2.0000      -0.367422        -9.9981 
  24   2.0000      -0.341360        -9.2889 
  25   0.0000      -0.014066        -0.3828 
  26   0.0000       0.046814         1.2739 
  27   0.0000       0.070212         1.9106 
  28   0.0000       0.077291         2.1032 
  29   0.0000       0.082440         2.2433 
  30   0.0000       0.098074         2.6687 
  31   0.0000       0.107113         2.9147 
  32   0.0000       0.121239         3.2991 
  33   0.0000       0.131524         3.5789 
  34   0.0000       0.137887         3.7521 
  35   0.0000       0.165952         4.5158 
*Only the first 10 virtual orbitals were printed.

                    ********************************
                    * MULLIKEN POPULATION ANALYSIS *
                    ********************************

-----------------------
MULLIKEN ATOMIC CHARGES
-----------------------
   0 C :   -0.007298
   1 C :   -0.005237
   2 C :    0.006306
   3 C :   -0.077265
   4 C :   -0.000764
   5 C :   -0.007127
   6 C :    0.013971
   7 C :    0.029170
   8 C :    0.199103
   9 O :   -0.343692
  10 H :    0.024367
  11 H :    0.023079
  12 H :    0.022746
  13 H :    0.027462
  14 H :    0.023645
  15 H :    0.029912
  16 H :    0.036731
  17 H :    0.004891
Sum of atomic charges:    0.0000000

--------------------------------
MULLIKEN REDUCED ORBITAL CHARGES
--------------------------------
  0 C s       :     1.012464  s :     1.012464
      pz      :     0.955642  p :     2.900849
      px      :     0.981468
      py      :     0.963739
      dz2     :     0.015915  d :     0.093986
      dxz     :     0.014946
      dyz     :     0.013853
      dx2y2   :     0.029879
      dxy     :     0.019392

  1 C s       :     1.009898  s :     1.009898
      pz      :     0.961896  p :     2.901941
      px      :     0.970749
      py      :     0.969296
      dz2     :     0.014726  d :     0.093398
      dxz     :     0.019916
      dyz     :     0.009706
      dx2y2   :     0.019174
      dxy     :     0.029876

  2 C s       :     1.011921  s :     1.011921
      pz      :     0.952972  p :     2.888373
      px      :     0.963520
      py      :     0.971881
      dz2     :     0.008441  d :     0.093399
      dxz     :     0.021961
      dyz     :     0.012550
      dx2y2   :     0.025220
      dxy     :     0.025228

  3 C s       :     1.029433  s :     1.029433
      pz      :     0.966811  p :     2.929367
      px      :     0.942942
      py      :     1.019614
      dz2     :     0.018227  d :     0.118464
      dxz     :     0.023923
      dyz     :     0.014949
      dx2y2   :     0.032169
      dxy     :     0.029197

  4 C s       :     1.009653  s :     1.009653
      pz      :     0.930423  p :     2.898620
      px      :     0.983407
      py      :     0.984789
      dz2     :     0.014299  d :     0.092491
      dxz     :     0.019584
      dyz     :     0.009748
      dx2y2   :     0.018944
      dxy     :     0.029915

  5 C s       :     1.011794  s :     1.011794
      pz      :     0.961114  p :     2.901658
      px      :     0.973339
      py      :     0.967204
      dz2     :     0.008632  d :     0.093675
      dxz     :     0.021474
      dyz     :     0.012705
      dx2y2   :     0.025462
      dxy     :     0.025401

  6 C s       :     1.037252  s :     1.037252
      pz      :     0.961987  p :     2.850166
      px      :     0.963117
      py      :     0.925062
      dz2     :     0.015387  d :     0.098611
      dxz     :     0.025220
      dyz     :     0.012252
      dx2y2   :     0.022922
      dxy     :     0.022831

  7 C s       :     1.021986  s :     1.021986
      pz      :     1.000805  p :     2.864084
      px      :     0.885407
      py      :     0.977873
      dz2     :     0.016556  d :     0.084759
      dxz     :     0.020059
      dyz     :     0.011128
      dx2y2   :     0.020665
      dxy     :     0.016351

  8 C s       :     1.124659  s :     1.124659
      pz      :     0.843211  p :     2.501496
      px      :     0.883980
      py      :     0.774305
      dz2     :     0.033947  d :     0.174741
      dxz     :     0.035676
      dyz     :     0.024551
      dx2y2   :     0.046558
      dxy     :     0.034009

  9 O s       :     1.810131  s :     1.810131
      pz      :     1.544560  p :     4.499577
      px      :     1.539773
      py      :     1.415244
      dz2     :     0.005612  d :     0.033984
      dxz     :     0.009221
      dyz     :     0.003324
      dx2y2   :     0.006839
      dxy     :     0.008988

 10 H s       :     0.926299  s :     0.926299
      pz      :     0.013536  p :     0.049334
      px      :     0.025004
      py      :     0.010794

 11 H s       :     0.927313  s :     0.927313
      pz      :     0.014194  p :     0.049608
      px      :     0.016952
      py      :     0.018462

 12 H s       :     0.927038  s :     0.927038
      pz      :     0.018159  p :     0.050216
      px      :     0.011031
      py      :     0.021026

 13 H s       :     0.921304  s :     0.921304
      pz      :     0.014282  p :     0.051234
      px      :     0.017309
      py      :     0.019643

 14 H s       :     0.926852  s :     0.926852
      pz      :     0.017954  p :     0.049503
      px      :     0.010928
      py      :     0.020621

 15 H s       :     0.920846  s :     0.920846
      pz      :     0.021190  p :     0.049242
      px      :     0.010391
      py      :     0.017661

 16 H s       :     0.913133  s :     0.913133
      pz      :     0.022206  p :     0.050136
      px      :     0.010472
      py      :     0.017458

 17 H s       :     0.951576  s :     0.951576
      pz      :     0.020419  p :     0.043533
      px      :     0.008538
      py      :     0.014576



                     *******************************
                     * LOEWDIN POPULATION ANALYSIS *
                     *******************************

----------------------
LOEWDIN ATOMIC CHARGES
----------------------
   0 C :   -0.035333
   1 C :   -0.038688
   2 C :   -0.026385
   3 C :   -0.046347
   4 C :   -0.019041
   5 C :   -0.036625
   6 C :    0.001780
   7 C :   -0.045562
   8 C :    0.038983
   9 O :   -0.174693
  10 H :    0.048620
  11 H :    0.048438
  12 H :    0.047871
  13 H :    0.047308
  14 H :    0.049301
  15 H :    0.052446
  16 H :    0.051725
  17 H :    0.036202

-------------------------------
LOEWDIN REDUCED ORBITAL CHARGES
-------------------------------
  0 C s       :     0.802726  s :     0.802726
      pz      :     0.921634  p :     2.931707
      px      :     1.033530
      py      :     0.976543
      dz2     :     0.045365  d :     0.300901
      dxz     :     0.044212
      dyz     :     0.049827
      dx2y2   :     0.098959
      dxy     :     0.062538

  1 C s       :     0.802059  s :     0.802059
      pz      :     0.928118  p :     2.937145
      px      :     1.022464
      py      :     0.986563
      dz2     :     0.041726  d :     0.299484
      dxz     :     0.062923
      dyz     :     0.034009
      dx2y2   :     0.061686
      dxy     :     0.099141

  2 C s       :     0.800543  s :     0.800543
      pz      :     0.929636  p :     2.926770
      px      :     1.013558
      py      :     0.983576
      dz2     :     0.025432  d :     0.299072
      dxz     :     0.064634
      dyz     :     0.042392
      dx2y2   :     0.083934
      dxy     :     0.082680

  3 C s       :     0.783293  s :     0.783293
      pz      :     0.933215  p :     2.895689
      px      :     0.970376
      py      :     0.992097
      dz2     :     0.052374  d :     0.367366
      dxz     :     0.071790
      dyz     :     0.051830
      dx2y2   :     0.100542
      dxy     :     0.090829

  4 C s       :     0.800335  s :     0.800335
      pz      :     0.915515  p :     2.923741
      px      :     1.022401
      py      :     0.985824
      dz2     :     0.041381  d :     0.294965
      dxz     :     0.060096
      dyz     :     0.034337
      dx2y2   :     0.061066
      dxy     :     0.098085

  5 C s       :     0.801990  s :     0.801990
      pz      :     0.928695  p :     2.934713
      px      :     1.016244
      py      :     0.989774
      dz2     :     0.025380  d :     0.299922
      dxz     :     0.063081
      dyz     :     0.042472
      dx2y2   :     0.085436
      dxy     :     0.083553

  6 C s       :     0.809281  s :     0.809281
      pz      :     0.966318  p :     2.883252
      px      :     1.007575
      py      :     0.909358
      dz2     :     0.046767  d :     0.305687
      dxz     :     0.073616
      dyz     :     0.042829
      dx2y2   :     0.075018
      dxy     :     0.067457

  7 C s       :     0.813611  s :     0.813611
      pz      :     0.999839  p :     2.953269
      px      :     1.001225
      py      :     0.952205
      dz2     :     0.049626  d :     0.278681
      dxz     :     0.064337
      dyz     :     0.041750
      dx2y2   :     0.071050
      dxy     :     0.051918

  8 C s       :     0.821564  s :     0.821564
      pz      :     0.899447  p :     2.649656
      px      :     0.955083
      py      :     0.795127
      dz2     :     0.086572  d :     0.489797
      dxz     :     0.107030
      dyz     :     0.072561
      dx2y2   :     0.126437
      dxy     :     0.097196

  9 O s       :     1.569276  s :     1.569276
      pz      :     1.531837  p :     4.535615
      px      :     1.596841
      py      :     1.406937
      dz2     :     0.011028  d :     0.069802
      dxz     :     0.017865
      dyz     :     0.008838
      dx2y2   :     0.016022
      dxy     :     0.016049

 10 H s       :     0.802286  s :     0.802286
      pz      :     0.042776  p :     0.149093
      px      :     0.068826
      py      :     0.037491

 11 H s       :     0.802419  s :     0.802419
      pz      :     0.044131  p :     0.149143
      px      :     0.050927
      py      :     0.054085

 12 H s       :     0.802827  s :     0.802827
      pz      :     0.052678  p :     0.149302
      px      :     0.037494
      py      :     0.059131

 13 H s       :     0.800546  s :     0.800546
      pz      :     0.043537  p :     0.152145
      px      :     0.053015
      py      :     0.055593

 14 H s       :     0.801892  s :     0.801892
      pz      :     0.052024  p :     0.148808
      px      :     0.037961
      py      :     0.058822

 15 H s       :     0.800430  s :     0.800430
      pz      :     0.059702  p :     0.147124
      px      :     0.035489
      py      :     0.051933

 16 H s       :     0.799298  s :     0.799298
      pz      :     0.062420  p :     0.148977
      px      :     0.033792
      py      :     0.052765

 17 H s       :     0.827612  s :     0.827612
      pz      :     0.061511  p :     0.136186
      px      :     0.030158
      py      :     0.044517



                      *****************************
                      * MAYER POPULATION ANALYSIS *
                      *****************************

  NA   - Mulliken gross atomic population
  ZA   - Total nuclear charge
  QA   - Mulliken gross atomic charge
  VA   - Mayer's total valence
  BVA  - Mayer's bonded valence
  FA   - Mayer's free valence

  ATOM       NA         ZA         QA         VA         BVA        FA
  0 C      4.0073     4.0000    -0.0073     4.0706     4.0706     0.0000
  1 C      4.0052     4.0000    -0.0052     4.0814     4.0814     0.0000
  2 C      3.9937     4.0000     0.0063     4.0623     4.0623     0.0000
  3 C      4.0773     4.0000    -0.0773     4.1753     4.1753     0.0000
  4 C      4.0008     4.0000    -0.0008     4.0924     4.0924    -0.0000
  5 C      4.0071     4.0000    -0.0071     4.0807     4.0807     0.0000
  6 C      3.9860     4.0000     0.0140     4.0183     4.0183     0.0000
  7 C      3.9708     4.0000     0.0292     3.9663     3.9663    -0.0000
  8 C      3.8009     4.0000     0.1991     4.0234     4.0234    -0.0000
  9 O      6.3437     6.0000    -0.3437     1.9708     1.9708    -0.0000
 10 H      0.9756     1.0000     0.0244     1.0452     1.0452     0.0000
 11 H      0.9769     1.0000     0.0231     1.0459     1.0459     0.0000
 12 H      0.9773     1.0000     0.0227     1.0451     1.0451    -0.0000
 13 H      0.9725     1.0000     0.0275     1.0412     1.0412    -0.0000
 14 H      0.9764     1.0000     0.0236     1.0452     1.0452     0.0000
 15 H      0.9701     1.0000     0.0299     1.0443     1.0443     0.0000
 16 H      0.9633     1.0000     0.0367     1.0558     1.0558     0.0000
 17 H      0.9951     1.0000     0.0049     1.0464     1.0464    -0.0000

  Mayer bond orders larger than 0.100000
B(  0-C ,  1-C ) :   1.4465 B(  0-C ,  5-C ) :   1.4339 B(  0-C , 10-H ) :   0.9948 
B(  1-C ,  2-C ) :   1.4518 B(  1-C , 11-H ) :   0.9924 B(  2-C ,  3-C ) :   1.4091 
B(  2-C , 12-H ) :   0.9919 B(  3-C ,  4-C ) :   1.4181 B(  3-C ,  6-C ) :   1.1230 
B(  4-C ,  5-C ) :   1.4659 B(  4-C , 13-H ) :   0.9885 B(  5-C , 14-H ) :   0.9927 
B(  6-C ,  7-C ) :   1.7450 B(  6-C , 15-H ) :   0.9931 B(  7-C ,  8-C ) :   1.1089 
B(  7-C , 16-H ) :   0.9926 B(  8-C ,  9-O ) :   1.8297 B(  8-C , 17-H ) :   1.0178 


-------
TIMINGS
-------

Total SCF time: 0 days 0 hours 0 min 38 sec 

Total time                  ....      38.685 sec
Sum of individual times     ....      37.039 sec  ( 95.7%)

SCF preparation             ....       1.585 sec  (  4.1%)
Fock matrix formation       ....      34.152 sec  ( 88.3%)
  Startup                   ....       0.198 sec  (  0.6% of F)
  Split-RI-J                ....       1.145 sec  (  3.4% of F)
  Chain of spheres X        ....      13.158 sec  ( 38.5% of F)
  XC integration            ....      18.749 sec  ( 54.9% of F)
    XC Preparation          ....       0.000 sec  (  0.0% of XC)
    Basis function eval.    ....       0.358 sec  (  1.9% of XC)
    Density eval.           ....       0.131 sec  (  0.7% of XC)
    XC-Functional eval.     ....       0.156 sec  (  0.8% of XC)
    XC-Potential eval.      ....       0.197 sec  (  1.1% of XC)
Diagonalization             ....       0.000 sec  (  0.0%)
Density matrix formation    ....       0.213 sec  (  0.6%)
Total Energy calculation    ....       0.250 sec  (  0.6%)
Population analysis         ....       0.080 sec  (  0.2%)
Orbital Transformation      ....       0.050 sec  (  0.1%)
Orbital Orthonormalization  ....       0.000 sec  (  0.0%)
DIIS solution               ....       0.510 sec  (  1.3%)
SOSCF solution              ....       0.198 sec  (  0.5%)
Finished LeanSCF after  38.8 sec

Maximum memory used throughout the entire LEANSCF-calculation: 24.8 MB


           ************************************************************
           *        Program running with 40 parallel MPI-processes    *
           *              working on a common directory               *
           ************************************************************

------------------------------------------------------------------------------
                         ORCA PROPERTY INTEGRAL CALCULATIONS
------------------------------------------------------------------------------

GBWName                                   ... ./output/_e_cinnamaldehyde/_e_cinnamaldehyde.gbw
Number of atoms                           ...     18
Number of basis functions                 ...    170
Max core memory                           ...   1024 MB

Dipole integrals                          ... YES
Quadrupole integrals                      ...  NO
Linear momentum integrals                 ...  NO
Angular momentum integrals                ...  NO
Higher moments length integrals           ...  NO
Higher moments velocity integrals         ...  NO
Kinetic energy integrals                  ...  NO
GIAO right hand sides                     ...  NO
GIAO dipole derivative integrals          ...  NO
SOC integrals                             ...  NO
EPR diamagnetic integrals (GIAO)          ...  NO
EPR gauge integrals                       ...  NO
Field gradient integrals                  ...  NO (   0 nuclei)
Spin-dipole/Fermi contact integrals       ...  NO (   0 nuclei)
Contact density integrals                 ...  NO (   0 nuclei)
Nucleus-orbit integrals                   ...  NO (   0 nuclei)
Geometric perturbations                   ...  NO (  18 nuclei)

Choice of electric origin   ... Center of mass
Position of electric origin ... (  0.6807, -0.1098, -0.1939) 
Choice of magnetic origin   ... GIAO
Position of magnetic origin ... (  0.0000,  0.0000,  0.0000) 

Calculating integrals                     ... Electric Dipole (Length)     done (  0.0 sec)

Property integrals calculated in   0.0 sec

Maximum memory used throughout the entire PROPINT-calculation: 12.0 MB


-------------------------------------------------------------------------------
                          DFT DISPERSION CORRECTION                            
                                                                               
                                DFTD4 V3.4.0                                   
-------------------------------------------------------------------------------
The wB97X-3c composite method is recognized
Using three-body term ABC
Active option DFTDOPT                   ...         5   

-------------------------   ----------------
Dispersion correction           -0.021930114
-------------------------   ----------------


-------------------------   --------------------
FINAL SINGLE POINT ENERGY       -72.091836907130
-------------------------   --------------------



           ************************************************************
           *        Program running with 40 parallel MPI-processes    *
           *              working on a common directory               *
           ************************************************************
------------------------------------------------------------------------------
                         ORCA SCF GRADIENT CALCULATION
------------------------------------------------------------------------------

Nuc. rep. gradient        (SHARK) ... done (  0.0 sec)
HCore & Overlap gradient  (SHARK) ... done (  0.0 sec)
ECP gradient              (SHARK) ... done (  0.2 sec)
Split-RIJ-J gradient      (SHARK) ... done (  0.3 sec)
COSX-gradient                     ... done (  3.4 sec)
XC gradient                       ... done (  1.1 sec)
Dispersion correction             ... done (  0.1 sec)

-------------------
DISPERSION GRADIENT
-------------------

   1   C   :   -0.000504775   -0.000039715    0.000134268
   2   C   :   -0.000435439    0.000339443   -0.000133860
   3   C   :   -0.000142964    0.000457706   -0.000289656
   4   C   :    0.000105175    0.000070428   -0.000113864
   5   C   :   -0.000042585   -0.000450299    0.000262165
   6   C   :   -0.000275953   -0.000406035    0.000319462
   7   C   :    0.000262871    0.000135369   -0.000221116
   8   C   :    0.000383511   -0.000035817    0.000031987
   9   C   :    0.000353325    0.000012595   -0.000057981
  10   O   :    0.000325286   -0.000068854    0.000053930
  11   H   :   -0.000142506   -0.000012358    0.000039711
  12   H   :   -0.000104053    0.000100711   -0.000044034
  13   H   :   -0.000025305    0.000155034   -0.000097130
  14   H   :    0.000003749   -0.000172815    0.000091084
  15   H   :   -0.000052374   -0.000113409    0.000085880
  16   H   :    0.000056930    0.000064039   -0.000105287
  17   H   :    0.000118328   -0.000045735    0.000074937
  18   H   :    0.000116780    0.000009713   -0.000030497

Difference to translation invariance:
           :    0.0000000000   -0.0000000000    0.0000000000

Difference to rotation invariance:
           :   -0.0000000000    0.0000000000    0.0000000000

Norm of the Dispersion gradient    ...    0.0015095988
RMS gradient                       ...    0.0002054304
MAX gradient                       ...    0.0005047752

------------------
CARTESIAN GRADIENT
------------------

   1   C   :   -0.009892202   -0.002270719    0.003458746
   2   C   :   -0.009488401    0.007738605   -0.003841129
   3   C   :    0.007126075    0.010946243   -0.008985466
   4   C   :    0.003506215   -0.000427444    0.004872920
   5   C   :    0.012451470   -0.010354809    0.003848639
   6   C   :   -0.008247144   -0.010141070    0.008047343
   7   C   :    0.005664854    0.006929613   -0.013681714
   8   C   :    0.001163395   -0.010583477    0.013682109
   9   C   :   -0.046932018    0.045897920   -0.055822491
  10   O   :    0.050608710   -0.032330691    0.037520706
  11   H   :   -0.000919582   -0.000047858    0.000392291
  12   H   :   -0.001032225    0.000604382   -0.000165811
  13   H   :   -0.001563768    0.001800632   -0.000634569
  14   H   :   -0.001954325   -0.001754411    0.001501616
  15   H   :   -0.001031054   -0.000648020    0.000809613
  16   H   :    0.002434572    0.000379719    0.000518922
  17   H   :   -0.004413058    0.000622216    0.000457493
  18   H   :    0.002518487   -0.006360832    0.008020784

Difference to translation invariance:
           :   -0.0000000000    0.0000000000   -0.0000000000

Difference to rotation invariance:
           :   -0.0000105423    0.0000678439    0.0001281605

Norm of the Cartesian gradient     ...    0.1193517914
RMS gradient                       ...    0.0162417216
MAX gradient                       ...    0.0558224909

-------
TIMINGS
-------

Total SCF gradient time     ....        5.144 sec

Densities                   ....       0.001 sec  (  0.0%)
One electron gradient       ....       0.028 sec  (  0.5%)
RI-J Coulomb gradient       ....       0.320 sec  (  6.2%)
COSX gradient               ....       3.403 sec  ( 66.2%)
XC gradient                 ....       1.077 sec  ( 20.9%)

Maximum memory used throughout the entire SCFGRAD-calculation: 31.8 MB
------------------------------------------------------------------------------
                         ORCA GEOMETRY RELAXATION STEP
------------------------------------------------------------------------------

Reading the OPT-File                    .... done
Getting information on internals        .... done
Copying old internal coords+grads       .... done
Making the new internal coordinates     .... (2022 redundants) done
Validating the new internal coordinates .... (2022 redundants) done
Calculating the B-matrix                .... done
Calculating the G,G- and P matrices     .... done
Transforming gradient to internals      .... done
Projecting the internal gradient        .... done
Number of atoms                         ....  18
Number of internal coordinates          ....  81
Current Energy                          ....   -72.091836907 Eh
Current gradient norm                   ....     0.119351791 Eh/bohr
Maximum allowed component of the step   ....  0.300
Current trust radius                    ....  0.300
Evaluating the initial hessian          ....  (Almloef) done
Projecting the Hessian                  .... done
Forming the augmented Hessian           .... done
Diagonalizing the augmented Hessian     .... done
Last element of RFO vector              ....  0.991533621
Lowest eigenvalues of augmented Hessian:
 -0.009844614  0.013346526  0.015063855  0.015065855  0.020439078
Length of the computed step             ....  0.130958966
The final length of the internal step   ....  0.130958966
Converting the step to Cartesian space:
 Initial RMS(Int)=    0.0145509962
Transforming coordinates:
 Iter   0:  RMS(Cart)=    0.0316055361 RMS(Int)=    1.2062884775
done
Storing new coordinates                 .... done

                                .--------------------.
          ----------------------|Geometry convergence|-------------------------
          Item                value                   Tolerance       Converged
          ---------------------------------------------------------------------
          RMS gradient        0.0094530666            0.0001000000      NO
          MAX gradient        0.0706050711            0.0003000000      NO
          RMS step            0.0145509962            0.0020000000      NO
          MAX step            0.0770214339            0.0040000000      NO
          ........................................................
          Max(Bonds)      0.0408      Max(Angles)    1.60
          Max(Dihed)        1.31      Max(Improp)    0.00
          ---------------------------------------------------------------------

The optimization has not yet converged - more geometry cycles are needed


    ---------------------------------------------------------------------------
                         Redundant Internal Coordinates
                            (Angstroem and degrees)

        Definition                    Value    dE/dq     Step     New-Value
    ----------------------------------------------------------------------------
     1. B(C   1,C   0)                1.3961  0.013485 -0.0114    1.3847   
     2. B(C   2,C   1)                1.3982  0.015157 -0.0130    1.3852   
     3. B(C   3,C   2)                1.4060  0.015161 -0.0135    1.3925   
     4. B(C   4,C   3)                1.4107  0.018972 -0.0172    1.3936   
     5. B(C   5,C   4)                1.3987  0.016949 -0.0146    1.3841   
     6. B(C   5,C   0)                1.3963  0.011100 -0.0094    1.3869   
     7. B(C   6,C   3)                1.4840  0.013677 -0.0160    1.4680   
     8. B(C   7,C   6)                1.3385  0.005259 -0.0036    1.3348   
     9. B(C   8,C   7)                1.4673  0.010153 -0.0112    1.4561   
    10. B(O   9,C   8)                1.2586  0.070605 -0.0408    1.2178   
    11. B(H  10,C   0)                1.0824  0.000990 -0.0014    1.0810   
    12. B(H  11,C   1)                1.0824  0.001149 -0.0016    1.0808   
    13. B(H  12,C   2)                1.0834  0.001316 -0.0018    1.0815   
    14. B(H  13,C   4)                1.0808  0.000466 -0.0006    1.0801   
    15. B(H  14,C   5)                1.0824  0.001264 -0.0018    1.0807   
    16. B(H  15,C   6)                1.0848  0.000272 -0.0004    1.0844   
    17. B(H  16,C   7)                1.0812  0.000597 -0.0008    1.0803   
    18. B(H  17,C   8)                1.0829 -0.009595  0.0134    1.0963   
    19. A(C   5,C   0,H  10)          120.02 -0.000747    0.09    120.11   
    20. A(C   1,C   0,H  10)          120.02 -0.000659    0.08    120.09   
    21. A(C   1,C   0,C   5)          119.96  0.001406   -0.17    119.80   
    22. A(C   0,C   1,C   2)          120.11  0.001232   -0.15    119.96   
    23. A(C   2,C   1,H  11)          119.96 -0.000236    0.01    119.97   
    24. A(C   0,C   1,H  11)          119.93 -0.000995    0.13    120.06   
    25. A(C   3,C   2,H  12)          120.45  0.002681   -0.41    120.04   
    26. A(C   1,C   2,C   3)          120.57 -0.001111    0.15    120.72   
    27. A(C   1,C   2,H  12)          118.97 -0.001568    0.26    119.23   
    28. A(C   2,C   3,C   6)          118.56 -0.001464    0.23    118.79   
    29. A(C   2,C   3,C   4)          118.80 -0.000549    0.05    118.85   
    30. A(C   4,C   3,C   6)          122.62  0.002001   -0.25    122.37   
    31. A(C   3,C   4,C   5)          120.34 -0.000389    0.03    120.38   
[...]
     34      -0.300257   0.055558  -0.248362   0.267547  -0.372135   0.187162
     35       0.189705  -0.034526   0.156133  -0.168409   0.234872  -0.118298
     36       0.245290   0.129750  -0.084910   0.063252  -0.065784   0.028669
     37       0.587910   0.308314  -0.200515   0.146520  -0.148759   0.065827
     38      -0.488045  -0.256094   0.166617  -0.121909   0.124001  -0.054795
     39       0.045987  -0.208791  -0.302423  -0.006322   0.340357   0.420639
     40      -0.046120   0.203914   0.295293   0.004865  -0.329012  -0.404043
     41       0.029580  -0.129960  -0.188246  -0.003007   0.209152   0.256516
     42       0.058602  -0.197119  -0.078051   0.137466  -0.006845  -0.158964
     43       0.139414  -0.469835  -0.194356   0.329612  -0.005835  -0.380017
     44      -0.116119   0.391285   0.161373  -0.274394   0.005459   0.316415
     45       0.010468   0.004451  -0.002782   0.003232   0.000683   0.003462
     46       0.033866   0.013947  -0.010216   0.005795  -0.001697   0.006459
     47      -0.026527  -0.010959   0.007917  -0.004784   0.001151  -0.005279
     48       0.000556  -0.011235  -0.050689  -0.071656  -0.030864  -0.021838
     49       0.009401  -0.095903  -0.426007  -0.590321  -0.246488  -0.168170
     50      -0.006965   0.072039   0.320223   0.444038   0.185607   0.126790
     51       0.000274   0.000196  -0.000592  -0.000875  -0.000673  -0.000389
     52       0.000925   0.000843  -0.001501  -0.001132  -0.001137   0.000044
     53      -0.000720  -0.000645   0.001208   0.000976   0.000935   0.000021


-----------
IR SPECTRUM
-----------

 Mode   freq       eps      Int      T**2         TX        TY        TZ
       cm**-1   L/(mol*cm) km/mol    a.u.
----------------------------------------------------------------------------
  6:     17.41   0.000681    3.44  0.012210  ( 0.016998  0.066454  0.086632)
  7:    104.97   0.000015    0.07  0.000043  ( 0.003197  0.000217 -0.005747)
  8:    116.00   0.000994    5.02  0.002675  ( 0.033365  0.028203 -0.027682)
  9:    165.91   0.002195   11.09  0.004129  (-0.008212 -0.038639 -0.050679)
 10:    309.67   0.001807    9.13  0.001821  ( 0.032986  0.018504 -0.019760)
 11:    328.93   0.000478    2.42  0.000453  ( 0.002623  0.012448  0.017077)
 12:    356.24   0.000528    2.67  0.000463  (-0.012263 -0.014224  0.010493)
 13:    415.95   0.000001    0.01  0.000001  ( 0.000882  0.000384  0.000328)
 14:    516.04   0.001179    5.96  0.000713  ( 0.003578  0.016539  0.020648)
 15:    601.30   0.002479   12.53  0.001287  ( 0.033215  0.007535 -0.011250)
 16:    630.55   0.001462    7.39  0.000723  (-0.026707  0.002662  0.001746)
 17:    645.52   0.000089    0.45  0.000043  ( 0.006189  0.001144 -0.001846)
 18:    713.87   0.007144   36.11  0.003123  (-0.006106 -0.034058 -0.043885)
 19:    774.79   0.010984   55.51  0.004424  ( 0.007026  0.040365  0.052398)
 20:    867.92   0.000051    0.26  0.000018  (-0.000612 -0.002346 -0.003538)
 21:    875.76   0.000031    0.16  0.000011  (-0.002798  0.001680 -0.000674)
 22:    882.80   0.000083    0.42  0.000029  (-0.000884 -0.002923 -0.004476)
 23:    958.92   0.000030    0.15  0.000010  ( 0.000578  0.001704  0.002569)
 24:   1014.96   0.000075    0.38  0.000023  (-0.000637 -0.002880 -0.003788)
 25:   1019.59   0.008589   43.41  0.002629  (-0.006054 -0.030379 -0.040857)
 26:   1035.72   0.000327    1.65  0.000099  (-0.001203 -0.005829 -0.007946)
 27:   1041.17   0.000181    0.91  0.000054  ( 0.007290 -0.000467 -0.000884)
 28:   1052.51   0.001920    9.70  0.000569  (-0.003041 -0.014126 -0.018987)
 29:   1081.43   0.000487    2.46  0.000141  (-0.011609 -0.001046  0.002189)
 30:   1131.73   0.001774    8.96  0.000489  ( 0.008652  0.015527 -0.013159)
 31:   1171.76   0.034619  174.95  0.009220  (-0.094448 -0.004225  0.016774)
 32:   1198.15   0.002328   11.76  0.000606  (-0.024470  0.001731  0.002109)
 33:   1227.94   0.000730    3.69  0.000185  ( 0.013258 -0.003091  0.000320)
 34:   1254.32   0.000248    1.26  0.000062  ( 0.000685  0.006271 -0.004692)
 35:   1301.96   0.001709    8.63  0.000410  ( 0.019397  0.002949 -0.004960)
 36:   1349.93   0.003277   16.56  0.000758  ( 0.027325 -0.002985 -0.001402)
 37:   1370.48   0.000840    4.25  0.000191  ( 0.004531  0.010159 -0.008222)
 38:   1390.23   0.000474    2.40  0.000106  ( 0.009991  0.001048 -0.002353)
 39:   1449.61   0.000022    0.11  0.000005  (-0.000563 -0.001692  0.001203)
 40:   1523.36   0.002269   11.47  0.000465  (-0.013784 -0.012119  0.011315)
 41:   1574.07   0.000843    4.26  0.000167  ( 0.012732  0.000528 -0.002159)
 42:   1692.28   0.001721    8.70  0.000317  (-0.017180  0.004587 -0.001060)
 43:   1718.45   0.000238    1.20  0.000043  (-0.006467 -0.000332  0.001131)
 44:   1760.49   0.020912  105.68  0.003707  (-0.060448  0.005813  0.004383)
 45:   1852.56   0.112741  569.75  0.018991  (-0.130720  0.041938 -0.012031)
 46:   3002.69   0.016309   82.42  0.001695  ( 0.018132  0.028492 -0.023546)
 47:   3210.81   0.001541    7.79  0.000150  (-0.006572 -0.007856  0.006700)
 48:   3247.70   0.000608    3.07  0.000058  (-0.005395 -0.003869  0.003787)
 49:   3255.26   0.000022    0.11  0.000002  (-0.000114 -0.001123  0.000892)
 50:   3264.08   0.000888    4.49  0.000085  ( 0.004752  0.006004 -0.005126)
 51:   3268.34   0.000433    2.19  0.000041  ( 0.001063 -0.005033  0.003861)
 52:   3276.26   0.001742    8.80  0.000166  (-0.009375  0.007561 -0.004564)
 53:   3282.23   0.001019    5.15  0.000097  ( 0.007474  0.004487 -0.004572)

* The epsilon (eps) is given for a Dirac delta lineshape.
** The dipole moment derivative (T) already includes vibrational overlap.

The first frequency considered to be a vibration is 6
The total number of vibrations considered is 48


--------------------------
THERMOCHEMISTRY AT 298.15K
--------------------------

Temperature         ...   298.15 K
Pressure            ...     1.00 atm
Total Mass          ...   132.16 AMU
Quasi RRHO          ...     True
Cut-Off Frequency   ...     1.00 cm^-1

Throughout the following assumptions are being made:
  (1) The electronic state is orbitally nondegenerate
  (2) There are no thermally accessible electronically excited states
  (3) Hindered rotations indicated by low frequency modes are not
      treated as such but are treated as vibrations and this may
      cause some error
  (4) All equations used are the standard statistical mechanics
      equations for an ideal gas
  (5) All vibrations are strictly harmonic

freq.      17.41  E(vib)   ...       0.57 
freq.     104.97  E(vib)   ...       0.46 
freq.     116.00  E(vib)   ...       0.44 
freq.     165.91  E(vib)   ...       0.39 
freq.     309.67  E(vib)   ...       0.26 
freq.     328.93  E(vib)   ...       0.24 
freq.     356.24  E(vib)   ...       0.22 
freq.     415.95  E(vib)   ...       0.18 
freq.     516.04  E(vib)   ...       0.13 
freq.     601.30  E(vib)   ...       0.10 
freq.     630.55  E(vib)   ...       0.09 
freq.     645.52  E(vib)   ...       0.09 
freq.     713.87  E(vib)   ...       0.07 
freq.     774.79  E(vib)   ...       0.05 
freq.     867.92  E(vib)   ...       0.04 
freq.     875.76  E(vib)   ...       0.04 
freq.     882.80  E(vib)   ...       0.04 
freq.     958.92  E(vib)   ...       0.03 
freq.    1014.96  E(vib)   ...       0.02 
freq.    1019.59  E(vib)   ...       0.02 
freq.    1035.72  E(vib)   ...       0.02 
freq.    1041.17  E(vib)   ...       0.02 
freq.    1052.51  E(vib)   ...       0.02 
freq.    1081.43  E(vib)   ...       0.02 
freq.    1131.73  E(vib)   ...       0.01 
freq.    1171.76  E(vib)   ...       0.01 
freq.    1198.15  E(vib)   ...       0.01 
freq.    1227.94  E(vib)   ...       0.01 
freq.    1254.32  E(vib)   ...       0.01 
freq.    1301.96  E(vib)   ...       0.01 
freq.    1349.93  E(vib)   ...       0.01 
freq.    1370.48  E(vib)   ...       0.01 
freq.    1390.23  E(vib)   ...       0.00 
freq.    1449.61  E(vib)   ...       0.00 
freq.    1523.36  E(vib)   ...       0.00 
freq.    1574.07  E(vib)   ...       0.00 
freq.    1692.28  E(vib)   ...       0.00 
freq.    1718.45  E(vib)   ...       0.00 
freq.    1760.49  E(vib)   ...       0.00 
freq.    1852.56  E(vib)   ...       0.00 
freq.    3002.69  E(vib)   ...       0.00 
freq.    3210.81  E(vib)   ...       0.00 
freq.    3247.70  E(vib)   ...       0.00 
freq.    3255.26  E(vib)   ...       0.00 
freq.    3264.08  E(vib)   ...       0.00 
freq.    3268.34  E(vib)   ...       0.00 
freq.    3276.26  E(vib)   ...       0.00 
freq.    3282.23  E(vib)   ...       0.00 

------------
INNER ENERGY
------------

The inner energy is: U= E(el) + E(ZPE) + E(vib) + E(rot) + E(trans)
    E(el)   - is the total energy from the electronic structure calculation
              = E(kin-el) + E(nuc-el) + E(el-el) + E(nuc-nuc)
    E(ZPE)  - the the zero temperature vibrational energy from the frequency calculation
    E(vib)  - the the finite temperature correction to E(ZPE) due to population
              of excited vibrational states
    E(rot)  - is the rotational thermal energy
    E(trans)- is the translational thermal energy

Summary of contributions to the inner energy U:
Electronic energy                ...    -72.09933905 Eh
Zero point energy                ...      0.14649215 Eh      91.93 kcal/mol
Thermal vibrational correction   ...      0.00579215 Eh       3.63 kcal/mol
Thermal rotational correction    ...      0.00141627 Eh       0.89 kcal/mol
Thermal translational correction ...      0.00141627 Eh       0.89 kcal/mol
-----------------------------------------------------------------------
Total thermal energy                    -71.94422221 Eh


Summary of corrections to the electronic energy:
(perhaps to be used in another calculation)
Total thermal correction                  0.00862469 Eh       5.41 kcal/mol
Non-thermal (ZPE) correction              0.14649215 Eh      91.93 kcal/mol
-----------------------------------------------------------------------
Total correction                          0.15511685 Eh      97.34 kcal/mol


--------
ENTHALPY
--------

The enthalpy is H = U + kB*T
                kB is Boltzmann's constant
Total thermal energy              ...    -71.94422221 Eh 
Thermal Enthalpy correction       ...      0.00094421 Eh       0.59 kcal/mol
-----------------------------------------------------------------------
Total Enthalpy                    ...    -71.94327800 Eh


Note: Only C1 symmetry has been detected, increase convergence thresholds 
      if your molecule has a higher symmetry. Symmetry factor of 1.0 is   
      used for the rotational entropy correction. 
 

Note: Rotational entropy computed according to Herzberg 
Infrared and Raman Spectra, Chapter V,1, Van Nostrand Reinhold, 1945 
Point Group:  C1, Symmetry Number:   1  
Rotational constants in cm-1:     0.165407     0.019517     0.017458 

Vibrational entropy computed according to the QRRHO of S. Grimme
Chem.Eur.J. 2012 18 9955 using a reference frequency of 100.0 cm-1


-------
ENTROPY
-------

The entropy contributions are T*S = T*(S(el)+S(vib)+S(rot)+S(trans))
     S(el)   - electronic entropy
     S(vib)  - vibrational entropy
     S(rot)  - rotational entropy
     S(trans)- translational entropy
The entropies will be listed as multiplied by the temperature to get
units of energy

Electronic entropy                ...      0.00000000 Eh      0.00 kcal/mol
Vibrational entropy               ...      0.01027493 Eh      6.45 kcal/mol
Rotational entropy                ...      0.01412965 Eh      8.87 kcal/mol
Translational entropy             ...      0.01926618 Eh     12.09 kcal/mol
-----------------------------------------------------------------------
Final entropy term                ...      0.04367076 Eh     27.40 kcal/mol

In case the symmetry of your molecule has not been determined correctly
or in case you have a reason to use a different symmetry number we print 
out the resulting rotational entropy values for sn=1,12:

 non-linear molecules -----------------------------------
|  sn= 1 | S(rot)=       0.01412965 Eh      8.87 kcal/mol|
|  sn= 2 | S(rot)=       0.01347519 Eh      8.46 kcal/mol|
|  sn= 3 | S(rot)=       0.01309236 Eh      8.22 kcal/mol|
|  sn= 4 | S(rot)=       0.01282074 Eh      8.05 kcal/mol|
|  sn= 5 | S(rot)=       0.01261005 Eh      7.91 kcal/mol|
|  sn= 6 | S(rot)=       0.01243790 Eh      7.80 kcal/mol|
|  sn= 7 | S(rot)=       0.01229236 Eh      7.71 kcal/mol|
|  sn= 8 | S(rot)=       0.01216628 Eh      7.63 kcal/mol|
|  sn= 9 | S(rot)=       0.01205507 Eh      7.56 kcal/mol|
|  sn=10 | S(rot)=       0.01195559 Eh      7.50 kcal/mol|
|  sn=11 | S(rot)=       0.01186560 Eh      7.45 kcal/mol|
|  sn=12 | S(rot)=       0.01178345 Eh      7.39 kcal/mol|
 linear molecules ---------------------------------------
|  Dinfh | S(rot)=       0.00914783 Eh      5.74 kcal/mol|
|  Cinfv | S(rot)=       0.00980229 Eh      6.15 kcal/mol|
 --------------------------------------------------------


-------------------
GIBBS FREE ENERGY
-------------------

The Gibbs free energy is G = H - T*S

Total enthalpy                    ...    -71.94327800 Eh 
Total entropy correction          ...     -0.04367076 Eh    -27.40 kcal/mol
-----------------------------------------------------------------------
Final Gibbs free energy         ...    -71.98694876 Eh

For completeness - the Gibbs free energy minus the electronic energy
G-E(el)                           ...      0.11239029 Eh     70.53 kcal/mol


Maximum memory used throughout the entire PROP-calculation: 69.9 MB

--------------------------------
SUGGESTED CITATIONS FOR THIS RUN
--------------------------------

Below you find a list of papers that are relevant to this ORCA run
We neither can nor want to force you to cite these papers, but we appreciate if you do
You receive ORCA, which is the product of decades of hard work by many enthusiastic individuals, for free
The only thing we kindly ask in return is that you cite our papers,
We deeply appreciate it, if you show your appreciation for ORCA by not just citing the generic ORCA reference.

Please note that relegating all ORCA citations to the supporting information does *not* help us.
SI sections are not indexed - citations you put there will not count into any citation statistics
But we need these citations in order to attract the funding resources that allow us to do what we are doing

Therefore, if you are a happy ORCA user, please consider citing a few of the papers listed below in the main body of your paper

In addition to the list printed below, the program has created the file ./output/_e_cinnamaldehyde/_e_cinnamaldehyde.bibtex that contains the list in bibtex format
You can import this file easily into all common literature databanks and citation aid programs


List of essential papers. We consider these as the minimum necessary citations

  1. Neese,F.
     Software update: the ORCA program system, version 5.0
     WIRES Comput. Molec. Sci., 2022 12(1)e1606
     doi.org/10.1002/wcms.1606
  2. Mueller,M.; Hansen,A.; Grimme,S.
     wB97X-3c: A composite range-separated hybrid DFT method with a molecule-optimized polarized valence double-zeta basis set
     J. Chem. Phys., 2023 158 014103
     doi.org/10.1063/5.0133026

List of papers to cite with high priority. The work reported in these papers was absolutely
necessary for this run to complete.
Our perspective: the developers of density functionals and basis sets usually get cited in chemistry papers
Good! But without the algorithms to do something with them, the functionals or basis sets would not do anything.
Hence, in our opinion, the algorithm design and method developments papers are equally worthy of getting cited

  1. Neese,F.
     An improvement of the resolution of the identity approximation for the formation of the Coulomb matrix
     J. Comp. Chem., 2003 24(14)1740-1747
     doi.org/10.1002/jcc.10318
  2. Neese,F.; Wennmohs,F.; Hansen,A.; Becker,U.
     Efficient, approximate and parallel Hartree-Fock and hybrid DFT calculations. A 'chain-of-spheres' algorithm for the Hartree-Fock exchange
     Chem. Phys., 2009 356(1-3)98-109
     doi.org/10.1016/j.chemphys.2008.10.036
  3. Bykov,D.; Petrenko,T.; Izsak,R.; Kossmann,S.; Becker,U.; Valeev,E.; Neese,F.
     Efficient implementation of the analytic second derivatives of Hartree-Fock and hybrid DFT energies: a detailed analysis of different approximations
     Molec. Phys., 2015 113 1961-1977
     doi.org/10.1080/00268976.2015.1025114
  4. Helmich-Paris,B.; de Souza,B.; Neese,F.; Izsák,R.
     An improved chain of spheres for exchange algorithm
     J. Chem. Phys., 2021 155 104109
     doi.org/doi: 10.1063/5.0058766.
  5. Neese,F.
     The SHARK Integral Generation and Digestion System
     J. Comp. Chem., 2022  1-16
     doi.org/10.1002/jcc.26942
  6. Caldeweyher,E.; Bannwarth,C.; Grimme,S.
     Extension of the D3 dispersion coefficient model
     J. Chem. Phys., 2017 147 034112
     doi.org/10.1063/1.4993215
  7. Caldeweyher,E.; Ehlert,S.; Hansen,A.; Neugebauer,H.; Spicher,S.; Bannwarth,C.; Grimme,S.
     A generally applicable atomic-charge dependent London dispersion correction
     J. Chem. Phys., 2019 150 154122
     doi.org/10.1063/1.5090222
  8. Caldeweyher,E.; Mewes,J.; Ehlert,S.; Grimme,S.
     Extension and evaluation of the D4 London-dispersion model for periodic systems
     Phys. Chem. Chem. Phys., 2020 22(16)8499-8512
     doi.org/10.1039/D0CP00502A
  9. Wittmann,L.; Gordiy,I.; Friede,M.; Helmich-Paris,B.; Grimme,S.; Hansen,A.; Bursch,M.
     Extension of the D3 and D4 London Dispersion Corrections to the full Actinides Series
     Phys. Chem. Chem. Phys., 2024 26(32)21379-21394
     doi.org/https://doi.org/10.1039/D4CP01514B 

List of suggested additional citations. These are papers that are important in the 'surrounding' of 
of this run, or papers that preceded the highly important papers. If you like your results we are grateful for a citation.

  1. Izsak,R.; Neese,F.
     An overlap fitted chain of spheres exchange method
     J. Chem. Phys., 2011 135 144105
     doi.org/10.1063/1.3646921
  2. Izsak,R.; Hansen,A.; Neese,F.
     The resolution of identity and chain of spheres approximations for the LPNO-CCSD singles Fock term
     Molec. Phys., 2012 110 2413-2417
     doi.org/10.1080/00268976.2012.687466
  3. Neese,F.
     The ORCA program system
     WIRES Comput. Molec. Sci., 2012 2(1)73-78
     doi.org/10.1002/wcms.81
  4. Izsak,R.; Neese,F.; Klopper,W.
     Robust fitting techniques in the chain of spheres approximation to the Fock exchange: The role of the complementary space
     J. Chem. Phys., 2013 139 
     doi.org/10.1063/1.4819264
  5. Neese,F.
     Software update: the ORCA program system, version 4.0
     WIRES Comput. Molec. Sci., 2018 8(1)1-6
     doi.org/10.1002/wcms.1327
  6. Neese,F.; Wennmohs,F.; Becker,U.; Riplinger,C.
     The ORCA quantum chemistry program package
     J. Chem. Phys., 2020 152 Art. No. L224108
     doi.org/10.1063/5.0004608

List of optional additional citations

  1. Neese,F.
     Approximate second-order SCF convergence for spin unrestricted wavefunctions
     Chem. Phys. Lett., 2000 325(1-3)93-98
     doi.org/10.1016/s0009-2614(00)00662-x

Timings for individual modules:

Sum of individual times          ...      681.179 sec (=  11.353 min)
Startup calculation              ...       46.157 sec (=   0.769 min)   6.8 %
SCF iterations                   ...      455.539 sec (=   7.592 min)  66.9 %
Property integrals               ...       29.059 sec (=   0.484 min)   4.3 %
SCF Response                     ...       23.185 sec (=   0.386 min)   3.4 %
Property calculations            ...       46.329 sec (=   0.772 min)   6.8 %
SCF Gradient evaluation          ...       80.726 sec (=   1.345 min)  11.9 %
Geometry relaxation              ...        0.182 sec (=   0.003 min)   0.0 %
                             ****ORCA TERMINATED NORMALLY****
TOTAL RUN TIME: 0 days 0 hours 11 minutes 28 seconds 403 msec
