
                                 *****************
                                 * O   R   C   A *
                                 *****************

                                            #,                                       
                                            ###                                      
                                            ####                                     
                                            #####                                    
                                            ######                                   
                                           ########,                                 
                                     ,,################,,,,,                         
                               ,,#################################,,                 
                          ,,##########################################,,             
                       ,#########################################, ''#####,          
                    ,#############################################,,   '####,        
                  ,##################################################,,,,####,       
                ,###########''''           ''''###############################       
              ,#####''   ,,,,##########,,,,          '''####'''          '####       
            ,##' ,,,,###########################,,,                        '##       
           ' ,,###''''                  '''############,,,                           
         ,,##''                                '''############,,,,        ,,,,,,###''
      ,#''                                            '''#######################'''  
     '                                                          ''''####''''         
             ,#######,   #######,   ,#######,      ##                                
            ,#'     '#,  ##    ##  ,#'     '#,    #''#        ,####,   ,####,        
            ##       ##  ##   ,#'  ##            #'  '#       #'       #'  '#        
            ##       ##  #######   ##           ,######,      #####,   #    #        
            '#,     ,#'  ##    ##  '#,     ,#' ,#      #,     #,   #   #,  ,#        
             '#######'   ##     ##  '#######'  #'      '#     '####' # '####'        



                #########################################################
                #                        -***-                          #
                #          Department of theory and spectroscopy        #
                #                                                       #
                #                      Frank Neese                      #
                #                                                       #
                #     Directorship, Architecture, Infrastructure        #
                #                    SHARK, DRIVERS                     #
                #        Core code/Algorithms in most modules           #
                #                                                       #
                #        Max Planck Institute fuer Kohlenforschung      #
                #                Kaiser Wilhelm Platz 1                 #
                #                 D-45470 Muelheim/Ruhr                 #
                #                      Germany                          #
                #                                                       #
                #                  All rights reserved                  #
                #                        -***-                          #
                #########################################################


                         Program Version 6.0.1  -  RELEASE   -


 With contributions from (in alphabetic order):
[Max-Planck-Institut fuer Kohlenforschung]                               
  Daniel Aravena         : Magnetic Suceptibility                        
  Michael Atanasov       : Ab Initio Ligand Field Theory (pilot matlab implementation)
  Alexander A. Auer      : GIAO ZORA, VPT2 properties, NMR spectrum      
  Ute Becker             : All parallelization in ORCA, NUMFREQ, NUMCALC 
  Giovanni Bistoni       : ED, misc. LED, open-shell LED, HFLD           
  Martin Brehm           : Molecular dynamics                            
  Dmytro Bykov           : pre 5.0 version of the SCF Hessian            
  Marcos Casanova-Páez   : Triplet and SCS-CIS(D). UHF-(DLPNO)-IP/EA/STEOM-CCSD. UHF-CVS-IP/STEOM-CCSD   
  Vijay G. Chilkuri      : MRCI spin determinant printing, contributions to CSF-ICE 
  Pauline Colinet        : FMM embedding                                 
  Dipayan Datta          : RHF DLPNO-CCSD density                        
  Achintya Kumar Dutta   : EOM-CC, STEOM-CC                              
  Nicolas Foglia         : Exact transition moments, OPA infrastructure, MCD improvements    
  Dmitry Ganyushin       : Spin-Orbit,Spin-Spin,Magnetic field MRCI      
  Miquel Garcia-Rates    : C-PCM and meta-GGA Hessian, CCSD/C-PCM, Gaussian charge scheme 
  Tiago L. C. Gouveia    : GS-ROHF, GS-ROCIS                             
  Yang Guo               : DLPNO-NEVPT2, F12-NEVPT2, CIM, IAO-localization        
  Andreas Hansen         : Spin unrestricted coupled pair/coupled cluster methods 
  Ingolf Harden          : AUTO-CI MPn and infrastructure                
  Benjamin Helmich-Paris : MC-RPA, TRAH-(SCF,CASSCF), AVAS, COSX integrals, SCF dyn. polar. 
  Lee Huntington         : MR-EOM, pCC                                   
  Robert Izsak           : Overlap fitted RIJCOSX, COSX-SCS-MP3, EOM     
  Riya Kayal             : Wick's Theorem for AUTO-CI, AUTO-CI UHF-CCSDT 
  Emily Kempfer          : AUTO-CI, RHF CISDT and CCSDT                  
  Christian Kollmar      : KDIIS, OOCD, Brueckner-CCSD(T), CCSD density, CASPT2, CASPT2-K, improved NEVPT2 
  Axel Koslowski         : Symmetry handling                             
  Simone Kossmann        : meta-GGA functionals, TD-DFT gradient, OOMP2, (MP2 Hessian; deprecated post 5.0) 
  Lucas Lang             : DCDCAS                                        
  Marvin Lechner         : AUTO-CI (C++ implementation), FIC-MRCC        
  Spencer Leger          : CASSCF response                               
  Dagmar Lenk            : GEPOL surface, SMD, ORCA-2-JSON               
  Dimitrios Liakos       : Extrapolation schemes; Compound Job, initial MDCI parallelization 
  Dimitrios Manganas     : Further ROCIS development; embedding schemes. LFT, Crystal Embedding 
  Dimitrios Pantazis     : SARC Basis sets                               
  Anastasios Papadopoulos: AUTO-CI, single reference methods and gradients 
  Taras Petrenko         : pre 6.0 DFT Hessian and TD-DFT gradient, (ASA, deprecated), ECA, 1-Electron XAS/XES, NRVS 
  Peter Pinski           : DLPNO-MP2, DLPNO-MP2 Gradient                 
  Christoph Reimann      : Effective Core Potentials                     
  Marius Retegan         : Local ZFS, SOC                                
  Christoph Riplinger    : Optimizer, TS searches, QM/MM, DLPNO-CCSD(T), (RO)-DLPNO pert. Triples 
  Michael Roemelt        : Original ROCIS implementation                 
  Masaaki Saitow         : Open-shell DLPNO-CCSD energy and density      
  Barbara Sandhoefer     : DKH picture change effects                    
  Kantharuban Sivalingam : CASSCF convergence/infrastructure, NEVPT2 and variants, FIC-MRCI 
  Bernardo de Souza      : ESD, SOC TD-DFT                               
  Georgi L. Stoychev     : AutoAux, RI-MP2 NMR, DLPNO-MP2 response, X2C  
  Van Anh Tran           : RI-MP2 g-tensors                              
  Willem Van den Heuvel  : Paramagnetic NMR                              
  Zikuan Wang            : NOTCH, Electric field optimization            
  Frank Wennmohs         : Technical directorship and infrastructure     
  Hang Xu                : AUTO-CI-Response properties                   
                                                                         
[FACCTs GmbH]                                                            
  Markus Bursch, Miquel Garcia-Rates, Christoph Riplinger, Bernardo de Souza, Georgi L. Stoychev 
                                                                 
  APM, Basis sets (HGBS, AHGBS, def-TZVP (Ac-Lr), def2-XVPD (La-Lu)), CI-OPT, improved COSX, DLPNO-Multilevel,           
  DOCKER, DRACO, updates on ESD, GOAT, IRC, LR-CPCM, MBIS, meta-GGA TD-DFT gradient, ML-optimized integration grids, 
  MM, NACMEs, nearIR, NEB, NEB-TS, NL-DFT gradient (VV10), 2- and 3-layer-ONIOM, interface openCOSMO-RS, QMMM,   
  Crystal-QMMM, SF, symmetry and pop. for TD-DFT, r2SCAN hybrids, SOLVATOR                                   
                                                                         
[Other institutions]                                                     
  V. Asgeirsson          : NEB                                           
  Christoph Bannwarth    : sTDA-DFT, sTD-DFT, PBEh-3c, B97-3c, D3        
  Sebastian Ehlert       : rSCAN, r2SCAN, r2SCAN-3c, D4, dhf basis sets  
  Marvin Friede          : D4 for Fr, Ra, Ac-Lr                          
  Lars Goerigk           : TD-DFT with DH, B97 family of functionals     
  Stefan Grimme          : VdW corrections, initial TS optimization, DFT functionals, gCP, sTDA/sTD-DF 
  Waldemar Hujo          : DFT-NL                                        
  H. Jonsson             : NEB                                           
  Holger Kruse           : gCP                                           
  Marcel Mueller         : wB97X-3c, vDZP basis set                      
  Hagen Neugebauer       : wr2SCAN                                       
  Tobias Risthaus        : range-separated hybrid DFT                    
  Lukas Wittmann         : regularized MP2, r2SCAN double-hybrids, wr2SCAN        
                                                                         
We gratefully acknowledge several colleagues who have allowed us to      
interface, adapt or use parts of their codes:                            
  Ed Valeev, F. Pavosevic, A. Kumar             : LibInt (2-el integral package), F12 methods 
  Garnet Chan, S. Sharma, J. Yang, R. Olivares  : DMRG                   
  Ulf Ekstrom                                   : XCFun DFT Library      
  Mihaly Kallay                                 : mrcc  (arbitrary order and MRCC methods)
  Frank Weinhold                                : gennbo (NPA and NBO analysis)           
  Simon Mueller                                 : openCOSMO-RS                            
  Christopher J. Cramer and Donald G. Truhlar   : smd solvation model                     
  S Lehtola, MJT Oliveira, MAL Marques          : LibXC Library                           
  Liviu Ungur et al                             : ANISO software                          


 Your calculation uses the libint2 library for the computation of 2-el integrals
 For citations please refer to: http://libint.valeyev.net

 Your ORCA version has been built with support for libXC version: 6.2.2
 For citations please refer to: https://libxc.gitlab.io

 This ORCA versions uses:
   CBLAS   interface :  Fast vector & matrix operations
   LAPACKE interface :  Fast linear algebra routines
   SCALAPACK package :  Parallel linear algebra routines
   Shared memory     :  Shared parallel matrices
   BLAS/LAPACK       :  OpenBLAS 0.3.27  USE64BITINT DYNAMIC_ARCH NO_AFFINITY SkylakeX SINGLE_THREADED
        Core in use  :  SkylakeX
   Copyright (c) 2011-2014, The OpenBLAS Project


Your calculation utilizes the atom-pairwise dispersion correction
based on EEQ partial charges (D4)


================================================================================

cite the ECPs for C  [vDZP-ECP], O  [vDZP-ECP] as follows:
   B-Ne (ecp-2-mwb), Al-Ar (ecp-10-mwb), Ga-Kr (ecp-28-mwb), Y-Cd (ecp-28-mwb), In-Xe (ecp-46-mwb):
     A. Bergner, M. Dolg, W. Küchle, H. Stoll, and H. Preuß, Mol. Phys. 80, 1431 (1993)., T. Leininger, A. Berning, A. Nicklass, H. Stoll, H.-J. Werner, and H.-J.Flad, Chem. Phys. 217, 19 (1997).
   Na-Mg, K-Ca, Rb-Sr, Cs-Ba (CRENBL):
     L. Fernandez Pacios and P. A. Christiansen, J. Chem. Phys. 82, 2664 (1985)., M. M. Hurley, L. F. Pacios, P. A. Christiansen, R. B. Ross, and W. C. Ermler, J. Chem. Phys. 84, 6840 (1986)., L. A. LaJohn, P. A. Christiansen, R. B. Ross, T. Atashroo, and W. C. Ermler, J. Chem. Phys. 87, 2812 (1987)., R. B. Ross, J. M. Powers, T. Atashroo, W. C. Ermler, L. A. LaJohn, and P. A. Christiansen, J. Chem. Phys. 93, 6654 (1990). 
   Sc-Zn (ecp-10-mdf):
     M. Dolg, U. Wedig, H. Stoll, and H. Preuss, J. Chem. Phys. 86, 866 (1986). 
   Y-Cd (ecp-28-mwb), Hf-Hg (ecp-60-mwb):
     D. Andrae, U. Häußermann, M. Dolg, H. Stoll, and H. Preuß, Theor. Chim. Acta 77, 123 (1990). 
   La (ecp-46-mwb):
     M. Dolg, H. Stoll, and H. Preuss, J. Chem. Phys. 90, 1730 (1989)., M. Dolg, H. Stoll, and H. Preuss, Theor. Chim. Acta 85, 441 (1993).
   Ce-Lu (SBKJC-ecp):
     T. R. Cundari and W. J. Stevens, J. Chem. Phys. 98, 5555 (1993).
   Tl-Rn (ecp-78-mwb):
     W. Küchle, M. Dolg, H. Stoll, and H. Preuss, Mol. Phys. 74, 1245 (1991).

ECP parameters for C  [vDZP-ECP], O  [vDZP-ECP] have been obtained from:
MM, AH, SG, J. Chem. Phys. 158, 014103 (2023), 10.1063/5.0133026

----- Orbital basis set information -----
Your calculation utilizes the basis: vDZP
   Marcel Mueller, Andreas Hansen, Stefan Grimme 
   J. Chem. Phys. 158, 014103 (2023). DOI: 10.1063/5.0133026

----- AuxJ basis set information -----
Your calculation utilizes the auxiliary basis: def2/J
   F. Weigend, Phys. Chem. Chem. Phys. 8, 1057 (2006).

================================================================================
                                        WARNINGS
                       Please study these warnings very carefully!
================================================================================

WARNING: Frozen-Core approximation turned on, but there are no core electrons.
  ===> : Turning off frozen-core approximation


WARNING: Geometry Optimization
  ===> : Switching off AutoStart
         For restart on a previous wavefunction, please use MOREAD

================================================================================
                                       INPUT FILE
================================================================================
NAME = ./output/camphor/camphor.inp
|  1> ! wB97X-3c OPT FREQ TightSCF
|  2> %pal
|  3>   nprocs 40
|  4> end
|  5> * xyz 0 1
|  6> C      1.453772    -1.298021    -0.690465
|  7> C      0.761325    -0.112602     0.046909
|  8> C      0.434189     1.089945    -0.870906
|  9> C     -0.605550     0.492374    -1.858980
| 10> C     -1.410189    -0.486028    -0.967146
| 11> C     -0.722973    -0.332129     0.410949
| 12> C     -1.103062     1.051031     0.878168
| 13> O     -1.945533     1.317796     1.721161
| 14> C     -0.350939     2.055176     0.060550
| 15> C     -1.023250    -1.457490     1.407657
| 16> C      1.680469     0.254133     1.253327
| 17> H      1.610304    -2.146060     0.009506
| 18> H      2.447337    -0.973716    -1.067176
| 19> H      0.892360    -1.700057    -1.553491
| 20> H      1.311524     1.557287    -1.367419
| 21> H     -0.104140    -0.038287    -2.695999
| 22> H     -1.263038     1.273885    -2.299005
| 23> H     -2.485657    -0.201422    -0.925053
| 24> H     -1.343330    -1.527547    -1.348577
| 25> H     -1.039990     2.726228    -0.496472
| 26> H      0.329116     2.664515     0.692158
| 27> H     -2.117473    -1.523403     1.585771
| 28> H     -0.516937    -1.263811     2.376575
| 29> H     -0.672703    -2.431480     1.007027
| 30> H      1.233083     0.981874     1.958997
| 31> H      1.914856    -0.653099     1.850197
| 32> H      2.636427     0.680909     0.881739
| 33> *
| 34> 
| 35>                          ****END OF INPUT****
================================================================================

                       *****************************
                       * Geometry Optimization Run *
                       *****************************

Geometry optimization settings:
Update method            Update   .... BFGS
Choice of coordinates    CoordSys .... (2022) Redundant Internals
Initial Hessian          InHess   .... Almloef's Model
Max. no of cycles        MaxIter  .... 81

Convergence Tolerances:
Energy Change            TolE     ....  5.0000e-06 Eh
Max. Gradient            TolMAXG  ....  3.0000e-04 Eh/bohr
RMS Gradient             TolRMSG  ....  1.0000e-04 Eh/bohr
Max. Displacement        TolMAXD  ....  4.0000e-03 bohr
RMS Displacement         TolRMSD  ....  2.0000e-03 bohr
Strict Convergence                .... False

------------------------------------------------------------------------------
                        ORCA OPTIMIZATION COORDINATE SETUP
------------------------------------------------------------------------------

The optimization will be done in redundant internal coordinates (2022)
Making redundant internal coordinates   ...  (2022 redundants) done
Evaluating the initial hessian          ...  (Almloef) done
Evaluating the coordinates              ...  done
Calculating the B-matrix                .... done
Calculating the G-matrix                .... done
Diagonalizing the G-matrix              .... done
The first mode is                       ....   74
The number of degrees of freedom        ....   75

    -----------------------------------------------------------------
                    Redundant Internal Coordinates


    -----------------------------------------------------------------
         Definition                    Initial Value    Approx d2E/dq
    -----------------------------------------------------------------
      1. B(C   1,C   0)                  1.5583         0.336639   
      2. B(C   2,C   1)                  1.5477         0.349996   
      3. B(C   3,C   2)                  1.5538         0.342241   
      4. B(C   4,C   3)                  1.5492         0.348107   
      5. B(C   5,C   4)                  1.5476         0.350172   
      6. B(C   5,C   1)                  1.5440         0.354880   
      7. B(C   6,C   5)                  1.5086         0.404120   
      8. B(O   7,C   6)                  1.2213         1.040006   
      9. B(C   8,C   6)                  1.4975         0.420954   
     10. B(C   8,C   2)                  1.5543         0.341728   
     11. B(C   9,C   5)                  1.5330         0.369506   
     12. B(C  10,C   1)                  1.5604         0.334133   
     13. B(H  11,C   0)                  1.1107         0.333744   
     14. B(H  12,C   0)                  1.1110         0.333400   
     15. B(H  13,C   0)                  1.1053         0.340451   
     16. B(H  14,C   2)                  1.1111         0.333183   
     17. B(H  15,C   3)                  1.1107         0.333754   
     18. B(H  16,C   3)                  1.1121         0.332072   
     19. B(H  17,C   4)                  1.1133         0.330577   
     20. B(H  18,C   4)                  1.1112         0.333144   
     21. B(H  19,C   8)                  1.1115         0.332784   
     22. B(H  20,C   8)                  1.1103         0.334260   
     23. B(H  21,C   9)                  1.1106         0.333876   
     24. B(H  22,C   9)                  1.1103         0.334278   
     25. B(H  23,C   9)                  1.1100         0.334622   
     26. B(H  24,C  10)                  1.1080         0.337021   
     27. B(H  25,C  10)                  1.1110         0.333397   
     28. B(H  26,C  10)                  1.1109         0.333502   
     29. A(C   1,C   0,H  11)          110.1957         0.314919   
     30. A(H  12,C   0,H  13)          107.1982         0.284847   
     31. A(C   1,C   0,H  13)          114.8640         0.315938   
     32. A(H  11,C   0,H  13)          106.6153         0.284893   
     33. A(C   1,C   0,H  12)          109.6202         0.314866   
     34. A(H  11,C   0,H  12)          108.0916         0.283967   
     35. A(C   5,C   1,C  10)          114.6710         0.353419   
     36. A(C   0,C   1,C  10)          106.4324         0.350280   
     37. A(C   2,C   1,C  10)          113.6018         0.352591   
     38. A(C   2,C   1,C   5)           92.6994         0.356210   
     39. A(C   0,C   1,C   5)          115.5046         0.353867   
     40. A(C   0,C   1,C   2)          113.8508         0.353037   
     41. A(C   8,C   2,H  14)          113.9190         0.315601   
     42. A(C   3,C   2,H  14)          113.9501         0.315678   
     43. A(C   1,C   2,H  14)          115.1431         0.316830   
     44. A(C   3,C   2,C   8)          106.3737         0.352595   
     45. A(C   1,C   2,C   8)          103.5270         0.353935   
     46. A(C   1,C   2,C   3)          102.6921         0.354025   
     47. A(C   2,C   3,H  15)          111.1540         0.315766   
     48. A(C   2,C   3,C   4)          102.9650         0.353701   
     49. A(H  15,C   3,H  16)          107.7270         0.283793   
     50. A(C   4,C   3,H  16)          111.3787         0.316379   
     51. A(C   2,C   3,H  16)          112.1459         0.315506   
     52. A(C   4,C   3,H  15)          111.5036         0.316640   
     53. A(C   5,C   4,H  18)          111.8488         0.316850   
     54. A(C   3,C   4,C   5)          102.6607         0.355077   
     55. A(H  17,C   4,H  18)          108.1028         0.283513   
     56. A(C   3,C   4,H  18)          111.2904         0.316545   
     57. A(C   3,C   4,H  17)          111.2264         0.316147   
     58. A(C   5,C   4,H  17)          111.7079         0.316452   
     59. A(C   1,C   5,C   4)          103.3601         0.356240   
     60. A(C   6,C   5,C   9)          114.9827         0.367584   
     61. A(C   4,C   5,C   6)          104.7781         0.364216   
     62. A(C   4,C   5,C   9)          114.7702         0.358694   
     63. A(C   1,C   5,C   9)          116.4862         0.359511   
     64. A(C   1,C   5,C   6)          100.6536         0.365049   
     65. A(O   7,C   6,C   8)          125.2303         0.441451   
     66. A(C   5,C   6,C   8)          108.6118         0.375926   
     67. A(C   5,C   6,O   7)          126.0034         0.438210   
     68. A(C   2,C   8,C   6)           99.4678         0.365240   
     69. A(H  19,C   8,H  20)          109.4795         0.283954   
     70. A(C   6,C   8,H  20)          111.4105         0.326725   
     71. A(C   2,C   8,H  20)          111.8605         0.315766   
     72. A(C   6,C   8,H  19)          111.5369         0.326487   
     73. A(C   2,C   8,H  19)          112.8156         0.315539   
     74. A(H  22,C   9,H  23)          108.9074         0.284199   
     75. A(H  21,C   9,H  23)          108.4798         0.284146   
     76. A(C   5,C   9,H  23)          110.3425         0.319870   
     77. A(H  21,C   9,H  22)          108.6452         0.284101   
     78. A(C   5,C   9,H  22)          110.4886         0.319816   
     79. A(C   5,C   9,H  21)          109.9278         0.319753   
     80. A(H  25,C  10,H  26)          108.1725         0.283935   
     81. A(H  24,C  10,H  26)          107.9486         0.284413   
     82. A(C   1,C  10,H  26)          109.7901         0.314500   
     83. A(H  24,C  10,H  25)          106.2224         0.284399   
     84. A(C   1,C  10,H  25)          110.3484         0.314484   
     85. A(C   1,C  10,H  24)          114.1374         0.315036   
     86. D(C   2,C   1,C   0,H  13)    -56.5183         0.009193   
     87. D(C   5,C   1,C   0,H  12)    169.7674         0.009193   
     88. D(C   5,C   1,C   0,H  13)     49.0255         0.009193   
     89. D(C   2,C   1,C   0,H  11)   -176.9338         0.009193   
     90. D(C   5,C   1,C   0,H  11)    -71.3901         0.009193   
     91. D(C   2,C   1,C   0,H  12)     64.2236         0.009193   
     92. D(C   8,C   2,C   1,C   0)    175.0140         0.009869   
     93. D(C   8,C   2,C   1,C   5)     55.5316         0.009869   
     94. D(C   3,C   2,C   1,C   5)    -55.0407         0.009869   
     95. D(C   8,C   2,C   1,C  10)    -62.9331         0.009869   
     96. D(C   3,C   2,C   1,C   0)     64.4417         0.009869   
     97. D(C   3,C   2,C   1,C  10)   -173.5054         0.009869   
     98. D(C   4,C   3,C   2,C   1)     35.7484         0.009473   
     99. D(H  15,C   3,C   2,H  14)     41.4602         0.009473   
    100. D(H  15,C   3,C   2,C   8)    167.8237         0.009473   
    101. D(H  15,C   3,C   2,C   1)    -83.7509         0.009473   
    102. D(C   4,C   3,C   2,H  14)    160.9595         0.009473   
    103. D(C   4,C   3,C   2,C   8)    -72.6769         0.009473   
    104. D(H  17,C   4,C   3,C   2)    119.1750         0.009772   
    105. D(H  17,C   4,C   3,H  16)     -1.1920         0.009772   
    106. D(H  17,C   4,C   3,H  15)   -121.5682         0.009772   
    107. D(C   5,C   4,C   3,H  16)   -120.7916         0.009772   
    108. D(C   5,C   4,C   3,H  15)    118.8322         0.009772   
    109. D(C   5,C   4,C   3,C   2)     -0.4246         0.009772   
    110. D(C   6,C   5,C   1,C  10)     64.5553         0.010125   
    111. D(C   6,C   5,C   1,C   0)   -171.1085         0.010125   
    112. D(C   4,C   5,C   1,C  10)    172.7017         0.010125   
    113. D(C   6,C   5,C   1,C   2)    -53.0089         0.010125   
    114. D(C   4,C   5,C   1,C   2)     55.1376         0.010125   
    115. D(C   1,C   5,C   4,C   3)    -35.2230         0.009879   
    116. D(C   4,C   5,C   1,C   0)    -62.9621         0.010125   
    117. D(C   6,C   5,C   4,H  18)   -170.7951         0.009879   
    118. D(C   6,C   5,C   4,H  17)    -49.4663         0.009879   
    119. D(C   6,C   5,C   4,C   3)     69.7977         0.009879   
    120. D(C   1,C   5,C   4,H  18)     84.1843         0.009879   
    121. D(C   1,C   5,C   4,H  17)   -154.4869         0.009879   
    122. D(C   8,C   6,C   5,C   4)    -72.3469         0.012109   
    123. D(C   8,C   6,C   5,C   1)     34.6783         0.012109   
    124. D(O   7,C   6,C   5,C   9)    -23.6268         0.012109   
    125. D(O   7,C   6,C   5,C   4)    103.3117         0.012109   
    126. D(O   7,C   6,C   5,C   1)   -149.6631         0.012109   
    127. D(H  20,C   8,C   6,C   5)   -117.5834         0.013101   
    128. D(H  19,C   8,C   6,O   7)    -55.9553         0.013101   
    129. D(H  19,C   8,C   6,C   5)    119.7451         0.013101   
    130. D(C   2,C   8,C   6,O   7)   -175.1937         0.013101   
    131. D(C   2,C   8,C   6,C   5)      0.5068         0.013101   
    132. D(H  19,C   8,C   2,H  14)     80.0494         0.009447   
    133. D(H  19,C   8,C   2,C   3)    -46.3328         0.009447   
    134. D(H  19,C   8,C   2,C   1)   -154.1643         0.009447   
    135. D(C   6,C   8,C   2,H  14)   -161.6617         0.009447   
    136. D(C   6,C   8,C   2,C   3)     71.9561         0.009447   
    137. D(C   6,C   8,C   2,C   1)    -35.8754         0.009447   
    138. D(H  22,C   9,C   5,C   6)    -56.9437         0.010916   
    139. D(H  22,C   9,C   5,C   4)   -178.6067         0.010916   
    140. D(H  22,C   9,C   5,C   1)     60.4460         0.010916   
    141. D(H  21,C   9,C   5,C   6)     62.9571         0.010916   
    142. D(H  21,C   9,C   5,C   4)    -58.7058         0.010916   
    143. D(H  21,C   9,C   5,C   1)   -179.6532         0.010916   
    144. D(H  25,C  10,C   1,C   2)   -177.6408         0.009069   
    145. D(H  25,C  10,C   1,C   0)    -51.5601         0.009069   
    146. D(H  24,C  10,C   1,C   5)    -42.0660         0.009069   
    147. D(H  24,C  10,C   1,C   2)     62.8412         0.009069   
    148. D(H  24,C  10,C   1,C   0)   -171.0782         0.009069   
    149. D(H  25,C  10,C   1,C   5)     77.4520         0.009069   
    -----------------------------------------------------------------

Number of atoms                         .... 27
Number of degrees of freedom            .... 149


         *************************************************************
         *                GEOMETRY OPTIMIZATION CYCLE   1            *
         *************************************************************
---------------------------------
CARTESIAN COORDINATES (ANGSTROEM)
---------------------------------
  C      1.453772   -1.298021   -0.690465
  C      0.761325   -0.112602    0.046909
  C      0.434189    1.089945   -0.870906
  C     -0.605550    0.492374   -1.858980
  C     -1.410189   -0.486028   -0.967146
  C     -0.722973   -0.332129    0.410949
  C     -1.103062    1.051031    0.878168
  O     -1.945533    1.317796    1.721161
  C     -0.350939    2.055176    0.060550
  C     -1.023250   -1.457490    1.407657
  C      1.680469    0.254133    1.253327
  H      1.610304   -2.146060    0.009506
  H      2.447337   -0.973716   -1.067176
  H      0.892360   -1.700057   -1.553491
  H      1.311524    1.557287   -1.367419
  H     -0.104140   -0.038287   -2.695999
  H     -1.263038    1.273885   -2.299005
  H     -2.485657   -0.201422   -0.925053
  H     -1.343330   -1.527547   -1.348577
  H     -1.039990    2.726228   -0.496472
  H      0.329116    2.664515    0.692158
  H     -2.117473   -1.523403    1.585771
  H     -0.516937   -1.263811    2.376575
  H     -0.672703   -2.431480    1.007027
  H      1.233083    0.981874    1.958997
  H      1.914856   -0.653099    1.850197
  H      2.636427    0.680909    0.881739

----------------------------
CARTESIAN COORDINATES (A.U.)
----------------------------
  NO LB      ZA    FRAG     MASS         X           Y           Z
   0 C     4.0000*   0    12.011    2.747231   -2.452904   -1.304790
   1 C     4.0000*   0    12.011    1.438696   -0.212787    0.088645
   2 C     4.0000*   0    12.011    0.820498    2.059698   -1.645774
   3 C     4.0000*   0    12.011   -1.144324    0.930452   -3.512963
   4 C     4.0000*   0    12.011   -2.664871   -0.918460   -1.827641
   5 C     4.0000*   0    12.011   -1.366221   -0.627633    0.776581
   6 C     4.0000*   0    12.011   -2.084485    1.986161    1.659497
   7 O     6.0000*   0    15.999   -3.676525    2.490274    3.252523
   8 C     4.0000*   0    12.011   -0.663179    3.883720    0.114423
   9 C     4.0000*   0    12.011   -1.933662   -2.754257    2.660086
  10 C     4.0000*   0    12.011    3.175626    0.480242    2.368445
  11 H     1.0000    0     1.008    3.043034   -4.055466    0.017964
  12 H     1.0000    0     1.008    4.624797   -1.840057   -2.016670
  13 H     1.0000    0     1.008    1.686316   -3.212642   -2.935673
  14 H     1.0000    0     1.008    2.478421    2.942846   -2.584047
  15 H     1.0000    0     1.008   -0.196796   -0.072352   -5.094700
  16 H     1.0000    0     1.008   -2.386796    2.407294   -4.344490
  17 H     1.0000    0     1.008   -4.697211   -0.380632   -1.748097
  18 H     1.0000    0     1.008   -2.538526   -2.886645   -2.548441
  19 H     1.0000    0     1.008   -1.965296    5.151824   -0.938196
  20 H     1.0000    0     1.008    0.621939    5.035204    1.307989
  21 H     1.0000    0     1.008   -4.001444   -2.878814    2.996673
  22 H     1.0000    0     1.008   -0.976869   -2.388257    4.491076
  23 H     1.0000    0     1.008   -1.271224   -4.594831    1.903005
  24 H     1.0000    0     1.008    2.330189    1.855473    3.701968
  25 H     1.0000    0     1.008    3.618553   -1.234178    3.496366
  26 H     1.0000    0     1.008    4.982125    1.286732    1.666245
* core charge reduced due to ECP

--------------------------------
INTERNAL COORDINATES (ANGSTROEM)
--------------------------------
 C      0   0   0     0.000000000000     0.00000000     0.00000000
 C      1   0   0     1.558339330584     0.00000000     0.00000000
 C      2   1   0     1.547747273921   113.85080311     0.00000000
 C      3   2   1     1.553846362302   102.69209566    64.44170166
 C      4   3   2     1.549219893198   102.96501913    35.74839327
 C      2   1   3     1.543974668877   115.50460294   105.54374929
 C      6   2   1     1.508606253295   100.65361238   188.89148303
 O      7   6   2     1.221293637548   126.00343378   210.33693184
 C      7   6   2     1.497496371307   108.61181604    34.67833472
 C      6   2   1     1.532980917792   116.48623067    63.87014699
 C      2   1   3     1.560373238583   106.43238718   234.07000239
 H      1   2   3     1.110689791700   110.19570427   183.06616955
 H      1   2   3     1.110970890605   109.62015107    64.22363815
 H      1   2   3     1.105273837434   114.86396922   303.48174107
 H      3   2   1     1.111148237796   115.14311335   300.01397109
 H      4   3   2     1.110681723709   111.15395500   276.24906225
 H      4   3   2     1.112057513751   112.14588445   155.58708628
 H      5   4   3     1.113285145373   111.22644083   119.17496692
 H      5   4   3     1.111180255855   111.29036882   239.77960062
 H      9   7   6     1.111474505236   111.53694118   119.74511530
 H      9   7   6     1.110269105042   111.41046631   242.41659732
 H     10   6   2     1.110582322160   109.92780745   180.34682002
 H     10   6   2     1.110255150735   110.48858707    60.44595479
 H     10   6   2     1.109974826836   110.34246583   299.95067923
 H     11   2   1     1.108030389916   114.13738614   188.92182888
 H     11   2   1     1.110972980991   110.34836279   308.43985114
 H     11   2   1     1.110887525218   109.79010310    67.58116543

---------------------------
INTERNAL COORDINATES (A.U.)
---------------------------
 C      0   0   0     0.000000000000     0.00000000     0.00000000
 C      1   0   0     2.944834558523     0.00000000     0.00000000
 C      2   1   0     2.924818472234   113.85080311     0.00000000
 C      3   2   1     2.936344078940   102.69209566    64.44170166
 C      4   3   2     2.927601319367   102.96501913    35.74839327
 C      2   1   3     2.917689281889   115.50460294   105.54374929
 C      6   2   1     2.850852662649   100.65361238   188.89148303
 O      7   6   2     2.307910504066   126.00343378   210.33693184
 C      7   6   2     2.829858028311   108.61181604    34.67833472
 C      6   2   1     2.896914103154   116.48623067    63.87014699
 C      2   1   3     2.948678087621   106.43238718   234.07000239
 H      1   2   3     2.098899526055   110.19570427   183.06616955
 H      1   2   3     2.099430726001   109.62015107    64.22363815
 H      1   2   3     2.088664855738   114.86396922   303.48174107
 H      3   2   1     2.099765863624   115.14311335   300.01397109
 H      4   3   2     2.098884279762   111.15395500   276.24906225
 H      4   3   2     2.101484146159   112.14588445   155.58708628
 H      5   4   3     2.103804033718   111.22644083   119.17496692
 H      5   4   3     2.099826368987   111.29036882   239.77960062
 H      9   7   6     2.100382419731   111.53694118   119.74511530
 H      9   7   6     2.098104543483   111.41046631   242.41659732
 H     10   6   2     2.098696438056   109.92780745   180.34682002
 H     10   6   2     2.098078173665   110.48858707    60.44595479
 H     10   6   2     2.097548438266   110.34246583   299.95067923
 H     11   2   1     2.093873985003   114.13738614   188.92182888
 H     11   2   1     2.099434676260   110.34836279   308.43985114
 H     11   2   1     2.099273188251   109.79010310    67.58116543

---------------------
BASIS SET INFORMATION
---------------------
There are 3 groups of distinct atoms

 Group   1 Type C   : 6s6p2d contracted to 2s2p1d pattern {42/42/2}
 Group   2 Type O   : 6s6p2d contracted to 2s2p1d pattern {42/42/2}
 Group   3 Type H   : 8s2p contracted to 2s1p pattern {53/2}

Atom   0C    basis set group =>   1
Atom   1C    basis set group =>   1
Atom   2C    basis set group =>   1
Atom   3C    basis set group =>   1
Atom   4C    basis set group =>   1
Atom   5C    basis set group =>   1
Atom   6C    basis set group =>   1
Atom   7O    basis set group =>   2
Atom   8C    basis set group =>   1
Atom   9C    basis set group =>   1
Atom  10C    basis set group =>   1
Atom  11H    basis set group =>   3
Atom  12H    basis set group =>   3
Atom  13H    basis set group =>   3
Atom  14H    basis set group =>   3
Atom  15H    basis set group =>   3
Atom  16H    basis set group =>   3
Atom  17H    basis set group =>   3
Atom  18H    basis set group =>   3
Atom  19H    basis set group =>   3
Atom  20H    basis set group =>   3
Atom  21H    basis set group =>   3
Atom  22H    basis set group =>   3
Atom  23H    basis set group =>   3
Atom  24H    basis set group =>   3
Atom  25H    basis set group =>   3
Atom  26H    basis set group =>   3
---------------------------------
AUXILIARY/J BASIS SET INFORMATION
---------------------------------
There are 3 groups of distinct atoms

 Group   1 Type C   : 12s5p4d2f1g contracted to 6s4p3d1f1g pattern {711111/2111/211/2/1}
 Group   2 Type O   : 12s5p4d2f1g contracted to 6s4p3d1f1g pattern {711111/2111/211/2/1}
 Group   3 Type H   : 5s2p1d contracted to 3s1p1d pattern {311/2/1}

Atom   0C    basis set group =>   1
Atom   1C    basis set group =>   1
Atom   2C    basis set group =>   1
Atom   3C    basis set group =>   1
Atom   4C    basis set group =>   1
Atom   5C    basis set group =>   1
Atom   6C    basis set group =>   1
Atom   7O    basis set group =>   2
Atom   8C    basis set group =>   1
Atom   9C    basis set group =>   1
Atom  10C    basis set group =>   1
Atom  11H    basis set group =>   3
Atom  12H    basis set group =>   3
Atom  13H    basis set group =>   3
Atom  14H    basis set group =>   3
Atom  15H    basis set group =>   3
Atom  16H    basis set group =>   3
Atom  17H    basis set group =>   3
Atom  18H    basis set group =>   3
Atom  19H    basis set group =>   3
Atom  20H    basis set group =>   3
Atom  21H    basis set group =>   3
Atom  22H    basis set group =>   3
Atom  23H    basis set group =>   3
Atom  24H    basis set group =>   3
Atom  25H    basis set group =>   3
Atom  26H    basis set group =>   3
-------------------------
ECP PARAMETER INFORMATION
-------------------------

 Group 1, Type C  ECP vDZP-ECP (replacing 2 core electrons, lmax=3)
 Group 2, Type O  ECP vDZP-ECP (replacing 2 core electrons, lmax=3)

Atom   0C    ECP group =>   1
Atom   1C    ECP group =>   1
Atom   2C    ECP group =>   1
Atom   3C    ECP group =>   1
Atom   4C    ECP group =>   1
Atom   5C    ECP group =>   1
Atom   6C    ECP group =>   1
Atom   7O    ECP group =>   2
Atom   8C    ECP group =>   1
Atom   9C    ECP group =>   1
Atom  10C    ECP group =>   1



           ************************************************************
           *        Program running with 40 parallel MPI-processes    *
           *              working on a common directory               *
           ************************************************************
------------------------------------------------------------------------------
                             ORCA STARTUP CALCULATIONS
                           -- RI-GTO INTEGRALS CHOSEN --
------------------------------------------------------------------------------
------------------------------------------------------------------------------
                   ___                                                        
                  /   \      - P O W E R E D   B Y -                         
                 /     \                                                     
                 |  |  |   _    _      __       _____    __    __             
                 |  |  |  | |  | |    /  \     |  _  \  |  |  /  |          
                  \  \/   | |  | |   /    \    | | | |  |  | /  /          
                 / \  \   | |__| |  /  /\  \   | |_| |  |  |/  /          
                |  |  |   |  __  | /  /__\  \  |    /   |      \           
                |  |  |   | |  | | |   __   |  |    \   |  |\   \          
                \     /   | |  | | |  |  |  |  | |\  \  |  | \   \       
                 \___/    |_|  |_| |__|  |__|  |_| \__\ |__|  \__/        
                                                                              
                      - O R C A' S   B I G   F R I E N D -                    
                                      &                                       
                       - I N T E G R A L  F E E D E R -                       
                                                                              
 v1 FN, 2020, v2 2021, v3 2022-2024                                           
------------------------------------------------------------------------------


----------------------
SHARK INTEGRAL PACKAGE
----------------------

Number of atoms                             ...     27
Number of basis functions                   ...    223
Number of shells                            ...    103
Maximum angular momentum                    ...      2
Integral batch strategy                     ... SHARK/LIBINT Hybrid
RI-J (if used) integral strategy            ... SPLIT-RIJ (Revised 2003 algorithm where possible)
Printlevel                                  ...      1
Contraction scheme used                     ... SEGMENTED contraction
Prescreening option                         ... SCHWARTZ
   Thresh                                   ... 2.500e-11
   Tcut                                     ... 2.500e-12
   Tpresel                                  ... 2.500e-12 
Coulomb Range Separation                    ... NOT USED
Exchange Range Separation                   ... Long Range
   Mu parameter                             ... 3.000e-01
   Scaling (regular/separated)              ... 1.670e-01 8.330e-01
Multipole approximations                    ... NOT USED
Finite Nucleus Model                        ... NOT USED
CABS basis                                  ... NOT available
Auxiliary Coulomb fitting basis             ... AVAILABLE
   # of basis functions in Aux-J            ...    715
   # of shells in Aux-J                     ...    245
   Maximum angular momentum in Aux-J        ...      4
Auxiliary J/K fitting basis                 ... NOT available
Auxiliary Correlation fitting basis         ... NOT available
Auxiliary 'external' fitting basis          ... NOT available

Checking pre-screening integrals            ... done (  0.0 sec) Dimension = 103
Check shell pair data                       ... done (  0.0 sec)
Shell pair information
Shell pair cut-off parameter TPreSel        ...   2.5e-12
Total number of shell pairs                 ...      5356
Shell pairs after pre-screening             ...      5356
Total number of primitive shell pairs       ...     49844
Primitive shell pairs kept                  ...     42562
          la=0 lb=0:   1485 shell pairs
          la=1 lb=0:   2052 shell pairs
          la=1 lb=1:    741 shell pairs
          la=2 lb=0:    594 shell pairs
          la=2 lb=1:    418 shell pairs
          la=2 lb=2:     66 shell pairs

Calculating one electron integrals          ... done (  0.0 sec)
Calculating ECP integrals                   ... done (  0.1 sec)
Calculating RI/J V-Matrix + Cholesky decomp.... done (  0.0 sec)
Calculating Nuclear repulsion               ... done (  0.0 sec) ENN=    367.994398957747 Eh

Diagonalization of the overlap matrix:
Smallest eigenvalue                        ... 1.167e-03
Time for diagonalization                   ...    0.007 sec
Threshold for overlap eigenvalues          ... 1.000e-07
Number of eigenvalues below threshold      ... 0
Time for construction of square roots      ...    0.005 sec
Total time needed                          ...    0.015 sec

-------------------
DFT GRID GENERATION
-------------------

General Integration Accuracy     IntAcc      ... 4.388
Radial Grid Type                 RadialGrid  ... OptM3 with GC (2021)
Angular Grid (max. ang.)         AngularGrid ... 4 (Lebedev-302)
Angular grid pruning method      GridPruning ... 4 (adaptive)
Weight generation scheme         WeightScheme... mBecke (2022)
Basis function cutoff            BFCut       ... 1.0000e-11
Integration weight cutoff        WCut        ... 1.0000e-14
Partially contracted basis set               ... off
Rotationally invariant grid construction     ... off
Angular grids for H and He will be reduced by one unit

Total number of grid points                  ...   115986
Total number of batches                      ...     1824
Average number of points per batch           ...       63
Average number of grid points per atom       ...     4296

--------------------
COSX GRID GENERATION
--------------------

GRIDX 1
-------
General Integration Accuracy     IntAcc      ... 3.816
Radial Grid Type                 RadialGrid  ... OptM3 with GC (2021)
Angular Grid (max. ang.)         AngularGrid ... 1 (Lebedev-50)
Angular grid pruning method      GridPruning ... 4 (adaptive)
Weight generation scheme         WeightScheme... mBecke (2022)
Basis function cutoff            BFCut       ... 1.0000e-11
Integration weight cutoff        WCut        ... 1.0000e-14
Partially contracted basis set               ... on
Rotationally invariant grid construction     ... off
Angular grids for H and He will be reduced by one unit

Total number of grid points                  ...    14782
Total number of batches                      ...      132
Average number of points per batch           ...      111
Average number of grid points per atom       ...      547
UseSFitting                                  ... on

GRIDX 2
-------
General Integration Accuracy     IntAcc      ... 4.020
Radial Grid Type                 RadialGrid  ... OptM3 with GC (2021)
Angular Grid (max. ang.)         AngularGrid ... 2 (Lebedev-110)
Angular grid pruning method      GridPruning ... 4 (adaptive)
Weight generation scheme         WeightScheme... mBecke (2022)
Basis function cutoff            BFCut       ... 1.0000e-11
Integration weight cutoff        WCut        ... 1.0000e-14
Partially contracted basis set               ... on
Rotationally invariant grid construction     ... off
Angular grids for H and He will be reduced by one unit

Total number of grid points                  ...    30905
Total number of batches                      ...      256
Average number of points per batch           ...      120
Average number of grid points per atom       ...     1145
UseSFitting                                  ... on

GRIDX 3
-------
General Integration Accuracy     IntAcc      ... 4.338
Radial Grid Type                 RadialGrid  ... OptM3 with GC (2021)
Angular Grid (max. ang.)         AngularGrid ... 3 (Lebedev-194)
Angular grid pruning method      GridPruning ... 4 (adaptive)
Weight generation scheme         WeightScheme... mBecke (2022)
Basis function cutoff            BFCut       ... 1.0000e-11
Integration weight cutoff        WCut        ... 1.0000e-14
Partially contracted basis set               ... on
Rotationally invariant grid construction     ... off
Angular grids for H and He will be reduced by one unit

Total number of grid points                  ...    67290
Total number of batches                      ...      537
Average number of points per batch           ...      125
Average number of grid points per atom       ...     2492
UseSFitting                                  ... on
Initializing property integral containers    ... done (  0.0 sec)

SHARK setup successfully completed in   3.7 seconds

Maximum memory used throughout the entire STARTUP-calculation: 35.9 MB


           ************************************************************
           *        Program running with 40 parallel MPI-processes    *
           *              working on a common directory               *
           ************************************************************
-------------------------------------------------------------------------------
                                 ORCA GUESS
                   Start orbitals & Density for SCF / CASSCF
-------------------------------------------------------------------------------

------------
SCF SETTINGS
------------
Hamiltonian:
 Density Functional     Method          .... DFT(GTOs)
 Exchange Functional    Exchange        .... WB97X-V
 Correlation Functional Correlation     .... WB97X-V
 Gradients option       PostSCFGGA      .... off
 Hybrid DFT is turned on
   Fraction HF Exchange ScalHFX         ....  0.167000
   Scaling of DF-GGA-X  ScalDFX         ....  0.000000
   Scaling of DF-GGA-C  ScalDFC         ....  1.000000
   Scaling of DF-LDA-C  ScalLDAC        ....  1.000000
   Perturbative correction              ....  0.000000
 Long-range corrected/Screened/Range-Separated Hybrid DFT is turned on
   Amount of maximum screened exact exchange              ....  0.833000
   Range separation parameter mu (erf(mu*r12)/r12)        ....  0.300000
   NL short-range parameter             ....  6.000000
   NL long-range parameter              ....  0.010000
 RI-approximation to the Coulomb term is turned on
   Number of AuxJ basis functions       .... 715
   RIJ-COSX (HFX calculated with COS-X)).... on


General Settings:
 Integral files         IntName         .... ./output/camphor/camphor
 Hartree-Fock type      HFTyp           .... RHF
 Total Charge           Charge          ....    0
 Multiplicity           Mult            ....    1
 Number of Electrons    NEL             ....   62
 Basis Dimension        Dim             ....  223
 Nuclear Repulsion      ENuc            ....    367.9943989577 Eh

Convergence Acceleration:
 AO-DIIS                CNVDIIS         .... on
   Start iteration      DIISMaxIt       ....    12
   Startup error        DIISStart       ....  0.200000
   # of expansion vecs  DIISMaxEq       ....     5
   Bias factor          DIISBfac        ....   1.050
   Max. coefficient     DIISMaxC        ....  10.000
 MO-DIIS                CNVKDIIS        .... off
 Trust-Rad. Augm. Hess. CNVTRAH         .... auto
   Auto Start mean grad. ratio tolernc. ....  1.125000
   Auto Start start iteration           ....    50
   Auto Start num. interpolation iter.  ....    10
   Max. Number of Micro iterations      ....    24
   Max. Number of Macro iterations      .... Maxiter - #DIIS iter
   Number of Davidson start vectors     ....     2
   Converg. threshold    (grad. norm)   ....   1.000e-05
   Grad. Scal. Fac. for Micro threshold ....   0.100
   Minimum threshold for Micro iter.    ....   1.000e-02
   NR start threshold (gradient norm)   ....   1.000e-04
   Initial trust radius                 ....   0.400
   Minimum AH scaling param. (alpha)    ....   1.000
   Maximum AH scaling param. (alpha)    .... 1000.000
   Quad. conv. algorithm                .... NR
   White noise on init. David. guess    .... on
   Maximum white noise                  ....   0.010
   Pseudo random numbers                .... off
   Inactive MOs                         .... canonical
   Orbital update algorithm             .... Taylor
   Preconditioner                       .... Diag
   Full preconditioner red. dimension   ....   250
 SOSCF                  CNVSOSCF        .... on
   Start iteration      SOSCFMaxIt      ....   150
   Startup grad/error   SOSCFStart      ....  0.003300
   Hessian update       SOSCFHessUp     .... L-BFGS
 Level Shifting         CNVShift        .... on
   Level shift para.    LevelShift      ....    0.2500
   Turn off err/grad.   ShiftErr        ....    0.0010
 Zerner damping         CNVZerner       .... off
 Static damping         CNVDamp         .... on
   Fraction old density DampFac         ....    0.7000
   Max. Damping (<1)    DampMax         ....    0.9800
   Min. Damping (>=0)   DampMin         ....    0.0000
   Turn off err/grad.   DampErr         ....    0.1000

SCF Procedure:
 Maximum # iterations   MaxIter         ....   125
 SCF integral mode      SCFMode         .... Direct
   Integral package                     .... SHARK and LIBINT hybrid scheme
 Reset frequency        DirectResetFreq ....    20
 Integral Threshold     Thresh          ....  2.500e-11 Eh
 Primitive CutOff       TCut            ....  2.500e-12 Eh

Convergence Tolerance:
 Convergence Check Mode ConvCheckMode   .... Total+1el-Energy
 Convergence forced     ConvForced      .... 0
 Energy Change          TolE            ....  1.000e-08 Eh
 1-El. energy change                    ....  1.000e-05 Eh
 Orbital Gradient       TolG            ....  1.000e-05
 Orbital Rotation angle TolX            ....  1.000e-05
 DIIS Error             TolErr          ....  5.000e-07

------------------------------
INITIAL GUESS: MODEL POTENTIAL
------------------------------
Loading Hartree-Fock densities                     ... done
Atomic calculation to generate a density for atom 0 (C  with ECP)
  Multiplicity assumed   :    1
  Atomic configuration   : 1s2 2s2 2p2 
  Number of open shells  : 1
  Command: /home/aspe232/Project/Software/ORCA/6_0_1/build/orca ./output/camphor/camphor_atom6.inp "" > ./output/camphor/camphor_atom6.out
Returned from the atomic calculation with res=0
Atomic calculation to generate a density for atom 7 (O  with ECP)
  Multiplicity assumed   :    3
  Atomic configuration   : 1s2 2s2 2p4 
  Number of open shells  : 1
  Command: /home/aspe232/Project/Software/ORCA/6_0_1/build/orca ./output/camphor/camphor_atom8.inp "" > ./output/camphor/camphor_atom8.out
Returned from the atomic calculation with res=0
Calculating cut-offs                               ... done
Initializing the effective Hamiltonian             ... done
Setting up the integral package (SHARK)            ... done
Starting the Coulomb interaction                   ... done (   0.1 sec)
Making the grid                                    ... done (   0.8 sec)
Mapping shells                                     ... done
Starting the XC term evaluation                    ... done (   0.0 sec)
  promolecular density results
     # of electrons  =     83.989772328
     EX              =    -42.658598983
     EC              =     -3.411692255
     EX+EC           =    -46.070291238
Transforming the Hamiltonian                       ... done (   0.0 sec)
Diagonalizing the Hamiltonian                      ... done (   0.0 sec)
Back transforming the eigenvectors                 ... done (   0.0 sec)
Now organizing SCF variables                       ... done
                      ------------------
                      INITIAL GUESS DONE (   2.1 sec)
                      ------------------
             **** ENERGY FILE WAS UPDATED (./output/camphor/camphor.en.tmp) ****
Finished Guess after   2.7 sec
Maximum memory used throughout the entire GUESS-calculation: 22.4 MB


           ************************************************************
           *        Program running with 40 parallel MPI-processes    *
           *              working on a common directory               *
           ************************************************************

-------------------------------------------------------------------------------------------
                                      ORCA LEAN-SCF
                              memory conserving SCF solver
-------------------------------------------------------------------------------------------

----------------------------------------D-I-I-S--------------------------------------------
Iteration    Energy (Eh)           Delta-E    RMSDP     MaxDP     DIISErr   Damp  Time(sec)
-------------------------------------------------------------------------------------------
               ***  Starting incremental Fock matrix formation  ***
    1    -82.2134773502440339     0.00e+00  3.79e-03  6.82e-02  1.72e-01  0.700   4.5
    2    -82.3957035035691092    -1.82e-01  2.76e-03  5.02e-02  1.04e-01  0.700   4.0
                               ***Turning on AO-DIIS***
    3    -82.4880581215152802    -9.24e-02  1.48e-03  2.59e-02  5.41e-02  0.700   3.5
    4    -82.5424289852032302    -5.44e-02  3.24e-03  6.12e-02  3.39e-02  0.000   3.7
    5    -82.6574366446177464    -1.15e-01  2.60e-04  4.13e-03  4.26e-03  0.000   3.8
                              *** Initializing SOSCF ***
---------------------------------------S-O-S-C-F--------------------------------------
Iteration    Energy (Eh)           Delta-E    RMSDP     MaxDP     MaxGrad    Time(sec)
--------------------------------------------------------------------------------------
    6    -82.6577739018844682    -3.37e-04  1.22e-04  2.11e-03  1.78e-03     4.0
               *** Restarting incremental Fock matrix formation ***
    7    -82.6578331490617870    -5.92e-05  7.31e-05  1.36e-03  6.60e-04     4.8
    8    -82.6578475916652451    -1.44e-05  4.95e-05  1.16e-03  2.48e-04     4.5
    9    -82.6578503689925697    -2.78e-06  1.52e-05  1.96e-04  7.16e-05     4.1
   10    -82.6578508635188314    -4.95e-07  2.90e-06  4.40e-05  9.45e-06     4.2
   11    -82.6578508575763635     5.94e-09  8.52e-07  2.68e-05  6.34e-06     3.9
                 **** Energy Check signals convergence ****

               *****************************************************
               *                     SUCCESS                       *
               *           SCF CONVERGED AFTER  11 CYCLES          *
               *****************************************************

Recomputing exchange energy using gridx3       ... done (    4.494 sec)
Old exchange energy                            :    -11.929191161 Eh
New exchange energy                            :    -11.929203420 Eh
Exchange energy change after final integration :     -0.000012260 Eh
Total energy after final integration           :    -82.657863117 Eh
             **** ENERGY FILE WAS UPDATED (./output/camphor/camphor.en.tmp) ****

----------------
TOTAL SCF ENERGY
----------------

Total Energy       :        -82.65786311710963 Eh           -2249.23480 eV

Components:
Nuclear Repulsion  :        367.99439895774742 Eh           10013.63668 eV
Electronic Energy  :       -450.65224981532378 Eh          -12262.87115 eV
One Electron Energy:       -854.40093692709650 Eh          -23249.43147 eV
Two Electron Energy:        403.74868711177271 Eh           10986.56032 eV

Virial components:
Potential Energy   :       -147.00840193304032 Eh           -4000.30199 eV
Kinetic Energy     :         64.35053881593068 Eh            1751.06718 eV
Virial Ratio       :          2.28449372201133

DFT components:
N(Alpha)           :       30.999874480557 electrons
N(Beta)            :       30.999874480557 electrons
N(Total)           :       61.999748961114 electrons
E(X)               :      -12.665934857598 Eh       
E(C)               :       -2.352980391277 Eh       
E(XC)              :      -15.018915248875 Eh       

---------------
SCF CONVERGENCE
---------------

  Last Energy change         ...   -5.9425e-09  Tolerance :   1.0000e-08
  Last MAX-Density change    ...    2.6800e-05  Tolerance :   1.0000e-07
  Last RMS-Density change    ...    8.5237e-07  Tolerance :   5.0000e-09
  Last DIIS Error            ...    1.7817e-03  Tolerance :   5.0000e-07
  Last Orbital Gradient      ...    6.3444e-06  Tolerance :   1.0000e-05
  Last Orbital Rotation      ...    1.6101e-05  Tolerance :   1.0000e-05


----------------
ORBITAL ENERGIES
----------------

  NO   OCC          E(Eh)            E(eV) 
   0   2.0000      -1.159650       -31.5557 
   1   2.0000      -1.038717       -28.2649 
   2   2.0000      -0.908969       -24.7343 
   3   2.0000      -0.904108       -24.6020 
   4   2.0000      -0.877706       -23.8836 
   5   2.0000      -0.816475       -22.2174 
   6   2.0000      -0.798436       -21.7266 
   7   2.0000      -0.778404       -21.1815 
   8   2.0000      -0.713033       -19.4026 
   9   2.0000      -0.667603       -18.1664 
  10   2.0000      -0.623422       -16.9642 
  11   2.0000      -0.607309       -16.5257 
  12   2.0000      -0.603762       -16.4292 
  13   2.0000      -0.585746       -15.9390 
  14   2.0000      -0.560423       -15.2499 
  15   2.0000      -0.536285       -14.5930 
  16   2.0000      -0.527274       -14.3479 
  17   2.0000      -0.521229       -14.1834 
  18   2.0000      -0.511574       -13.9206 
  19   2.0000      -0.505877       -13.7656 
  20   2.0000      -0.496058       -13.4984 
  21   2.0000      -0.489794       -13.3280 
  22   2.0000      -0.482024       -13.1165 
  23   2.0000      -0.465387       -12.6638 
  24   2.0000      -0.451006       -12.2725 
  25   2.0000      -0.450049       -12.2465 
  26   2.0000      -0.441161       -12.0046 
  27   2.0000      -0.428463       -11.6591 
  28   2.0000      -0.416151       -11.3240 
  29   2.0000      -0.403580       -10.9820 
  30   2.0000      -0.346751        -9.4356 
  31   0.0000       0.058026         1.5790 
  32   0.0000       0.082014         2.2317 
  33   0.0000       0.094522         2.5721 
  34   0.0000       0.098651         2.6844 
  35   0.0000       0.104185         2.8350 
  36   0.0000       0.123427         3.3586 
  37   0.0000       0.128155         3.4873 
  38   0.0000       0.136200         3.7062 
  39   0.0000       0.140110         3.8126 
  40   0.0000       0.154582         4.2064 
  41   0.0000       0.162319         4.4169 
*Only the first 10 virtual orbitals were printed.

                    ********************************
                    * MULLIKEN POPULATION ANALYSIS *
                    ********************************

-----------------------
MULLIKEN ATOMIC CHARGES
-----------------------
   0 C :   -0.036901
   1 C :   -0.188103
   2 C :   -0.040215
   3 C :   -0.062712
   4 C :   -0.032550
   5 C :   -0.170747
   6 C :    0.242105
   7 O :   -0.314263
   8 C :   -0.064128
   9 C :   -0.029470
  10 C :   -0.048101
  11 H :    0.038591
  12 H :    0.042889
  13 H :    0.023954
  14 H :    0.047971
  15 H :    0.047239
  16 H :    0.043187
  17 H :    0.061744
  18 H :    0.049164
  19 H :    0.066081
  20 H :    0.067066
  21 H :    0.054270
  22 H :    0.043681
  23 H :    0.034273
  24 H :    0.041362
  25 H :    0.040184
  26 H :    0.043428
Sum of atomic charges:    0.0000000

--------------------------------
MULLIKEN REDUCED ORBITAL CHARGES
--------------------------------
  0 C s       :     0.947971  s :     0.947971
      pz      :     1.013994  p :     3.017192
      px      :     1.020085
      py      :     0.983113
      dz2     :     0.008336  d :     0.071737
      dxz     :     0.014776
      dyz     :     0.021612
      dx2y2   :     0.015876
      dxy     :     0.011136

  1 C s       :     1.082589  s :     1.082589
      pz      :     1.004979  p :     2.961189
      px      :     0.954613
      py      :     1.001597
      dz2     :     0.024216  d :     0.144325
      dxz     :     0.031161
      dyz     :     0.031083
      dx2y2   :     0.031826
      dxy     :     0.026040

  2 C s       :     1.043763  s :     1.043763
      pz      :     0.948378  p :     2.876829
      px      :     0.980711
      py      :     0.947740
      dz2     :     0.016787  d :     0.119623
      dxz     :     0.028835
      dyz     :     0.029437
      dx2y2   :     0.018534
      dxy     :     0.026030

  3 C s       :     0.999746  s :     0.999746
      pz      :     0.980754  p :     2.968718
      px      :     0.983680
      py      :     1.004284
      dz2     :     0.013411  d :     0.094249
      dxz     :     0.023530
      dyz     :     0.022944
      dx2y2   :     0.011786
      dxy     :     0.022578

  4 C s       :     0.993344  s :     0.993344
      pz      :     0.914566  p :     2.944770
      px      :     1.012842
      py      :     1.017362
      dz2     :     0.021756  d :     0.094437
      dxz     :     0.016172
      dyz     :     0.019857
      dx2y2   :     0.025794
      dxy     :     0.010859

  5 C s       :     1.052370  s :     1.052370
      pz      :     1.023009  p :     2.974972
      px      :     0.968003
      py      :     0.983960
      dz2     :     0.028949  d :     0.143405
      dxz     :     0.027159
      dyz     :     0.030025
      dx2y2   :     0.033698
      dxy     :     0.023573

  6 C s       :     1.101545  s :     1.101545
      pz      :     0.758114  p :     2.445290
      px      :     0.751151
      py      :     0.936024
      dz2     :     0.042058  d :     0.211060
      dxz     :     0.026933
      dyz     :     0.053196
      dx2y2   :     0.038262
      dxy     :     0.050613

  7 O s       :     1.781038  s :     1.781038
      pz      :     1.344439  p :     4.497263
      px      :     1.334090
      py      :     1.818734
      dz2     :     0.010995  d :     0.035961
      dxz     :     0.008995
      dyz     :     0.004840
      dx2y2   :     0.006325
      dxy     :     0.004806

  8 C s       :     0.990919  s :     0.990919
      pz      :     0.988516  p :     2.985966
      px      :     1.017424
      py      :     0.980026
      dz2     :     0.010283  d :     0.087243
      dxz     :     0.021057
      dyz     :     0.022985
      dx2y2   :     0.008950
      dxy     :     0.023967

  9 C s       :     0.938659  s :     0.938659
      pz      :     0.996405  p :     3.019852
      px      :     1.048184
      py      :     0.975264
      dz2     :     0.016112  d :     0.070959
      dxz     :     0.012127
      dyz     :     0.014621
      dx2y2   :     0.020037
      dxy     :     0.008063

 10 C s       :     0.949466  s :     0.949466
      pz      :     0.982547  p :     3.027027
      px      :     1.006378
      py      :     1.038102
      dz2     :     0.009318  d :     0.071608
      dxz     :     0.015495
      dyz     :     0.023040
      dx2y2   :     0.011903
      dxy     :     0.011852

 11 H s       :     0.917706  s :     0.917706
      pz      :     0.015150  p :     0.043703
      px      :     0.010581
      py      :     0.017972

 12 H s       :     0.913980  s :     0.913980
      pz      :     0.011625  p :     0.043131
      px      :     0.021054
      py      :     0.010452

 13 H s       :     0.930049  s :     0.930049
      pz      :     0.018969  p :     0.045997
      px      :     0.014321
      py      :     0.012706

 14 H s       :     0.912243  s :     0.912243
      pz      :     0.011533  p :     0.039786
      px      :     0.016986
      py      :     0.011268

 15 H s       :     0.909535  s :     0.909535
      pz      :     0.017068  p :     0.043226
      px      :     0.012864
      py      :     0.013295

 16 H s       :     0.914601  s :     0.914601
      pz      :     0.010921  p :     0.042212
      px      :     0.014955
      py      :     0.016336

 17 H s       :     0.896507  s :     0.896507
      pz      :     0.009122  p :     0.041749
      px      :     0.022588
      py      :     0.010039

 18 H s       :     0.907380  s :     0.907380
      pz      :     0.011473  p :     0.043455
      px      :     0.009901
      py      :     0.022081

 19 H s       :     0.889788  s :     0.889788
      pz      :     0.013407  p :     0.044131
      px      :     0.015865
      py      :     0.014859

 20 H s       :     0.887616  s :     0.887616
      pz      :     0.015173  p :     0.045318
      px      :     0.015844
      py      :     0.014301

 21 H s       :     0.902278  s :     0.902278
      pz      :     0.009999  p :     0.043452
      px      :     0.023727
      py      :     0.009726

 22 H s       :     0.912509  s :     0.912509
      pz      :     0.020969  p :     0.043810
      px      :     0.012859
      py      :     0.009982

 23 H s       :     0.921677  s :     0.921677
      pz      :     0.011445  p :     0.044050
      px      :     0.011845
      py      :     0.020760

 24 H s       :     0.913079  s :     0.913079
      pz      :     0.016654  p :     0.045559
      px      :     0.012305
      py      :     0.016599

 25 H s       :     0.916305  s :     0.916305
      pz      :     0.013907  p :     0.043511
      px      :     0.010649
      py      :     0.018954

 26 H s       :     0.913722  s :     0.913722
      pz      :     0.010731  p :     0.042850
      px      :     0.020184
      py      :     0.011934



                     *******************************
                     * LOEWDIN POPULATION ANALYSIS *
                     *******************************

----------------------
LOEWDIN ATOMIC CHARGES
----------------------
   0 C :   -0.102726
   1 C :   -0.055991
   2 C :   -0.048588
   3 C :   -0.071143
   4 C :   -0.055253
   5 C :   -0.076752
   6 C :    0.014169
   7 O :   -0.137428
   8 C :   -0.059404
   9 C :   -0.101057
  10 C :   -0.103666
  11 H :    0.048271
  12 H :    0.051463
  13 H :    0.042600
  14 H :    0.041665
  15 H :    0.043305
  16 H :    0.044634
  17 H :    0.052432
  18 H :    0.049110
  19 H :    0.061857
  20 H :    0.060286
  21 H :    0.056369
  22 H :    0.051845
  23 H :    0.046912
  24 H :    0.046553
  25 H :    0.049917
  26 H :    0.050619

-------------------------------
LOEWDIN REDUCED ORBITAL CHARGES
-------------------------------
  0 C s       :     0.776870  s :     0.776870
      pz      :     1.043984  p :     3.089381
      px      :     1.038820
      py      :     1.006577
      dz2     :     0.027687  d :     0.236475
      dxz     :     0.047926
      dyz     :     0.071766
      dx2y2   :     0.053085
      dxy     :     0.036012

  1 C s       :     0.750891  s :     0.750891
      pz      :     0.954961  p :     2.866951
      px      :     0.952960
      py      :     0.959030
      dz2     :     0.074917  d :     0.438149
      dxz     :     0.095582
      dyz     :     0.089776
      dx2y2   :     0.095797
      dxy     :     0.082077

  2 C s       :     0.760258  s :     0.760258
      pz      :     0.956918  p :     2.907615
      px      :     0.995313
      py      :     0.955384
      dz2     :     0.055276  d :     0.380715
      dxz     :     0.090887
      dyz     :     0.091120
      dx2y2   :     0.060067
      dxy     :     0.083366

  3 C s       :     0.768809  s :     0.768809
      pz      :     0.994586  p :     2.995008
      px      :     0.989243
      py      :     1.011179
      dz2     :     0.045812  d :     0.307326
      dxz     :     0.076315
      dyz     :     0.075958
      dx2y2   :     0.039242
      dxy     :     0.069999

  4 C s       :     0.765002  s :     0.765002
      pz      :     0.935617  p :     2.982415
      px      :     1.022980
      py      :     1.023817
      dz2     :     0.070947  d :     0.307836
      dxz     :     0.051138
      dyz     :     0.064491
      dx2y2   :     0.088500
      dxy     :     0.032760

  5 C s       :     0.744067  s :     0.744067
      pz      :     0.965771  p :     2.889847
      px      :     0.954875
      py      :     0.969202
      dz2     :     0.087486  d :     0.442838
      dxz     :     0.083657
      dyz     :     0.093162
      dx2y2   :     0.104738
      dxy     :     0.073795

  6 C s       :     0.778907  s :     0.778907
      pz      :     0.811638  p :     2.605288
      px      :     0.804667
      py      :     0.988982
      dz2     :     0.107990  d :     0.601636
      dxz     :     0.102798
      dyz     :     0.145240
      dx2y2   :     0.107237
      dxy     :     0.138372

  7 O s       :     1.531953  s :     1.531953
      pz      :     1.403683  p :     4.530477
      px      :     1.398459
      py      :     1.728335
      dz2     :     0.015020  d :     0.074997
      dxz     :     0.023141
      dyz     :     0.012860
      dx2y2   :     0.011367
      dxy     :     0.012609

  8 C s       :     0.767427  s :     0.767427
      pz      :     0.998914  p :     3.004404
      px      :     1.011437
      py      :     0.994053
      dz2     :     0.033352  d :     0.287572
      dxz     :     0.065940
      dyz     :     0.076762
      dx2y2   :     0.031213
      dxy     :     0.080305

  9 C s       :     0.774711  s :     0.774711
      pz      :     1.022213  p :     3.090771
      px      :     1.063899
      py      :     1.004659
      dz2     :     0.055876  d :     0.235574
      dxz     :     0.040166
      dyz     :     0.045880
      dx2y2   :     0.066427
      dxy     :     0.027225

 10 C s       :     0.777282  s :     0.777282
      pz      :     1.006430  p :     3.090397
      px      :     1.024352
      py      :     1.059614
      dz2     :     0.032333  d :     0.235987
      dxz     :     0.049269
      dyz     :     0.076888
      dx2y2   :     0.038677
      dxy     :     0.038820

 11 H s       :     0.804358  s :     0.804358
      pz      :     0.050375  p :     0.147371
      px      :     0.042288
      py      :     0.054707

 12 H s       :     0.802485  s :     0.802485
      pz      :     0.043173  p :     0.146052
      px      :     0.062350
      py      :     0.040529

 13 H s       :     0.804637  s :     0.804637
      pz      :     0.058472  p :     0.152763
      px      :     0.049849
      py      :     0.044442

 14 H s       :     0.811681  s :     0.811681
      pz      :     0.044818  p :     0.146654
      px      :     0.057861
      py      :     0.043976

 15 H s       :     0.807447  s :     0.807447
      pz      :     0.055436  p :     0.149248
      px      :     0.046384
      py      :     0.047428

 16 H s       :     0.808535  s :     0.808535
      pz      :     0.043034  p :     0.146831
      px      :     0.049807
      py      :     0.053990

 17 H s       :     0.801895  s :     0.801895
      pz      :     0.037789  p :     0.145673
      px      :     0.066858
      py      :     0.041026

 18 H s       :     0.803448  s :     0.803448
      pz      :     0.040578  p :     0.147442
      px      :     0.040986
      py      :     0.065878

 19 H s       :     0.793018  s :     0.793018
      pz      :     0.044692  p :     0.145125
      px      :     0.051165
      py      :     0.049268

 20 H s       :     0.790969  s :     0.790969
      pz      :     0.050064  p :     0.148745
      px      :     0.050213
      py      :     0.048468

 21 H s       :     0.798160  s :     0.798160
      pz      :     0.039689  p :     0.145471
      px      :     0.066603
      py      :     0.039179

 22 H s       :     0.803013  s :     0.803013
      pz      :     0.060432  p :     0.145142
      px      :     0.045783
      py      :     0.038926

 23 H s       :     0.806831  s :     0.806831
      pz      :     0.042436  p :     0.146256
      px      :     0.044201
      py      :     0.059619

 24 H s       :     0.802709  s :     0.802709
      pz      :     0.051322  p :     0.150738
      px      :     0.044896
      py      :     0.054521

 25 H s       :     0.803106  s :     0.803106
      pz      :     0.046481  p :     0.146977
      px      :     0.042089
      py      :     0.058407

 26 H s       :     0.803493  s :     0.803493
      pz      :     0.041012  p :     0.145888
      px      :     0.060465
      py      :     0.044410



                      *****************************
                      * MAYER POPULATION ANALYSIS *
                      *****************************

  NA   - Mulliken gross atomic population
  ZA   - Total nuclear charge
  QA   - Mulliken gross atomic charge
  VA   - Mayer's total valence
  BVA  - Mayer's bonded valence
  FA   - Mayer's free valence

  ATOM       NA         ZA         QA         VA         BVA        FA
  0 C      4.0369     4.0000    -0.0369     3.9654     3.9654     0.0000
  1 C      4.1881     4.0000    -0.1881     4.0608     4.0608     0.0000
  2 C      4.0402     4.0000    -0.0402     3.9270     3.9270     0.0000
  3 C      4.0627     4.0000    -0.0627     3.9635     3.9635     0.0000
  4 C      4.0326     4.0000    -0.0326     3.9568     3.9568     0.0000
  5 C      4.1707     4.0000    -0.1707     4.0343     4.0343     0.0000
  6 C      3.7579     4.0000     0.2421     4.0045     4.0045    -0.0000
  7 O      6.3143     6.0000    -0.3143     2.0516     2.0516    -0.0000
  8 C      4.0641     4.0000    -0.0641     3.9512     3.9512     0.0000
  9 C      4.0295     4.0000    -0.0295     3.9820     3.9820     0.0000
 10 C      4.0481     4.0000    -0.0481     3.9640     3.9640    -0.0000
 11 H      0.9614     1.0000     0.0386     1.0257     1.0257     0.0000
 12 H      0.9571     1.0000     0.0429     1.0268     1.0268    -0.0000
 13 H      0.9760     1.0000     0.0240     1.0355     1.0355     0.0000
 14 H      0.9520     1.0000     0.0480     1.0231     1.0231     0.0000
 15 H      0.9528     1.0000     0.0472     1.0185     1.0185    -0.0000
 16 H      0.9568     1.0000     0.0432     1.0267     1.0267     0.0000
 17 H      0.9383     1.0000     0.0617     1.0182     1.0182     0.0000
 18 H      0.9508     1.0000     0.0492     1.0235     1.0235     0.0000
 19 H      0.9339     1.0000     0.0661     1.0369     1.0369     0.0000
 20 H      0.9329     1.0000     0.0671     1.0323     1.0323    -0.0000
 21 H      0.9457     1.0000     0.0543     1.0310     1.0310    -0.0000
 22 H      0.9563     1.0000     0.0437     1.0278     1.0278    -0.0000
 23 H      0.9657     1.0000     0.0343     1.0222     1.0222    -0.0000
 24 H      0.9586     1.0000     0.0414     1.0270     1.0270     0.0000
 25 H      0.9598     1.0000     0.0402     1.0278     1.0278    -0.0000
 26 H      0.9566     1.0000     0.0434     1.0275     1.0275    -0.0000

  Mayer bond orders larger than 0.100000
B(  0-C ,  1-C ) :   1.0221 B(  0-C , 11-H ) :   0.9931 B(  0-C , 12-H ) :   0.9913 
B(  0-C , 13-H ) :   0.9941 B(  1-C ,  2-C ) :   0.9680 B(  1-C ,  5-C ) :   0.9546 
B(  1-C , 10-C ) :   1.0211 B(  2-C ,  3-C ) :   0.9922 B(  2-C ,  8-C ) :   0.9823 
B(  2-C , 14-H ) :   1.0014 B(  3-C ,  4-C ) :   0.9716 B(  3-C , 15-H ) :   1.0049 
B(  3-C , 16-H ) :   1.0026 B(  4-C ,  5-C ) :   0.9761 B(  4-C , 17-H ) :   0.9959 
B(  4-C , 18-H ) :   0.9979 B(  5-C ,  6-C ) :   0.9980 B(  5-C ,  9-C ) :   1.0322 
B(  6-C ,  7-O ) :   1.9508 B(  6-C ,  8-C ) :   1.0134 B(  8-C , 19-H ) :   0.9794 
B(  8-C , 20-H ) :   0.9766 B(  9-C , 21-H ) :   0.9847 B(  9-C , 22-H ) :   0.9875 
B(  9-C , 23-H ) :   0.9894 B( 10-C , 24-H ) :   0.9894 B( 10-C , 25-H ) :   0.9936 
B( 10-C , 26-H ) :   0.9910 

-------
TIMINGS
-------

Total SCF time: 0 days 0 hours 0 min 54 sec 

Total time                  ....      54.333 sec
Sum of individual times     ....      51.979 sec  ( 95.7%)

SCF preparation             ....       2.570 sec  (  4.7%)
Fock matrix formation       ....      48.075 sec  ( 88.5%)
  Startup                   ....       0.374 sec  (  0.8% of F)
  Split-RI-J                ....       1.705 sec  (  3.5% of F)
  Chain of spheres X        ....      24.148 sec  ( 50.2% of F)
  XC integration            ....      21.011 sec  ( 43.7% of F)
    XC Preparation          ....       0.000 sec  (  0.0% of XC)
    Basis function eval.    ....       0.564 sec  (  2.7% of XC)
    Density eval.           ....       0.304 sec  (  1.4% of XC)
    XC-Functional eval.     ....       0.157 sec  (  0.7% of XC)
    XC-Potential eval.      ....       0.415 sec  (  2.0% of XC)
Diagonalization             ....       0.000 sec  (  0.0%)
Density matrix formation    ....       0.200 sec  (  0.4%)
Total Energy calculation    ....       0.230 sec  (  0.4%)
Population analysis         ....       0.116 sec  (  0.2%)
Orbital Transformation      ....       0.060 sec  (  0.1%)
Orbital Orthonormalization  ....       0.000 sec  (  0.0%)
DIIS solution               ....       0.477 sec  (  0.9%)
SOSCF solution              ....       0.252 sec  (  0.5%)
Finished LeanSCF after  54.4 sec

Maximum memory used throughout the entire LEANSCF-calculation: 42.6 MB


           ************************************************************
           *        Program running with 40 parallel MPI-processes    *
           *              working on a common directory               *
           ************************************************************

------------------------------------------------------------------------------
                         ORCA PROPERTY INTEGRAL CALCULATIONS
[...]
 24:    743.63   0.000136    0.69  0.000057  ( 0.007466  0.001088 -0.000163)
 25:    789.35   0.001399    7.07  0.000553  (-0.013351  0.017516  0.008247)
 26:    862.73   0.000036    0.18  0.000013  (-0.002072  0.001925 -0.002229)
 27:    896.56   0.000452    2.28  0.000157  ( 0.006472  0.010126 -0.003589)
 28:    910.49   0.000067    0.34  0.000023  (-0.003510  0.000393 -0.003261)
 29:    960.20   0.000108    0.55  0.000035  ( 0.005123 -0.002841 -0.000861)
 30:    968.85   0.000450    2.27  0.000145  ( 0.001866 -0.000604  0.011879)
 31:    984.84   0.000770    3.89  0.000244  (-0.005000  0.000082 -0.014793)
 32:    988.47   0.000076    0.38  0.000024  (-0.002801  0.002309 -0.003290)
 33:   1000.28   0.000649    3.28  0.000202  ( 0.004158  0.013196  0.003305)
 34:   1032.87   0.000178    0.90  0.000054  ( 0.002545  0.000046  0.006883)
 35:   1056.57   0.000533    2.69  0.000157  ( 0.002052 -0.012377  0.000150)
 36:   1071.95   0.000747    3.77  0.000217  (-0.003966  0.013178 -0.005294)
 37:   1105.79   0.006169   31.18  0.001741  ( 0.007647  0.040812 -0.004115)
 38:   1128.91   0.000870    4.39  0.000240  ( 0.008177  0.012845 -0.002922)
 39:   1146.53   0.001227    6.20  0.000334  (-0.013049  0.012659  0.001836)
 40:   1194.97   0.000421    2.13  0.000110  (-0.006574  0.005667 -0.005893)
 41:   1221.70   0.000510    2.58  0.000130  ( 0.009768 -0.000819 -0.005848)
 42:   1223.83   0.000293    1.48  0.000075  ( 0.003645 -0.007768 -0.001072)
 43:   1257.83   0.000517    2.61  0.000128  (-0.004670  0.010314 -0.000089)
 44:   1259.13   0.000347    1.75  0.000086  (-0.001223  0.006447 -0.006546)
 45:   1291.65   0.000135    0.68  0.000033  (-0.004468 -0.003489  0.000706)
 46:   1311.03   0.000101    0.51  0.000024  (-0.000495 -0.004435 -0.002039)
 47:   1325.12   0.000759    3.84  0.000179  (-0.002645 -0.013101 -0.000462)
 48:   1354.94   0.001975    9.98  0.000455  (-0.004469 -0.020449  0.004081)
 49:   1365.48   0.000206    1.04  0.000047  ( 0.001022 -0.004437  0.005141)
 50:   1376.63   0.000510    2.57  0.000116  (-0.007353  0.007260 -0.002956)
 51:   1403.38   0.002416   12.21  0.000537  (-0.013815 -0.018400  0.002807)
 52:   1442.50   0.002326   11.76  0.000503  (-0.002200  0.015984  0.015585)
 53:   1452.78   0.001393    7.04  0.000299  ( 0.014730  0.000521 -0.009053)
 54:   1460.33   0.003342   16.89  0.000714  (-0.017557  0.016040 -0.012192)
 55:   1491.87   0.003179   16.06  0.000665  (-0.003432 -0.025554 -0.000296)
 56:   1511.33   0.001200    6.07  0.000248  (-0.002396 -0.003721  0.015109)
 57:   1515.84   0.002261   11.42  0.000465  (-0.013124 -0.015185 -0.007909)
 58:   1519.65   0.002089   10.56  0.000429  (-0.007380  0.018723  0.004894)
 59:   1526.06   0.001310    6.62  0.000268  ( 0.011122  0.006038 -0.010376)
 60:   1532.79   0.000894    4.52  0.000182  (-0.005080 -0.012285  0.002280)
 61:   1544.96   0.000142    0.72  0.000029  (-0.003332  0.004184 -0.000328)
 62:   1549.21   0.001633    8.25  0.000329  (-0.001173  0.000028 -0.018099)
 63:   1560.68   0.002078   10.50  0.000416  (-0.015773 -0.004157 -0.012229)
 64:   1898.32   0.057056  288.34  0.009379  ( 0.060998 -0.024492 -0.071126)
 65:   3101.67   0.003980   20.11  0.000400  (-0.006635 -0.010759 -0.015511)
 66:   3105.44   0.004729   23.90  0.000475  ( 0.020889  0.001507 -0.006047)
 67:   3107.70   0.007541   38.11  0.000757  (-0.012990  0.021830 -0.010579)
 68:   3123.37   0.004701   23.76  0.000470  (-0.012424 -0.016006  0.007693)
 69:   3134.44   0.007438   37.59  0.000741  ( 0.014200  0.005163  0.022633)
 70:   3138.13   0.001966    9.93  0.000195  (-0.006500  0.009539  0.007889)
 71:   3158.76   0.006612   33.41  0.000653  (-0.014446 -0.014339  0.015456)
 72:   3173.52   0.000136    0.69  0.000013  ( 0.000453  0.002883 -0.002197)
 73:   3182.02   0.000699    3.53  0.000069  ( 0.004299  0.004590 -0.005386)
 74:   3187.22   0.004935   24.94  0.000483  ( 0.012301  0.013632 -0.012086)
 75:   3188.49   0.003659   18.49  0.000358  ( 0.011656 -0.014418 -0.003790)
 76:   3195.97   0.002944   14.88  0.000287  (-0.013107  0.010620 -0.001682)
 77:   3199.15   0.002559   12.93  0.000250  ( 0.005682 -0.011233 -0.009546)
 78:   3202.54   0.001878    9.49  0.000183  ( 0.009029  0.003057  0.009600)
 79:   3205.56   0.001952    9.87  0.000190  ( 0.008158 -0.009471 -0.005814)
 80:   3220.72   0.003242   16.38  0.000314  ( 0.009087  0.004966  0.014382)

* The epsilon (eps) is given for a Dirac delta lineshape.
** The dipole moment derivative (T) already includes vibrational overlap.

The first frequency considered to be a vibration is 6
The total number of vibrations considered is 75


--------------------------
THERMOCHEMISTRY AT 298.15K
--------------------------

Temperature         ...   298.15 K
Pressure            ...     1.00 atm
Total Mass          ...   152.24 AMU
Quasi RRHO          ...     True
Cut-Off Frequency   ...     1.00 cm^-1

Throughout the following assumptions are being made:
  (1) The electronic state is orbitally nondegenerate
  (2) There are no thermally accessible electronically excited states
  (3) Hindered rotations indicated by low frequency modes are not
      treated as such but are treated as vibrations and this may
      cause some error
  (4) All equations used are the standard statistical mechanics
      equations for an ideal gas
  (5) All vibrations are strictly harmonic

freq.     109.68  E(vib)   ...       0.45 
freq.     167.91  E(vib)   ...       0.38 
freq.     192.67  E(vib)   ...       0.36 
freq.     227.14  E(vib)   ...       0.33 
freq.     230.11  E(vib)   ...       0.32 
freq.     249.43  E(vib)   ...       0.31 
freq.     269.24  E(vib)   ...       0.29 
freq.     302.49  E(vib)   ...       0.26 
freq.     307.83  E(vib)   ...       0.26 
freq.     394.41  E(vib)   ...       0.20 
freq.     405.99  E(vib)   ...       0.19 
freq.     428.67  E(vib)   ...       0.18 
freq.     490.05  E(vib)   ...       0.15 
freq.     538.72  E(vib)   ...       0.12 
freq.     574.65  E(vib)   ...       0.11 
freq.     593.87  E(vib)   ...       0.10 
freq.     635.90  E(vib)   ...       0.09 
freq.     674.63  E(vib)   ...       0.08 
freq.     743.63  E(vib)   ...       0.06 
freq.     789.35  E(vib)   ...       0.05 
freq.     862.73  E(vib)   ...       0.04 
freq.     896.56  E(vib)   ...       0.03 
freq.     910.49  E(vib)   ...       0.03 
freq.     960.20  E(vib)   ...       0.03 
freq.     968.85  E(vib)   ...       0.03 
freq.     984.84  E(vib)   ...       0.02 
freq.     988.47  E(vib)   ...       0.02 
freq.    1000.28  E(vib)   ...       0.02 
freq.    1032.87  E(vib)   ...       0.02 
freq.    1056.57  E(vib)   ...       0.02 
freq.    1071.95  E(vib)   ...       0.02 
freq.    1105.79  E(vib)   ...       0.02 
freq.    1128.91  E(vib)   ...       0.01 
freq.    1146.53  E(vib)   ...       0.01 
freq.    1194.97  E(vib)   ...       0.01 
freq.    1221.70  E(vib)   ...       0.01 
freq.    1223.83  E(vib)   ...       0.01 
freq.    1257.83  E(vib)   ...       0.01 
freq.    1259.13  E(vib)   ...       0.01 
freq.    1291.65  E(vib)   ...       0.01 
freq.    1311.03  E(vib)   ...       0.01 
freq.    1325.12  E(vib)   ...       0.01 
freq.    1354.94  E(vib)   ...       0.01 
freq.    1365.48  E(vib)   ...       0.01 
freq.    1376.63  E(vib)   ...       0.01 
freq.    1403.38  E(vib)   ...       0.00 
freq.    1442.50  E(vib)   ...       0.00 
freq.    1452.78  E(vib)   ...       0.00 
freq.    1460.33  E(vib)   ...       0.00 
freq.    1491.87  E(vib)   ...       0.00 
freq.    1511.33  E(vib)   ...       0.00 
freq.    1515.84  E(vib)   ...       0.00 
freq.    1519.65  E(vib)   ...       0.00 
freq.    1526.06  E(vib)   ...       0.00 
freq.    1532.79  E(vib)   ...       0.00 
freq.    1544.96  E(vib)   ...       0.00 
freq.    1549.21  E(vib)   ...       0.00 
freq.    1560.68  E(vib)   ...       0.00 
freq.    1898.32  E(vib)   ...       0.00 
freq.    3101.67  E(vib)   ...       0.00 
freq.    3105.44  E(vib)   ...       0.00 
freq.    3107.70  E(vib)   ...       0.00 
freq.    3123.37  E(vib)   ...       0.00 
freq.    3134.44  E(vib)   ...       0.00 
freq.    3138.13  E(vib)   ...       0.00 
freq.    3158.76  E(vib)   ...       0.00 
freq.    3173.52  E(vib)   ...       0.00 
freq.    3182.02  E(vib)   ...       0.00 
freq.    3187.22  E(vib)   ...       0.00 
freq.    3188.49  E(vib)   ...       0.00 
freq.    3195.97  E(vib)   ...       0.00 
freq.    3199.15  E(vib)   ...       0.00 
freq.    3202.54  E(vib)   ...       0.00 
freq.    3205.56  E(vib)   ...       0.00 
freq.    3220.72  E(vib)   ...       0.00 

------------
INNER ENERGY
------------

The inner energy is: U= E(el) + E(ZPE) + E(vib) + E(rot) + E(trans)
    E(el)   - is the total energy from the electronic structure calculation
              = E(kin-el) + E(nuc-el) + E(el-el) + E(nuc-nuc)
    E(ZPE)  - the the zero temperature vibrational energy from the frequency calculation
    E(vib)  - the the finite temperature correction to E(ZPE) due to population
              of excited vibrational states
    E(rot)  - is the rotational thermal energy
    E(trans)- is the translational thermal energy

Summary of contributions to the inner energy U:
Electronic energy                ...    -82.70445586 Eh
Zero point energy                ...      0.24754134 Eh     155.33 kcal/mol
Thermal vibrational correction   ...      0.00754353 Eh       4.73 kcal/mol
Thermal rotational correction    ...      0.00141627 Eh       0.89 kcal/mol
Thermal translational correction ...      0.00141627 Eh       0.89 kcal/mol
-----------------------------------------------------------------------
Total thermal energy                    -82.44653845 Eh


Summary of corrections to the electronic energy:
(perhaps to be used in another calculation)
Total thermal correction                  0.01037607 Eh       6.51 kcal/mol
Non-thermal (ZPE) correction              0.24754134 Eh     155.33 kcal/mol
-----------------------------------------------------------------------
Total correction                          0.25791741 Eh     161.85 kcal/mol


--------
ENTHALPY
--------

The enthalpy is H = U + kB*T
                kB is Boltzmann's constant
Total thermal energy              ...    -82.44653845 Eh 
Thermal Enthalpy correction       ...      0.00094421 Eh       0.59 kcal/mol
-----------------------------------------------------------------------
Total Enthalpy                    ...    -82.44559424 Eh


Note: Only C1 symmetry has been detected, increase convergence thresholds 
      if your molecule has a higher symmetry. Symmetry factor of 1.0 is   
      used for the rotational entropy correction. 
 

Note: Rotational entropy computed according to Herzberg 
Infrared and Raman Spectra, Chapter V,1, Van Nostrand Reinhold, 1945 
Point Group:  C1, Symmetry Number:   1  
Rotational constants in cm-1:     0.048990     0.040007     0.037105 

Vibrational entropy computed according to the QRRHO of S. Grimme
Chem.Eur.J. 2012 18 9955 using a reference frequency of 100.0 cm-1


-------
ENTROPY
-------

The entropy contributions are T*S = T*(S(el)+S(vib)+S(rot)+S(trans))
     S(el)   - electronic entropy
     S(vib)  - vibrational entropy
     S(rot)  - rotational entropy
     S(trans)- translational entropy
The entropies will be listed as multiplied by the temperature to get
units of energy

Electronic entropy                ...      0.00000000 Eh      0.00 kcal/mol
Vibrational entropy               ...      0.01219336 Eh      7.65 kcal/mol
Rotational entropy                ...      0.01400928 Eh      8.79 kcal/mol
Translational entropy             ...      0.01946646 Eh     12.22 kcal/mol
-----------------------------------------------------------------------
Final entropy term                ...      0.04566909 Eh     28.66 kcal/mol

In case the symmetry of your molecule has not been determined correctly
or in case you have a reason to use a different symmetry number we print 
out the resulting rotational entropy values for sn=1,12:

 non-linear molecules -----------------------------------
|  sn= 1 | S(rot)=       0.01400928 Eh      8.79 kcal/mol|
|  sn= 2 | S(rot)=       0.01335482 Eh      8.38 kcal/mol|
|  sn= 3 | S(rot)=       0.01297199 Eh      8.14 kcal/mol|
|  sn= 4 | S(rot)=       0.01270037 Eh      7.97 kcal/mol|
|  sn= 5 | S(rot)=       0.01248968 Eh      7.84 kcal/mol|
|  sn= 6 | S(rot)=       0.01231753 Eh      7.73 kcal/mol|
|  sn= 7 | S(rot)=       0.01217199 Eh      7.64 kcal/mol|
|  sn= 8 | S(rot)=       0.01204591 Eh      7.56 kcal/mol|
|  sn= 9 | S(rot)=       0.01193470 Eh      7.49 kcal/mol|
|  sn=10 | S(rot)=       0.01183522 Eh      7.43 kcal/mol|
|  sn=11 | S(rot)=       0.01174523 Eh      7.37 kcal/mol|
|  sn=12 | S(rot)=       0.01166308 Eh      7.32 kcal/mol|
 linear molecules ---------------------------------------
|  Dinfh | S(rot)=       0.00843593 Eh      5.29 kcal/mol|
|  Cinfv | S(rot)=       0.00909039 Eh      5.70 kcal/mol|
 --------------------------------------------------------


-------------------
GIBBS FREE ENERGY
-------------------

The Gibbs free energy is G = H - T*S

Total enthalpy                    ...    -82.44559424 Eh 
Total entropy correction          ...     -0.04566909 Eh    -28.66 kcal/mol
-----------------------------------------------------------------------
Final Gibbs free energy         ...    -82.49126334 Eh

For completeness - the Gibbs free energy minus the electronic energy
G-E(el)                           ...      0.21319253 Eh    133.78 kcal/mol


Maximum memory used throughout the entire PROP-calculation: 128.1 MB

--------------------------------
SUGGESTED CITATIONS FOR THIS RUN
--------------------------------

Below you find a list of papers that are relevant to this ORCA run
We neither can nor want to force you to cite these papers, but we appreciate if you do
You receive ORCA, which is the product of decades of hard work by many enthusiastic individuals, for free
The only thing we kindly ask in return is that you cite our papers,
We deeply appreciate it, if you show your appreciation for ORCA by not just citing the generic ORCA reference.

Please note that relegating all ORCA citations to the supporting information does *not* help us.
SI sections are not indexed - citations you put there will not count into any citation statistics
But we need these citations in order to attract the funding resources that allow us to do what we are doing

Therefore, if you are a happy ORCA user, please consider citing a few of the papers listed below in the main body of your paper

In addition to the list printed below, the program has created the file ./output/camphor/camphor.bibtex that contains the list in bibtex format
You can import this file easily into all common literature databanks and citation aid programs


List of essential papers. We consider these as the minimum necessary citations

  1. Neese,F.
     Software update: the ORCA program system, version 5.0
     WIRES Comput. Molec. Sci., 2022 12(1)e1606
     doi.org/10.1002/wcms.1606
  2. Mueller,M.; Hansen,A.; Grimme,S.
     wB97X-3c: A composite range-separated hybrid DFT method with a molecule-optimized polarized valence double-zeta basis set
     J. Chem. Phys., 2023 158 014103
     doi.org/10.1063/5.0133026

List of papers to cite with high priority. The work reported in these papers was absolutely
necessary for this run to complete.
Our perspective: the developers of density functionals and basis sets usually get cited in chemistry papers
Good! But without the algorithms to do something with them, the functionals or basis sets would not do anything.
Hence, in our opinion, the algorithm design and method developments papers are equally worthy of getting cited

  1. Neese,F.
     An improvement of the resolution of the identity approximation for the formation of the Coulomb matrix
     J. Comp. Chem., 2003 24(14)1740-1747
     doi.org/10.1002/jcc.10318
  2. Neese,F.; Wennmohs,F.; Hansen,A.; Becker,U.
     Efficient, approximate and parallel Hartree-Fock and hybrid DFT calculations. A 'chain-of-spheres' algorithm for the Hartree-Fock exchange
     Chem. Phys., 2009 356(1-3)98-109
     doi.org/10.1016/j.chemphys.2008.10.036
  3. Bykov,D.; Petrenko,T.; Izsak,R.; Kossmann,S.; Becker,U.; Valeev,E.; Neese,F.
     Efficient implementation of the analytic second derivatives of Hartree-Fock and hybrid DFT energies: a detailed analysis of different approximations
     Molec. Phys., 2015 113 1961-1977
     doi.org/10.1080/00268976.2015.1025114
  4. Helmich-Paris,B.; de Souza,B.; Neese,F.; Izsák,R.
     An improved chain of spheres for exchange algorithm
     J. Chem. Phys., 2021 155 104109
     doi.org/doi: 10.1063/5.0058766.
  5. Neese,F.
     The SHARK Integral Generation and Digestion System
     J. Comp. Chem., 2022  1-16
     doi.org/10.1002/jcc.26942
  6. Caldeweyher,E.; Bannwarth,C.; Grimme,S.
     Extension of the D3 dispersion coefficient model
     J. Chem. Phys., 2017 147 034112
     doi.org/10.1063/1.4993215
  7. Caldeweyher,E.; Ehlert,S.; Hansen,A.; Neugebauer,H.; Spicher,S.; Bannwarth,C.; Grimme,S.
     A generally applicable atomic-charge dependent London dispersion correction
     J. Chem. Phys., 2019 150 154122
     doi.org/10.1063/1.5090222
  8. Caldeweyher,E.; Mewes,J.; Ehlert,S.; Grimme,S.
     Extension and evaluation of the D4 London-dispersion model for periodic systems
     Phys. Chem. Chem. Phys., 2020 22(16)8499-8512
     doi.org/10.1039/D0CP00502A
  9. Wittmann,L.; Gordiy,I.; Friede,M.; Helmich-Paris,B.; Grimme,S.; Hansen,A.; Bursch,M.
     Extension of the D3 and D4 London Dispersion Corrections to the full Actinides Series
     Phys. Chem. Chem. Phys., 2024 26(32)21379-21394
     doi.org/https://doi.org/10.1039/D4CP01514B 

List of suggested additional citations. These are papers that are important in the 'surrounding' of 
of this run, or papers that preceded the highly important papers. If you like your results we are grateful for a citation.

  1. Izsak,R.; Neese,F.
     An overlap fitted chain of spheres exchange method
     J. Chem. Phys., 2011 135 144105
     doi.org/10.1063/1.3646921
  2. Izsak,R.; Hansen,A.; Neese,F.
     The resolution of identity and chain of spheres approximations for the LPNO-CCSD singles Fock term
     Molec. Phys., 2012 110 2413-2417
     doi.org/10.1080/00268976.2012.687466
  3. Neese,F.
     The ORCA program system
     WIRES Comput. Molec. Sci., 2012 2(1)73-78
     doi.org/10.1002/wcms.81
  4. Izsak,R.; Neese,F.; Klopper,W.
     Robust fitting techniques in the chain of spheres approximation to the Fock exchange: The role of the complementary space
     J. Chem. Phys., 2013 139 
     doi.org/10.1063/1.4819264
  5. Neese,F.
     Software update: the ORCA program system, version 4.0
     WIRES Comput. Molec. Sci., 2018 8(1)1-6
     doi.org/10.1002/wcms.1327
  6. Neese,F.; Wennmohs,F.; Becker,U.; Riplinger,C.
     The ORCA quantum chemistry program package
     J. Chem. Phys., 2020 152 Art. No. L224108
     doi.org/10.1063/5.0004608

List of optional additional citations

  1. Neese,F.
     Approximate second-order SCF convergence for spin unrestricted wavefunctions
     Chem. Phys. Lett., 2000 325(1-3)93-98
     doi.org/10.1016/s0009-2614(00)00662-x

Timings for individual modules:

Sum of individual times          ...      684.988 sec (=  11.416 min)
Startup calculation              ...       31.622 sec (=   0.527 min)   4.6 %
SCF iterations                   ...      370.055 sec (=   6.168 min)  54.0 %
Property integrals               ...       57.491 sec (=   0.958 min)   8.4 %
SCF Response                     ...       42.372 sec (=   0.706 min)   6.2 %
Property calculations            ...      105.711 sec (=   1.762 min)  15.4 %
SCF Gradient evaluation          ...       77.525 sec (=   1.292 min)  11.3 %
Geometry relaxation              ...        0.212 sec (=   0.004 min)   0.0 %
                             ****ORCA TERMINATED NORMALLY****
TOTAL RUN TIME: 0 days 0 hours 11 minutes 28 seconds 911 msec
