
                                 *****************
                                 * O   R   C   A *
                                 *****************

                                            #,                                       
                                            ###                                      
                                            ####                                     
                                            #####                                    
                                            ######                                   
                                           ########,                                 
                                     ,,################,,,,,                         
                               ,,#################################,,                 
                          ,,##########################################,,             
                       ,#########################################, ''#####,          
                    ,#############################################,,   '####,        
                  ,##################################################,,,,####,       
                ,###########''''           ''''###############################       
              ,#####''   ,,,,##########,,,,          '''####'''          '####       
            ,##' ,,,,###########################,,,                        '##       
           ' ,,###''''                  '''############,,,                           
         ,,##''                                '''############,,,,        ,,,,,,###''
      ,#''                                            '''#######################'''  
     '                                                          ''''####''''         
             ,#######,   #######,   ,#######,      ##                                
            ,#'     '#,  ##    ##  ,#'     '#,    #''#        ,####,   ,####,        
            ##       ##  ##   ,#'  ##            #'  '#       #'       #'  '#        
            ##       ##  #######   ##           ,######,      #####,   #    #        
            '#,     ,#'  ##    ##  '#,     ,#' ,#      #,     #,   #   #,  ,#        
             '#######'   ##     ##  '#######'  #'      '#     '####' # '####'        



                #########################################################
                #                        -***-                          #
                #          Department of theory and spectroscopy        #
                #                                                       #
                #                      Frank Neese                      #
                #                                                       #
                #     Directorship, Architecture, Infrastructure        #
                #                    SHARK, DRIVERS                     #
                #        Core code/Algorithms in most modules           #
                #                                                       #
                #        Max Planck Institute fuer Kohlenforschung      #
                #                Kaiser Wilhelm Platz 1                 #
                #                 D-45470 Muelheim/Ruhr                 #
                #                      Germany                          #
                #                                                       #
                #                  All rights reserved                  #
                #                        -***-                          #
                #########################################################


                         Program Version 6.0.1  -  RELEASE   -


 With contributions from (in alphabetic order):
[Max-Planck-Institut fuer Kohlenforschung]                               
  Daniel Aravena         : Magnetic Suceptibility                        
  Michael Atanasov       : Ab Initio Ligand Field Theory (pilot matlab implementation)
  Alexander A. Auer      : GIAO ZORA, VPT2 properties, NMR spectrum      
  Ute Becker             : All parallelization in ORCA, NUMFREQ, NUMCALC 
  Giovanni Bistoni       : ED, misc. LED, open-shell LED, HFLD           
  Martin Brehm           : Molecular dynamics                            
  Dmytro Bykov           : pre 5.0 version of the SCF Hessian            
  Marcos Casanova-Páez   : Triplet and SCS-CIS(D). UHF-(DLPNO)-IP/EA/STEOM-CCSD. UHF-CVS-IP/STEOM-CCSD   
  Vijay G. Chilkuri      : MRCI spin determinant printing, contributions to CSF-ICE 
  Pauline Colinet        : FMM embedding                                 
  Dipayan Datta          : RHF DLPNO-CCSD density                        
  Achintya Kumar Dutta   : EOM-CC, STEOM-CC                              
  Nicolas Foglia         : Exact transition moments, OPA infrastructure, MCD improvements    
  Dmitry Ganyushin       : Spin-Orbit,Spin-Spin,Magnetic field MRCI      
  Miquel Garcia-Rates    : C-PCM and meta-GGA Hessian, CCSD/C-PCM, Gaussian charge scheme 
  Tiago L. C. Gouveia    : GS-ROHF, GS-ROCIS                             
  Yang Guo               : DLPNO-NEVPT2, F12-NEVPT2, CIM, IAO-localization        
  Andreas Hansen         : Spin unrestricted coupled pair/coupled cluster methods 
  Ingolf Harden          : AUTO-CI MPn and infrastructure                
  Benjamin Helmich-Paris : MC-RPA, TRAH-(SCF,CASSCF), AVAS, COSX integrals, SCF dyn. polar. 
  Lee Huntington         : MR-EOM, pCC                                   
  Robert Izsak           : Overlap fitted RIJCOSX, COSX-SCS-MP3, EOM     
  Riya Kayal             : Wick's Theorem for AUTO-CI, AUTO-CI UHF-CCSDT 
  Emily Kempfer          : AUTO-CI, RHF CISDT and CCSDT                  
  Christian Kollmar      : KDIIS, OOCD, Brueckner-CCSD(T), CCSD density, CASPT2, CASPT2-K, improved NEVPT2 
  Axel Koslowski         : Symmetry handling                             
  Simone Kossmann        : meta-GGA functionals, TD-DFT gradient, OOMP2, (MP2 Hessian; deprecated post 5.0) 
  Lucas Lang             : DCDCAS                                        
  Marvin Lechner         : AUTO-CI (C++ implementation), FIC-MRCC        
  Spencer Leger          : CASSCF response                               
  Dagmar Lenk            : GEPOL surface, SMD, ORCA-2-JSON               
  Dimitrios Liakos       : Extrapolation schemes; Compound Job, initial MDCI parallelization 
  Dimitrios Manganas     : Further ROCIS development; embedding schemes. LFT, Crystal Embedding 
  Dimitrios Pantazis     : SARC Basis sets                               
  Anastasios Papadopoulos: AUTO-CI, single reference methods and gradients 
  Taras Petrenko         : pre 6.0 DFT Hessian and TD-DFT gradient, (ASA, deprecated), ECA, 1-Electron XAS/XES, NRVS 
  Peter Pinski           : DLPNO-MP2, DLPNO-MP2 Gradient                 
  Christoph Reimann      : Effective Core Potentials                     
  Marius Retegan         : Local ZFS, SOC                                
  Christoph Riplinger    : Optimizer, TS searches, QM/MM, DLPNO-CCSD(T), (RO)-DLPNO pert. Triples 
  Michael Roemelt        : Original ROCIS implementation                 
  Masaaki Saitow         : Open-shell DLPNO-CCSD energy and density      
  Barbara Sandhoefer     : DKH picture change effects                    
  Kantharuban Sivalingam : CASSCF convergence/infrastructure, NEVPT2 and variants, FIC-MRCI 
  Bernardo de Souza      : ESD, SOC TD-DFT                               
  Georgi L. Stoychev     : AutoAux, RI-MP2 NMR, DLPNO-MP2 response, X2C  
  Van Anh Tran           : RI-MP2 g-tensors                              
  Willem Van den Heuvel  : Paramagnetic NMR                              
  Zikuan Wang            : NOTCH, Electric field optimization            
  Frank Wennmohs         : Technical directorship and infrastructure     
  Hang Xu                : AUTO-CI-Response properties                   
                                                                         
[FACCTs GmbH]                                                            
  Markus Bursch, Miquel Garcia-Rates, Christoph Riplinger, Bernardo de Souza, Georgi L. Stoychev 
                                                                 
  APM, Basis sets (HGBS, AHGBS, def-TZVP (Ac-Lr), def2-XVPD (La-Lu)), CI-OPT, improved COSX, DLPNO-Multilevel,           
  DOCKER, DRACO, updates on ESD, GOAT, IRC, LR-CPCM, MBIS, meta-GGA TD-DFT gradient, ML-optimized integration grids, 
  MM, NACMEs, nearIR, NEB, NEB-TS, NL-DFT gradient (VV10), 2- and 3-layer-ONIOM, interface openCOSMO-RS, QMMM,   
  Crystal-QMMM, SF, symmetry and pop. for TD-DFT, r2SCAN hybrids, SOLVATOR                                   
                                                                         
[Other institutions]                                                     
  V. Asgeirsson          : NEB                                           
  Christoph Bannwarth    : sTDA-DFT, sTD-DFT, PBEh-3c, B97-3c, D3        
  Sebastian Ehlert       : rSCAN, r2SCAN, r2SCAN-3c, D4, dhf basis sets  
  Marvin Friede          : D4 for Fr, Ra, Ac-Lr                          
  Lars Goerigk           : TD-DFT with DH, B97 family of functionals     
  Stefan Grimme          : VdW corrections, initial TS optimization, DFT functionals, gCP, sTDA/sTD-DF 
  Waldemar Hujo          : DFT-NL                                        
  H. Jonsson             : NEB                                           
  Holger Kruse           : gCP                                           
  Marcel Mueller         : wB97X-3c, vDZP basis set                      
  Hagen Neugebauer       : wr2SCAN                                       
  Tobias Risthaus        : range-separated hybrid DFT                    
  Lukas Wittmann         : regularized MP2, r2SCAN double-hybrids, wr2SCAN        
                                                                         
We gratefully acknowledge several colleagues who have allowed us to      
interface, adapt or use parts of their codes:                            
  Ed Valeev, F. Pavosevic, A. Kumar             : LibInt (2-el integral package), F12 methods 
  Garnet Chan, S. Sharma, J. Yang, R. Olivares  : DMRG                   
  Ulf Ekstrom                                   : XCFun DFT Library      
  Mihaly Kallay                                 : mrcc  (arbitrary order and MRCC methods)
  Frank Weinhold                                : gennbo (NPA and NBO analysis)           
  Simon Mueller                                 : openCOSMO-RS                            
  Christopher J. Cramer and Donald G. Truhlar   : smd solvation model                     
  S Lehtola, MJT Oliveira, MAL Marques          : LibXC Library                           
  Liviu Ungur et al                             : ANISO software                          


 Your calculation uses the libint2 library for the computation of 2-el integrals
 For citations please refer to: http://libint.valeyev.net

 Your ORCA version has been built with support for libXC version: 6.2.2
 For citations please refer to: https://libxc.gitlab.io

 This ORCA versions uses:
   CBLAS   interface :  Fast vector & matrix operations
   LAPACKE interface :  Fast linear algebra routines
   SCALAPACK package :  Parallel linear algebra routines
   Shared memory     :  Shared parallel matrices
   BLAS/LAPACK       :  OpenBLAS 0.3.27  USE64BITINT DYNAMIC_ARCH NO_AFFINITY SkylakeX SINGLE_THREADED
        Core in use  :  SkylakeX
   Copyright (c) 2011-2014, The OpenBLAS Project


Your calculation utilizes the atom-pairwise dispersion correction
based on EEQ partial charges (D4)


================================================================================

cite the ECPs for C  [vDZP-ECP], O  [vDZP-ECP] as follows:
   B-Ne (ecp-2-mwb), Al-Ar (ecp-10-mwb), Ga-Kr (ecp-28-mwb), Y-Cd (ecp-28-mwb), In-Xe (ecp-46-mwb):
     A. Bergner, M. Dolg, W. Küchle, H. Stoll, and H. Preuß, Mol. Phys. 80, 1431 (1993)., T. Leininger, A. Berning, A. Nicklass, H. Stoll, H.-J. Werner, and H.-J.Flad, Chem. Phys. 217, 19 (1997).
   Na-Mg, K-Ca, Rb-Sr, Cs-Ba (CRENBL):
     L. Fernandez Pacios and P. A. Christiansen, J. Chem. Phys. 82, 2664 (1985)., M. M. Hurley, L. F. Pacios, P. A. Christiansen, R. B. Ross, and W. C. Ermler, J. Chem. Phys. 84, 6840 (1986)., L. A. LaJohn, P. A. Christiansen, R. B. Ross, T. Atashroo, and W. C. Ermler, J. Chem. Phys. 87, 2812 (1987)., R. B. Ross, J. M. Powers, T. Atashroo, W. C. Ermler, L. A. LaJohn, and P. A. Christiansen, J. Chem. Phys. 93, 6654 (1990). 
   Sc-Zn (ecp-10-mdf):
     M. Dolg, U. Wedig, H. Stoll, and H. Preuss, J. Chem. Phys. 86, 866 (1986). 
   Y-Cd (ecp-28-mwb), Hf-Hg (ecp-60-mwb):
     D. Andrae, U. Häußermann, M. Dolg, H. Stoll, and H. Preuß, Theor. Chim. Acta 77, 123 (1990). 
   La (ecp-46-mwb):
     M. Dolg, H. Stoll, and H. Preuss, J. Chem. Phys. 90, 1730 (1989)., M. Dolg, H. Stoll, and H. Preuss, Theor. Chim. Acta 85, 441 (1993).
   Ce-Lu (SBKJC-ecp):
     T. R. Cundari and W. J. Stevens, J. Chem. Phys. 98, 5555 (1993).
   Tl-Rn (ecp-78-mwb):
     W. Küchle, M. Dolg, H. Stoll, and H. Preuss, Mol. Phys. 74, 1245 (1991).

ECP parameters for C  [vDZP-ECP], O  [vDZP-ECP] have been obtained from:
MM, AH, SG, J. Chem. Phys. 158, 014103 (2023), 10.1063/5.0133026

----- Orbital basis set information -----
Your calculation utilizes the basis: vDZP
   Marcel Mueller, Andreas Hansen, Stefan Grimme 
   J. Chem. Phys. 158, 014103 (2023). DOI: 10.1063/5.0133026

----- AuxJ basis set information -----
Your calculation utilizes the auxiliary basis: def2/J
   F. Weigend, Phys. Chem. Chem. Phys. 8, 1057 (2006).

================================================================================
                                        WARNINGS
                       Please study these warnings very carefully!
================================================================================

WARNING: Frozen-Core approximation turned on, but there are no core electrons.
  ===> : Turning off frozen-core approximation


WARNING: Geometry Optimization
  ===> : Switching off AutoStart
         For restart on a previous wavefunction, please use MOREAD

================================================================================
                                       INPUT FILE
================================================================================
NAME = ./output/_z_rose_oxide/_z_rose_oxide.inp
|  1> ! wB97X-3c OPT FREQ TightSCF
|  2> %pal
|  3>   nprocs 40
|  4> end
|  5> * xyz 0 1
|  6> C     -2.900673    -1.541685    -0.814697
|  7> C     -2.107005    -0.236168    -0.701197
|  8> C     -2.381626     0.457692     0.640988
|  9> C     -1.481041     1.690135     0.782867
| 10> O     -0.113948     1.330910     0.705022
| 11> C      0.188064     0.803408    -0.576118
| 12> C     -0.599711    -0.492993    -0.856458
| 13> C      1.676941     0.563967    -0.718811
| 14> C      2.493691     0.003693     0.206345
| 15> C      3.943877    -0.194706    -0.156853
| 16> C      2.023195    -0.397511     1.586238
| 17> H     -2.710502    -2.018573    -1.799817
| 18> H     -3.988927    -1.334160    -0.732937
| 19> H     -2.609598    -2.251214    -0.010426
| 20> H     -2.438027     0.438668    -1.522906
| 21> H     -2.176443    -0.240014     1.483162
| 22> H     -3.446813     0.771507     0.694483
| 23> H     -1.665584     2.148817     1.776967
| 24> H     -1.738946     2.457920     0.018060
| 25> H     -0.081495     1.549063    -1.361061
| 26> H     -0.389428    -0.837562    -1.893118
| 27> H     -0.285776    -1.297158    -0.159731
| 28> H      2.112099     0.860774    -1.670740
| 29> H      4.404317     0.782999    -0.413520
| 30> H      4.021096    -0.873059    -1.032905
| 31> H      4.523331    -0.639734     0.678559
| 32> H      1.164336    -1.093068     1.528970
| 33> H      2.825493    -0.915210     2.151650
| 34> H      1.739106     0.503265     2.167983
| 35> *
| 36> 
| 37>                          ****END OF INPUT****
================================================================================

                       *****************************
                       * Geometry Optimization Run *
                       *****************************

Geometry optimization settings:
Update method            Update   .... BFGS
Choice of coordinates    CoordSys .... (2022) Redundant Internals
Initial Hessian          InHess   .... Almloef's Model
Max. no of cycles        MaxIter  .... 87

Convergence Tolerances:
Energy Change            TolE     ....  5.0000e-06 Eh
Max. Gradient            TolMAXG  ....  3.0000e-04 Eh/bohr
RMS Gradient             TolRMSG  ....  1.0000e-04 Eh/bohr
Max. Displacement        TolMAXD  ....  4.0000e-03 bohr
RMS Displacement         TolRMSD  ....  2.0000e-03 bohr
Strict Convergence                .... False

------------------------------------------------------------------------------
                        ORCA OPTIMIZATION COORDINATE SETUP
------------------------------------------------------------------------------

The optimization will be done in redundant internal coordinates (2022)
Making redundant internal coordinates   ...  (2022 redundants) done
Evaluating the initial hessian          ...  (Almloef) done
Evaluating the coordinates              ...  done
Calculating the B-matrix                .... done
Calculating the G-matrix                .... done
Diagonalizing the G-matrix              .... done
Small eigenvalue found = 8.495e-03
Small eigenvalue found = 1.671e-02
The first mode is                       ....   58
The number of degrees of freedom        ....   81

    -----------------------------------------------------------------
                    Redundant Internal Coordinates


    -----------------------------------------------------------------
         Definition                    Initial Value    Approx d2E/dq
    -----------------------------------------------------------------
      1. B(C   1,C   0)                  1.5320         0.370777   
      2. B(C   2,C   1)                  1.5357         0.365858   
      3. B(C   3,C   2)                  1.5330         0.369476   
      4. B(O   4,C   3)                  1.4156         0.509288   
      5. B(C   5,O   4)                  1.4180         0.504855   
      6. B(C   6,C   5)                  1.5427         0.356583   
      7. B(C   6,C   1)                  1.5369         0.364251   
      8. B(C   7,C   5)                  1.5147         0.395110   
      9. B(C   8,C   7)                  1.3553         0.709681   
     10. B(C   9,C   8)                  1.5081         0.404897   
     11. B(C  10,C   8)                  1.5121         0.398971   
     12. B(H  11,C   0)                  1.1109         0.333514   
     13. B(H  12,C   0)                  1.1109         0.333515   
     14. B(H  13,C   0)                  1.1113         0.332986   
     15. B(H  14,C   1)                  1.1136         0.330152   
     16. B(H  15,C   2)                  1.1127         0.331262   
     17. B(H  16,C   2)                  1.1117         0.332460   
     18. B(H  17,C   3)                  1.1103         0.334270   
     19. B(H  18,C   3)                  1.1140         0.329742   
     20. B(H  19,C   5)                  1.1157         0.327651   
     21. B(H  20,C   6)                  1.1125         0.331557   
     22. B(H  21,C   6)                  1.1094         0.335387   
     23. B(H  22,C   7)                  1.0879         0.362828   
     24. B(H  23,C   9)                  1.1108         0.333657   
     25. B(H  24,C   9)                  1.1107         0.333766   
     26. B(H  25,C   9)                  1.1098         0.334796   
     27. B(H  26,C  10)                  1.1067         0.338710   
     28. B(H  27,C  10)                  1.1097         0.334987   
     29. B(H  28,C  10)                  1.1093         0.335461   
     30. A(H  12,C   0,H  13)          108.8199         0.283882   
     31. A(C   1,C   0,H  12)          110.0507         0.319876   
     32. A(H  11,C   0,H  13)          108.8362         0.283882   
     33. A(H  11,C   0,H  12)          108.2502         0.283952   
     34. A(C   1,C   0,H  11)          110.0492         0.319876   
     35. A(C   1,C   0,H  13)          110.7785         0.319793   
     36. A(C   0,C   1,C   2)          110.9239         0.361594   
     37. A(C   2,C   1,C   6)          109.8271         0.360501   
     38. A(C   2,C   1,H  14)          108.5384         0.318652   
     39. A(C   0,C   1,H  14)          107.9222         0.319347   
     40. A(C   0,C   1,C   6)          110.9890         0.361323   
     41. A(C   6,C   1,H  14)          108.5568         0.318423   
     42. A(H  15,C   2,H  16)          108.4967         0.283514   
     43. A(C   1,C   2,H  16)          109.9337         0.319014   
     44. A(C   3,C   2,H  15)          109.0091         0.319339   
     45. A(C   3,C   2,H  16)          109.3587         0.319527   
     46. A(C   1,C   2,C   3)          109.8205         0.361377   
     47. A(C   1,C   2,H  15)          110.1948         0.318826   
     48. A(O   4,C   3,H  17)          108.3357         0.335158   
     49. A(C   2,C   3,H  17)          108.5029         0.319811   
     50. A(C   2,C   3,O   4)          110.9912         0.380136   
     51. A(C   2,C   3,H  18)          110.7659         0.319099   
     52. A(H  17,C   3,H  18)          106.9479         0.283550   
     53. A(O   4,C   3,H  18)          111.1444         0.334399   
     54. A(C   3,O   4,C   5)          110.4723         0.398881   
     55. A(O   4,C   5,C   6)          111.5944         0.377234   
     56. A(C   6,C   5,C   7)          110.6084         0.363942   
     57. A(C   7,C   5,H  19)          106.0722         0.322283   
     58. A(O   4,C   5,C   7)          110.6866         0.384006   
     59. A(C   6,C   5,H  19)          108.0839         0.316928   
     60. A(O   4,C   5,H  19)          109.6062         0.333562   
     61. A(H  20,C   6,H  21)          107.8924         0.283939   
     62. A(C   5,C   6,H  21)          110.5199         0.318135   
     63. A(C   5,C   6,H  20)          109.4570         0.317541   
     64. A(C   1,C   6,H  20)          109.3465         0.318644   
     65. A(C   1,C   6,C   5)          110.0010         0.358927   
     66. A(C   1,C   6,H  21)          109.5865         0.319241   
     67. A(C   5,C   7,C   8)          126.3969         0.410287   
     68. A(C   8,C   7,H  22)          117.9699         0.361568   
     69. A(C   5,C   7,H  22)          115.6233         0.327730   
     70. A(C   9,C   8,C  10)          118.9523         0.372587   
     71. A(C   7,C   8,C  10)          123.0317         0.410995   
     72. A(C   7,C   8,C   9)          118.0003         0.412071   
     73. A(H  24,C   9,H  25)          108.2113         0.284155   
     74. A(H  23,C   9,H  25)          108.0871         0.284140   
     75. A(C   8,C   9,H  25)          111.9336         0.324727   
     76. A(H  23,C   9,H  24)          109.0575         0.284004   
     77. A(C   8,C   9,H  24)          109.7043         0.324562   
     78. A(C   8,C   9,H  23)          109.7834         0.324545   
     79. A(H  26,C  10,H  28)          109.8011         0.284893   
     80. A(C   8,C  10,H  28)          110.0481         0.324047   
     81. A(H  26,C  10,H  27)          107.1125         0.284831   
     82. A(C   8,C  10,H  27)          111.3337         0.323972   
     83. A(H  27,C  10,H  28)          107.2646         0.284404   
     84. A(C   8,C  10,H  26)          111.1628         0.324560   
     85. D(C   6,C   1,C   0,H  13)     61.4249         0.010987   
     86. D(C   2,C   1,C   0,H  13)    -60.9608         0.010987   
     87. D(C   6,C   1,C   0,H  11)    -58.9777         0.010987   
     88. D(C   6,C   1,C   0,H  12)   -178.1918         0.010987   
     89. D(C   2,C   1,C   0,H  12)     59.4224         0.010987   
     90. D(C   2,C   1,C   0,H  11)    178.6365         0.010987   
     91. D(C   3,C   2,C   1,C   0)    174.8435         0.010715   
     92. D(H  15,C   2,C   1,H  14)    173.1502         0.010715   
     93. D(H  15,C   2,C   1,C   6)    -68.3131         0.010715   
     94. D(C   3,C   2,C   1,C   6)     51.7850         0.010715   
     95. D(H  15,C   2,C   1,C   0)     54.7455         0.010715   
     96. D(C   3,C   2,C   1,H  14)    -66.7518         0.010715   
     97. D(O   4,C   3,C   2,H  15)     62.1592         0.010915   
     98. D(O   4,C   3,C   2,C   1)    -58.6569         0.010915   
     99. D(O   4,C   3,C   2,H  16)   -179.3709         0.010915   
    100. D(H  17,C   3,C   2,H  16)     61.7008         0.010915   
    101. D(H  17,C   3,C   2,H  15)    -56.7690         0.010915   
    102. D(H  17,C   3,C   2,C   1)   -177.5852         0.010915   
    103. D(C   5,O   4,C   3,H  18)    -59.7072         0.020531   
    104. D(C   5,O   4,C   3,H  17)   -176.9291         0.020531   
    105. D(C   5,O   4,C   3,C   2)     64.0421         0.020531   
    106. D(H  19,C   5,O   4,C   3)     56.9284         0.020163   
    107. D(C   7,C   5,O   4,C   3)    173.5851         0.020163   
    108. D(C   6,C   5,O   4,C   3)    -62.7664         0.020163   
    109. D(H  20,C   6,C   1,H  14)    -52.1274         0.010628   
    110. D(H  20,C   6,C   1,C   2)   -170.6528         0.010628   
    111. D(H  20,C   6,C   1,C   0)     66.3270         0.010628   
    112. D(C   5,C   6,C   1,H  14)     68.1039         0.010628   
    113. D(C   5,C   6,C   1,C   2)    -50.4215         0.010628   
    114. D(C   1,C   6,C   5,O   4)     56.0306         0.010215   
    115. D(C   5,C   6,C   1,C   0)   -173.4417         0.010628   
    116. D(H  20,C   6,C   5,H  19)     55.6055         0.010215   
    117. D(H  20,C   6,C   5,C   7)    -60.1121         0.010215   
    118. D(H  20,C   6,C   5,O   4)    176.1951         0.010215   
    119. D(C   1,C   6,C   5,H  19)    -64.5589         0.010215   
    120. D(C   1,C   6,C   5,C   7)    179.7234         0.010215   
    121. D(H  22,C   7,C   5,C   6)     98.3320         0.011599   
    122. D(H  22,C   7,C   5,O   4)   -137.4538         0.011599   
    123. D(C   8,C   7,C   5,H  19)    162.5434         0.011599   
    124. D(C   8,C   7,C   5,C   6)    -80.4907         0.011599   
    125. D(C   8,C   7,C   5,O   4)     43.7234         0.011599   
    126. D(C  10,C   8,C   7,H  22)    177.3702         0.035555   
    127. D(C  10,C   8,C   7,C   5)     -3.8316         0.035555   
    128. D(C   9,C   8,C   7,H  22)     -1.1727         0.035555   
    129. D(C   9,C   8,C   7,C   5)    177.6254         0.035555   
    130. D(H  25,C   9,C   8,C   7)    178.8099         0.012154   
    131. D(H  24,C   9,C   8,C  10)    120.3434         0.012154   
    132. D(H  24,C   9,C   8,C   7)    -61.0526         0.012154   
    133. D(H  23,C   9,C   8,C  10)   -119.8286         0.012154   
    134. D(H  23,C   9,C   8,C   7)     58.7754         0.012154   
    135. D(H  28,C  10,C   8,C   7)    -66.1141         0.011816   
    136. D(H  27,C  10,C   8,C   9)     -6.3804         0.011816   
    137. D(H  27,C  10,C   8,C   7)    175.0899         0.011816   
    138. D(H  26,C  10,C   8,C   9)   -125.7168         0.011816   
    139. D(H  26,C  10,C   8,C   7)     55.7535         0.011816   
    -----------------------------------------------------------------

Number of atoms                         .... 29
Number of degrees of freedom            .... 139


         *************************************************************
         *                GEOMETRY OPTIMIZATION CYCLE   1            *
         *************************************************************
---------------------------------
CARTESIAN COORDINATES (ANGSTROEM)
---------------------------------
  C     -2.900673   -1.541685   -0.814697
  C     -2.107005   -0.236168   -0.701197
  C     -2.381626    0.457692    0.640988
  C     -1.481041    1.690135    0.782867
  O     -0.113948    1.330910    0.705022
  C      0.188064    0.803408   -0.576118
  C     -0.599711   -0.492993   -0.856458
  C      1.676941    0.563967   -0.718811
  C      2.493691    0.003693    0.206345
  C      3.943877   -0.194706   -0.156853
  C      2.023195   -0.397511    1.586238
  H     -2.710502   -2.018573   -1.799817
  H     -3.988927   -1.334160   -0.732937
  H     -2.609598   -2.251214   -0.010426
  H     -2.438027    0.438668   -1.522906
  H     -2.176443   -0.240014    1.483162
  H     -3.446813    0.771507    0.694483
  H     -1.665584    2.148817    1.776967
  H     -1.738946    2.457920    0.018060
  H     -0.081495    1.549063   -1.361061
  H     -0.389428   -0.837562   -1.893118
  H     -0.285776   -1.297158   -0.159731
  H      2.112099    0.860774   -1.670740
  H      4.404317    0.782999   -0.413520
  H      4.021096   -0.873059   -1.032905
  H      4.523331   -0.639734    0.678559
  H      1.164336   -1.093068    1.528970
  H      2.825493   -0.915210    2.151650
  H      1.739106    0.503265    2.167983

----------------------------
CARTESIAN COORDINATES (A.U.)
----------------------------
  NO LB      ZA    FRAG     MASS         X           Y           Z
   0 C     4.0000*   0    12.011   -5.481478   -2.913362   -1.539554
   1 C     4.0000*   0    12.011   -3.981662   -0.446293   -1.325070
   2 C     4.0000*   0    12.011   -4.500621    0.864913    1.211292
   3 C     4.0000*   0    12.011   -2.798762    3.193892    1.479404
   4 O     6.0000*   0    15.999   -0.215331    2.515055    1.332298
   5 C     4.0000*   0    12.011    0.355389    1.518221   -1.088705
   6 C     4.0000*   0    12.011   -1.133290   -0.931622   -1.618471
   7 C     4.0000*   0    12.011    3.168959    1.065743   -1.358356
   8 C     4.0000*   0    12.011    4.712393    0.006979    0.389936
   9 C     4.0000*   0    12.011    7.452847   -0.367941   -0.296409
  10 C     4.0000*   0    12.011    3.823284   -0.751187    2.997555
  11 H     1.0000    0     1.008   -5.122106   -3.814550   -3.401161
  12 H     1.0000    0     1.008   -7.537980   -2.521197   -1.385050
  13 H     1.0000    0     1.008   -4.931426   -4.254178   -0.019702
  14 H     1.0000    0     1.008   -4.607203    0.828962   -2.877875
  15 H     1.0000    0     1.008   -4.112881   -0.453561    2.802770
  16 H     1.0000    0     1.008   -6.513533    1.457937    1.312383
  17 H     1.0000    0     1.008   -3.147498    4.060676    3.357981
  18 H     1.0000    0     1.008   -3.286132    4.644796    0.034128
  19 H     1.0000    0     1.008   -0.154003    2.927305   -2.572033
  20 H     1.0000    0     1.008   -0.735912   -1.582763   -3.577475
  21 H     1.0000    0     1.008   -0.540038   -2.451273   -0.301848
  22 H     1.0000    0     1.008    3.991289    1.626627   -3.157241
  23 H     1.0000    0     1.008    8.322953    1.479654   -0.781440
  24 H     1.0000    0     1.008    7.598770   -1.649842   -1.951908
  25 H     1.0000    0     1.008    8.547857   -1.208922    1.282291
  26 H     1.0000    0     1.008    2.200276   -2.065599    2.889335
  27 H     1.0000    0     1.008    5.339408   -1.729496    4.066029
  28 H     1.0000    0     1.008    3.286434    0.951033    4.096894
* core charge reduced due to ECP

--------------------------------
INTERNAL COORDINATES (ANGSTROEM)
--------------------------------
 C      0   0   0     0.000000000000     0.00000000     0.00000000
 C      1   0   0     1.532046272641     0.00000000     0.00000000
 C      2   1   0     1.535681922621   110.92387688     0.00000000
 C      3   2   1     1.533003177138   109.82050382   174.84352030
 O      4   3   2     1.415643216103   110.99122217   301.34309741
 C      5   4   3     1.418023027933   110.47225192    64.04208878
 C      2   1   3     1.536880041247   110.98896405   122.38575443
 C      6   5   4     1.514743544584   110.68662241   173.58511312
 C      8   6   5     1.355323261038   126.39688236    43.72343647
 C      9   8   6     1.508083016614   118.00033989   177.62544671
 C      9   8   6     1.512096500585   123.03169936   356.16836104
 H      1   2   3     1.110877395658   110.04924937   178.63652130
 H      1   2   3     1.110877172212   110.05073460    59.42240470
 H      1   2   3     1.111309092425   110.77853090   299.03915086
 H      2   1   3     1.113635879478   107.92224800   241.22293210
 H      3   2   1     1.112722234972   110.19479263    54.74548324
 H      3   2   1     1.111739589211   109.93369333   295.20954888
 H      4   3   2     1.110261278246   108.50288745   182.41480571
 H      4   3   2     1.113974210877   110.76592368    65.30847343
 H      6   5   4     1.115705582470   109.60617637    56.92837271
 H      7   2   1     1.112479524059   109.34648216    66.32698610
 H      7   2   1     1.109353435105   109.58650311   308.25723648
 H      8   6   5     1.087945633409   115.62325474   222.54617816
 H     10   9   8     1.110761004678   109.78336163    58.77537619
 H     10   9   8     1.110672171828   109.70425176   298.94738054
 H     10   9   8     1.109833351744   111.93364491   178.80990127
 H     11   9   8     1.106669754694   111.16279499    55.75345058
 H     11   9   8     1.109677910544   111.33369146   175.08990681
 H     11   9   8     1.109293111455   110.04811201   293.88594235

---------------------------
INTERNAL COORDINATES (A.U.)
---------------------------
 C      0   0   0     0.000000000000     0.00000000     0.00000000
 C      1   0   0     2.895147879786     0.00000000     0.00000000
 C      2   1   0     2.902018262568   110.92387688     0.00000000
 C      3   2   1     2.896956167222   109.82050382   174.84352030
 O      4   3   2     2.675177981779   110.99122217   301.34309741
 C      5   4   3     2.679675174387   110.47225192    64.04208878
 C      2   1   3     2.904282378646   110.98896405   122.38575443
 C      6   5   4     2.862450462389   110.68662241   173.58511312
 C      8   6   5     2.561189786296   126.39688236    43.72343647
 C      9   8   6     2.849863888619   118.00033989   177.62544671
 C      9   8   6     2.857448274166   123.03169936   356.16836104
 H      1   2   3     2.099254046158   110.04924937   178.63652130
 H      1   2   3     2.099253623905   110.05073460    59.42240470
 H      1   2   3     2.100069834820   110.77853090   299.03915086
 H      2   1   3     2.104466825122   107.92224800   241.22293210
 H      3   2   1     2.102740287222   110.19479263    54.74548324
 H      3   2   1     2.100883355847   109.93369333   295.20954888
 H      4   3   2     2.098089752983   108.50288745   182.41480571
 H      4   3   2     2.105106178809   110.76592368    65.30847343
 H      6   5   4     2.108377996956   109.60617637    56.92837271
 H      7   2   1     2.102281630066   109.34648216    66.32698610
 H      7   2   1     2.096374178073   109.58650311   308.25723648
 H      8   6   5     2.055919295739   115.62325474   222.54617816
 H     10   9   8     2.099034099081   109.78336163    58.77537619
 H     10   9   8     2.098866229323   109.70425176   298.94738054
 H     10   9   8     2.097281089089   111.93364491   178.80990127
 H     11   9   8     2.091302757065   111.16279499    55.75345058
 H     11   9   8     2.096987347790   111.33369146   175.08990681
 H     11   9   8     2.096260182896   110.04811201   293.88594235

---------------------
BASIS SET INFORMATION
---------------------
There are 3 groups of distinct atoms

 Group   1 Type C   : 6s6p2d contracted to 2s2p1d pattern {42/42/2}
 Group   2 Type O   : 6s6p2d contracted to 2s2p1d pattern {42/42/2}
 Group   3 Type H   : 8s2p contracted to 2s1p pattern {53/2}

Atom   0C    basis set group =>   1
Atom   1C    basis set group =>   1
Atom   2C    basis set group =>   1
Atom   3C    basis set group =>   1
Atom   4O    basis set group =>   2
Atom   5C    basis set group =>   1
Atom   6C    basis set group =>   1
Atom   7C    basis set group =>   1
Atom   8C    basis set group =>   1
Atom   9C    basis set group =>   1
Atom  10C    basis set group =>   1
Atom  11H    basis set group =>   3
Atom  12H    basis set group =>   3
Atom  13H    basis set group =>   3
Atom  14H    basis set group =>   3
Atom  15H    basis set group =>   3
Atom  16H    basis set group =>   3
Atom  17H    basis set group =>   3
Atom  18H    basis set group =>   3
Atom  19H    basis set group =>   3
Atom  20H    basis set group =>   3
Atom  21H    basis set group =>   3
Atom  22H    basis set group =>   3
Atom  23H    basis set group =>   3
Atom  24H    basis set group =>   3
Atom  25H    basis set group =>   3
Atom  26H    basis set group =>   3
Atom  27H    basis set group =>   3
Atom  28H    basis set group =>   3
---------------------------------
AUXILIARY/J BASIS SET INFORMATION
---------------------------------
There are 3 groups of distinct atoms

 Group   1 Type C   : 12s5p4d2f1g contracted to 6s4p3d1f1g pattern {711111/2111/211/2/1}
 Group   2 Type O   : 12s5p4d2f1g contracted to 6s4p3d1f1g pattern {711111/2111/211/2/1}
 Group   3 Type H   : 5s2p1d contracted to 3s1p1d pattern {311/2/1}

Atom   0C    basis set group =>   1
Atom   1C    basis set group =>   1
Atom   2C    basis set group =>   1
Atom   3C    basis set group =>   1
Atom   4O    basis set group =>   2
Atom   5C    basis set group =>   1
Atom   6C    basis set group =>   1
Atom   7C    basis set group =>   1
Atom   8C    basis set group =>   1
Atom   9C    basis set group =>   1
Atom  10C    basis set group =>   1
Atom  11H    basis set group =>   3
Atom  12H    basis set group =>   3
Atom  13H    basis set group =>   3
Atom  14H    basis set group =>   3
Atom  15H    basis set group =>   3
Atom  16H    basis set group =>   3
Atom  17H    basis set group =>   3
Atom  18H    basis set group =>   3
Atom  19H    basis set group =>   3
Atom  20H    basis set group =>   3
Atom  21H    basis set group =>   3
Atom  22H    basis set group =>   3
Atom  23H    basis set group =>   3
Atom  24H    basis set group =>   3
Atom  25H    basis set group =>   3
Atom  26H    basis set group =>   3
Atom  27H    basis set group =>   3
Atom  28H    basis set group =>   3
-------------------------
ECP PARAMETER INFORMATION
-------------------------

 Group 1, Type C  ECP vDZP-ECP (replacing 2 core electrons, lmax=3)
 Group 2, Type O  ECP vDZP-ECP (replacing 2 core electrons, lmax=3)

Atom   0C    ECP group =>   1
Atom   1C    ECP group =>   1
Atom   2C    ECP group =>   1
Atom   3C    ECP group =>   1
Atom   4O    ECP group =>   2
Atom   5C    ECP group =>   1
Atom   6C    ECP group =>   1
Atom   7C    ECP group =>   1
Atom   8C    ECP group =>   1
Atom   9C    ECP group =>   1
Atom  10C    ECP group =>   1



           ************************************************************
           *        Program running with 40 parallel MPI-processes    *
           *              working on a common directory               *
           ************************************************************
------------------------------------------------------------------------------
                             ORCA STARTUP CALCULATIONS
                           -- RI-GTO INTEGRALS CHOSEN --
------------------------------------------------------------------------------
------------------------------------------------------------------------------
                   ___                                                        
                  /   \      - P O W E R E D   B Y -                         
                 /     \                                                     
                 |  |  |   _    _      __       _____    __    __             
                 |  |  |  | |  | |    /  \     |  _  \  |  |  /  |          
                  \  \/   | |  | |   /    \    | | | |  |  | /  /          
                 / \  \   | |__| |  /  /\  \   | |_| |  |  |/  /          
                |  |  |   |  __  | /  /__\  \  |    /   |      \           
                |  |  |   | |  | | |   __   |  |    \   |  |\   \          
                \     /   | |  | | |  |  |  |  | |\  \  |  | \   \       
                 \___/    |_|  |_| |__|  |__|  |_| \__\ |__|  \__/        
                                                                              
                      - O R C A' S   B I G   F R I E N D -                    
                                      &                                       
                       - I N T E G R A L  F E E D E R -                       
                                                                              
 v1 FN, 2020, v2 2021, v3 2022-2024                                           
------------------------------------------------------------------------------


----------------------
SHARK INTEGRAL PACKAGE
----------------------

Number of atoms                             ...     29
Number of basis functions                   ...    233
Number of shells                            ...    109
Maximum angular momentum                    ...      2
Integral batch strategy                     ... SHARK/LIBINT Hybrid
RI-J (if used) integral strategy            ... SPLIT-RIJ (Revised 2003 algorithm where possible)
Printlevel                                  ...      1
Contraction scheme used                     ... SEGMENTED contraction
Prescreening option                         ... SCHWARTZ
   Thresh                                   ... 2.500e-11
   Tcut                                     ... 2.500e-12
   Tpresel                                  ... 2.500e-12 
Coulomb Range Separation                    ... NOT USED
Exchange Range Separation                   ... Long Range
   Mu parameter                             ... 3.000e-01
   Scaling (regular/separated)              ... 1.670e-01 8.330e-01
Multipole approximations                    ... NOT USED
Finite Nucleus Model                        ... NOT USED
CABS basis                                  ... NOT available
Auxiliary Coulomb fitting basis             ... AVAILABLE
   # of basis functions in Aux-J            ...    737
   # of shells in Aux-J                     ...    255
   Maximum angular momentum in Aux-J        ...      4
Auxiliary J/K fitting basis                 ... NOT available
Auxiliary Correlation fitting basis         ... NOT available
Auxiliary 'external' fitting basis          ... NOT available

Checking pre-screening integrals            ... done (  0.0 sec) Dimension = 109
Check shell pair data                       ... done (  0.0 sec)
Shell pair information
Shell pair cut-off parameter TPreSel        ...   2.5e-12
Total number of shell pairs                 ...      5995
Shell pairs after pre-screening             ...      5961
Total number of primitive shell pairs       ...     56362
Primitive shell pairs kept                  ...     44418
          la=0 lb=0:   1707 shell pairs
          la=1 lb=0:   2304 shell pairs
          la=1 lb=1:    806 shell pairs
          la=2 lb=0:    638 shell pairs
          la=2 lb=1:    440 shell pairs
          la=2 lb=2:     66 shell pairs

Calculating one electron integrals          ... done (  0.0 sec)
Calculating ECP integrals                   ... done (  0.1 sec)
Calculating RI/J V-Matrix + Cholesky decomp.... done (  0.0 sec)
Calculating Nuclear repulsion               ... done (  0.0 sec) ENN=    359.965112746144 Eh

Diagonalization of the overlap matrix:
Smallest eigenvalue                        ... 1.069e-03
Time for diagonalization                   ...    0.007 sec
Threshold for overlap eigenvalues          ... 1.000e-07
Number of eigenvalues below threshold      ... 0
Time for construction of square roots      ...    0.005 sec
Total time needed                          ...    0.070 sec

-------------------
DFT GRID GENERATION
-------------------

General Integration Accuracy     IntAcc      ... 4.388
Radial Grid Type                 RadialGrid  ... OptM3 with GC (2021)
Angular Grid (max. ang.)         AngularGrid ... 4 (Lebedev-302)
Angular grid pruning method      GridPruning ... 4 (adaptive)
Weight generation scheme         WeightScheme... mBecke (2022)
Basis function cutoff            BFCut       ... 1.0000e-11
Integration weight cutoff        WCut        ... 1.0000e-14
Partially contracted basis set               ... off
Rotationally invariant grid construction     ... off
Angular grids for H and He will be reduced by one unit

Total number of grid points                  ...   123046
Total number of batches                      ...     1938
Average number of points per batch           ...       63
Average number of grid points per atom       ...     4243

--------------------
COSX GRID GENERATION
--------------------

GRIDX 1
-------
General Integration Accuracy     IntAcc      ... 3.816
Radial Grid Type                 RadialGrid  ... OptM3 with GC (2021)
Angular Grid (max. ang.)         AngularGrid ... 1 (Lebedev-50)
Angular grid pruning method      GridPruning ... 4 (adaptive)
Weight generation scheme         WeightScheme... mBecke (2022)
Basis function cutoff            BFCut       ... 1.0000e-11
Integration weight cutoff        WCut        ... 1.0000e-14
Partially contracted basis set               ... on
Rotationally invariant grid construction     ... off
Angular grids for H and He will be reduced by one unit

Total number of grid points                  ...    15747
Total number of batches                      ...      143
Average number of points per batch           ...      110
Average number of grid points per atom       ...      543
UseSFitting                                  ... on

GRIDX 2
-------
General Integration Accuracy     IntAcc      ... 4.020
Radial Grid Type                 RadialGrid  ... OptM3 with GC (2021)
Angular Grid (max. ang.)         AngularGrid ... 2 (Lebedev-110)
Angular grid pruning method      GridPruning ... 4 (adaptive)
Weight generation scheme         WeightScheme... mBecke (2022)
Basis function cutoff            BFCut       ... 1.0000e-11
Integration weight cutoff        WCut        ... 1.0000e-14
Partially contracted basis set               ... on
Rotationally invariant grid construction     ... off
Angular grids for H and He will be reduced by one unit

Total number of grid points                  ...    32772
Total number of batches                      ...      271
Average number of points per batch           ...      120
Average number of grid points per atom       ...     1130
UseSFitting                                  ... on

GRIDX 3
-------
General Integration Accuracy     IntAcc      ... 4.338
Radial Grid Type                 RadialGrid  ... OptM3 with GC (2021)
Angular Grid (max. ang.)         AngularGrid ... 3 (Lebedev-194)
Angular grid pruning method      GridPruning ... 4 (adaptive)
Weight generation scheme         WeightScheme... mBecke (2022)
Basis function cutoff            BFCut       ... 1.0000e-11
Integration weight cutoff        WCut        ... 1.0000e-14
Partially contracted basis set               ... on
Rotationally invariant grid construction     ... off
Angular grids for H and He will be reduced by one unit

Total number of grid points                  ...    71292
Total number of batches                      ...      573
Average number of points per batch           ...      124
Average number of grid points per atom       ...     2458
UseSFitting                                  ... on
Initializing property integral containers    ... done (  0.0 sec)

SHARK setup successfully completed in   3.7 seconds

Maximum memory used throughout the entire STARTUP-calculation: 37.6 MB


           ************************************************************
           *        Program running with 40 parallel MPI-processes    *
           *              working on a common directory               *
           ************************************************************
-------------------------------------------------------------------------------
                                 ORCA GUESS
                   Start orbitals & Density for SCF / CASSCF
-------------------------------------------------------------------------------

------------
SCF SETTINGS
------------
Hamiltonian:
 Density Functional     Method          .... DFT(GTOs)
 Exchange Functional    Exchange        .... WB97X-V
 Correlation Functional Correlation     .... WB97X-V
 Gradients option       PostSCFGGA      .... off
 Hybrid DFT is turned on
   Fraction HF Exchange ScalHFX         ....  0.167000
   Scaling of DF-GGA-X  ScalDFX         ....  0.000000
   Scaling of DF-GGA-C  ScalDFC         ....  1.000000
   Scaling of DF-LDA-C  ScalLDAC        ....  1.000000
   Perturbative correction              ....  0.000000
 Long-range corrected/Screened/Range-Separated Hybrid DFT is turned on
   Amount of maximum screened exact exchange              ....  0.833000
   Range separation parameter mu (erf(mu*r12)/r12)        ....  0.300000
   NL short-range parameter             ....  6.000000
   NL long-range parameter              ....  0.010000
 RI-approximation to the Coulomb term is turned on
   Number of AuxJ basis functions       .... 737
   RIJ-COSX (HFX calculated with COS-X)).... on


General Settings:
 Integral files         IntName         .... ./output/_z_rose_oxide/_z_rose_oxide
 Hartree-Fock type      HFTyp           .... RHF
 Total Charge           Charge          ....    0
 Multiplicity           Mult            ....    1
 Number of Electrons    NEL             ....   64
 Basis Dimension        Dim             ....  233
 Nuclear Repulsion      ENuc            ....    359.9651127461 Eh

Convergence Acceleration:
 AO-DIIS                CNVDIIS         .... on
   Start iteration      DIISMaxIt       ....    12
   Startup error        DIISStart       ....  0.200000
   # of expansion vecs  DIISMaxEq       ....     5
   Bias factor          DIISBfac        ....   1.050
   Max. coefficient     DIISMaxC        ....  10.000
 MO-DIIS                CNVKDIIS        .... off
 Trust-Rad. Augm. Hess. CNVTRAH         .... auto
   Auto Start mean grad. ratio tolernc. ....  1.125000
   Auto Start start iteration           ....    50
   Auto Start num. interpolation iter.  ....    10
   Max. Number of Micro iterations      ....    24
   Max. Number of Macro iterations      .... Maxiter - #DIIS iter
   Number of Davidson start vectors     ....     2
   Converg. threshold    (grad. norm)   ....   1.000e-05
   Grad. Scal. Fac. for Micro threshold ....   0.100
   Minimum threshold for Micro iter.    ....   1.000e-02
   NR start threshold (gradient norm)   ....   1.000e-04
   Initial trust radius                 ....   0.400
   Minimum AH scaling param. (alpha)    ....   1.000
   Maximum AH scaling param. (alpha)    .... 1000.000
   Quad. conv. algorithm                .... NR
   White noise on init. David. guess    .... on
   Maximum white noise                  ....   0.010
   Pseudo random numbers                .... off
   Inactive MOs                         .... canonical
   Orbital update algorithm             .... Taylor
   Preconditioner                       .... Diag
   Full preconditioner red. dimension   ....   250
 SOSCF                  CNVSOSCF        .... on
   Start iteration      SOSCFMaxIt      ....   150
   Startup grad/error   SOSCFStart      ....  0.003300
   Hessian update       SOSCFHessUp     .... L-BFGS
 Level Shifting         CNVShift        .... on
   Level shift para.    LevelShift      ....    0.2500
   Turn off err/grad.   ShiftErr        ....    0.0010
 Zerner damping         CNVZerner       .... off
 Static damping         CNVDamp         .... on
   Fraction old density DampFac         ....    0.7000
   Max. Damping (<1)    DampMax         ....    0.9800
   Min. Damping (>=0)   DampMin         ....    0.0000
   Turn off err/grad.   DampErr         ....    0.1000

SCF Procedure:
 Maximum # iterations   MaxIter         ....   125
 SCF integral mode      SCFMode         .... Direct
   Integral package                     .... SHARK and LIBINT hybrid scheme
 Reset frequency        DirectResetFreq ....    20
 Integral Threshold     Thresh          ....  2.500e-11 Eh
 Primitive CutOff       TCut            ....  2.500e-12 Eh

Convergence Tolerance:
 Convergence Check Mode ConvCheckMode   .... Total+1el-Energy
 Convergence forced     ConvForced      .... 0
 Energy Change          TolE            ....  1.000e-08 Eh
 1-El. energy change                    ....  1.000e-05 Eh
 Orbital Gradient       TolG            ....  1.000e-05
 Orbital Rotation angle TolX            ....  1.000e-05
 DIIS Error             TolErr          ....  5.000e-07

------------------------------
INITIAL GUESS: MODEL POTENTIAL
------------------------------
Loading Hartree-Fock densities                     ... done
Atomic calculation to generate a density for atom 0 (C  with ECP)
  Multiplicity assumed   :    1
  Atomic configuration   : 1s2 2s2 2p2 
  Number of open shells  : 1
  Command: /home/aspe232/Project/Software/ORCA/6_0_1/build/orca ./output/_z_rose_oxide/_z_rose_oxide_atom6.inp "" > ./output/_z_rose_oxide/_z_rose_oxide_atom6.out
Returned from the atomic calculation with res=0
Atomic calculation to generate a density for atom 4 (O  with ECP)
  Multiplicity assumed   :    3
  Atomic configuration   : 1s2 2s2 2p4 
  Number of open shells  : 1
  Command: /home/aspe232/Project/Software/ORCA/6_0_1/build/orca ./output/_z_rose_oxide/_z_rose_oxide_atom8.inp "" > ./output/_z_rose_oxide/_z_rose_oxide_atom8.out
Returned from the atomic calculation with res=0
Calculating cut-offs                               ... done
Initializing the effective Hamiltonian             ... done
Setting up the integral package (SHARK)            ... done
Starting the Coulomb interaction                   ... done (   0.1 sec)
Making the grid                                    ... done (   0.7 sec)
Mapping shells                                     ... done
Starting the XC term evaluation                    ... done (   0.1 sec)
  promolecular density results
     # of electrons  =     85.990696652
     EX              =    -42.887418925
     EC              =     -3.454044256
     EX+EC           =    -46.341463181
Transforming the Hamiltonian                       ... done (   0.0 sec)
Diagonalizing the Hamiltonian                      ... done (   0.0 sec)
Back transforming the eigenvectors                 ... done (   0.0 sec)
Now organizing SCF variables                       ... done
                      ------------------
                      INITIAL GUESS DONE (   1.9 sec)
                      ------------------
             **** ENERGY FILE WAS UPDATED (./output/_z_rose_oxide/_z_rose_oxide.en.tmp) ****
Finished Guess after   2.5 sec
Maximum memory used throughout the entire GUESS-calculation: 23.3 MB


           ************************************************************
           *        Program running with 40 parallel MPI-processes    *
           *              working on a common directory               *
           ************************************************************

-------------------------------------------------------------------------------------------
                                      ORCA LEAN-SCF
                              memory conserving SCF solver
-------------------------------------------------------------------------------------------

----------------------------------------D-I-I-S--------------------------------------------
Iteration    Energy (Eh)           Delta-E    RMSDP     MaxDP     DIISErr   Damp  Time(sec)
-------------------------------------------------------------------------------------------
               ***  Starting incremental Fock matrix formation  ***
    1    -83.3736152648265829     0.00e+00  3.62e-03  7.60e-02  1.86e-01  0.700   4.6
    2    -83.5618343300890842    -1.88e-01  2.65e-03  5.59e-02  1.12e-01  0.700   3.7
                               ***Turning on AO-DIIS***
    3    -83.6604529181479961    -9.86e-02  1.35e-03  2.94e-02  5.87e-02  0.700   4.0
    4    -83.7185787730733750    -5.81e-02  2.86e-03  5.82e-02  3.71e-02  0.000   3.7
    5    -83.8405821314768787    -1.22e-01  2.26e-04  4.47e-03  3.94e-03  0.000   3.8
                              *** Initializing SOSCF ***
---------------------------------------S-O-S-C-F--------------------------------------
Iteration    Energy (Eh)           Delta-E    RMSDP     MaxDP     MaxGrad    Time(sec)
--------------------------------------------------------------------------------------
    6    -83.8408892482017336    -3.07e-04  1.06e-04  3.56e-03  2.47e-03     3.7
               *** Restarting incremental Fock matrix formation ***
    7    -83.8409077873010915    -1.85e-05  6.53e-05  2.72e-03  4.05e-04     5.1
    8    -83.8409161697186960    -8.38e-06  3.27e-05  1.18e-03  3.83e-04     4.7
    9    -83.8409208907580705    -4.72e-06  6.52e-06  9.03e-05  2.26e-05     4.2
   10    -83.8409209574783745    -6.67e-08  2.32e-06  5.45e-05  1.57e-05     4.1
   11    -83.8409209729712757    -1.55e-08  7.34e-07  1.32e-05  5.66e-06     3.8
   12    -83.8409209868987091    -1.39e-08  2.34e-07  8.27e-06  2.55e-06     3.8
   13    -83.8409209919854561    -5.09e-09  8.10e-08  1.67e-06  6.25e-07     3.5
                 **** Energy Check signals convergence ****

               *****************************************************
               *                     SUCCESS                       *
               *           SCF CONVERGED AFTER  13 CYCLES          *
               *****************************************************

Recomputing exchange energy using gridx3       ... done (    4.425 sec)
Old exchange energy                            :    -12.289820586 Eh
New exchange energy                            :    -12.289811066 Eh
Exchange energy change after final integration :      0.000009520 Eh
Total energy after final integration           :    -83.840911471 Eh
             **** ENERGY FILE WAS UPDATED (./output/_z_rose_oxide/_z_rose_oxide.en.tmp) ****

----------------
TOTAL SCF ENERGY
----------------

Total Energy       :        -83.84091147149798 Eh           -2281.42719 eV

Components:
Nuclear Repulsion  :        359.96511274614437 Eh            9795.14869 eV
Electronic Energy  :       -443.80603373812983 Eh          -12076.57614 eV
One Electron Energy:       -839.97851593860184 Eh          -22856.97744 eV
Two Electron Energy:        396.17248220047202 Eh           10780.40131 eV

Virial components:
Potential Energy   :       -149.54218494705449 Eh           -4069.24973 eV
Kinetic Energy     :         65.70127347555652 Eh            1787.82254 eV
Virial Ratio       :          2.27609263924983

DFT components:
N(Alpha)           :       32.000036341631 electrons
N(Beta)            :       32.000036341631 electrons
N(Total)           :       64.000072683262 electrons
E(X)               :      -12.981409447084 Eh       
E(C)               :       -2.401491651197 Eh       
E(XC)              :      -15.382901098280 Eh       

---------------
SCF CONVERGENCE
---------------

  Last Energy change         ...    5.0867e-09  Tolerance :   1.0000e-08
  Last MAX-Density change    ...    1.6675e-06  Tolerance :   1.0000e-07
  Last RMS-Density change    ...    8.1026e-08  Tolerance :   5.0000e-09
  Last DIIS Error            ...    2.4739e-03  Tolerance :   5.0000e-07
  Last Orbital Gradient      ...    6.2532e-07  Tolerance :   1.0000e-05
  Last Orbital Rotation      ...    1.3613e-06  Tolerance :   1.0000e-05


----------------
ORBITAL ENERGIES
----------------

  NO   OCC          E(Eh)            E(eV) 
   0   2.0000      -1.161283       -31.6001 
   1   2.0000      -0.952870       -25.9289 
   2   2.0000      -0.946299       -25.7501 
   3   2.0000      -0.897015       -24.4090 
   4   2.0000      -0.839167       -22.8349 
   5   2.0000      -0.817354       -22.2413 
   6   2.0000      -0.803501       -21.8644 
   7   2.0000      -0.755514       -20.5586 
   8   2.0000      -0.724464       -19.7137 
   9   2.0000      -0.685703       -18.6589 
  10   2.0000      -0.633591       -17.2409 
  11   2.0000      -0.602241       -16.3878 
  12   2.0000      -0.585773       -15.9397 
  13   2.0000      -0.571798       -15.5594 
  14   2.0000      -0.564394       -15.3580 
  15   2.0000      -0.553761       -15.0686 
  16   2.0000      -0.534937       -14.5564 
  17   2.0000      -0.531834       -14.4719 
  18   2.0000      -0.519693       -14.1416 
  19   2.0000      -0.500928       -13.6309 
  20   2.0000      -0.489654       -13.3242 
  21   2.0000      -0.480516       -13.0755 
  22   2.0000      -0.475980       -12.9521 
  23   2.0000      -0.470830       -12.8119 
  24   2.0000      -0.463308       -12.6072 
  25   2.0000      -0.452381       -12.3099 
  26   2.0000      -0.442556       -12.0425 
  27   2.0000      -0.431625       -11.7451 
  28   2.0000      -0.410225       -11.1628 
  29   2.0000      -0.398577       -10.8458 
  30   2.0000      -0.359159        -9.7732 
  31   2.0000      -0.321545        -8.7497 
  32   0.0000       0.082367         2.2413 
  33   0.0000       0.088201         2.4001 
  34   0.0000       0.091461         2.4888 
  35   0.0000       0.096825         2.6347 
  36   0.0000       0.103836         2.8255 
  37   0.0000       0.117527         3.1981 
  38   0.0000       0.128407         3.4941 
  39   0.0000       0.133372         3.6292 
  40   0.0000       0.143229         3.8974 
  41   0.0000       0.152276         4.1436 
  42   0.0000       0.156860         4.2684 
*Only the first 10 virtual orbitals were printed.

                    ********************************
                    * MULLIKEN POPULATION ANALYSIS *
                    ********************************

-----------------------
MULLIKEN ATOMIC CHARGES
-----------------------
   0 C :   -0.077867
   1 C :   -0.101635
   2 C :   -0.054724
   3 C :    0.105080
   4 O :   -0.344369
   5 C :    0.033155
   6 C :   -0.023732
   7 C :   -0.012240
   8 C :   -0.060473
   9 C :   -0.093527
  10 C :   -0.068442
  11 H :    0.036104
  12 H :    0.035465
  13 H :    0.037530
  14 H :    0.037080
  15 H :    0.040695
  16 H :    0.043141
  17 H :    0.045151
  18 H :    0.020512
  19 H :    0.031542
  20 H :    0.049353
  21 H :    0.025606
  22 H :    0.010018
  23 H :    0.056643
  24 H :    0.054705
  25 H :    0.034917
  26 H :    0.039213
  27 H :    0.025916
  28 H :    0.075183
Sum of atomic charges:    0.0000000

--------------------------------
MULLIKEN REDUCED ORBITAL CHARGES
--------------------------------
  0 C s       :     0.963676  s :     0.963676
      pz      :     1.041448  p :     3.039685
      px      :     1.019917
      py      :     0.978320
      dz2     :     0.014098  d :     0.074505
      dxz     :     0.003820
      dyz     :     0.023813
      dx2y2   :     0.021131
      dxy     :     0.011644

  1 C s       :     1.051174  s :     1.051174
      pz      :     0.986485  p :     2.924723
      px      :     0.953481
      py      :     0.984757
      dz2     :     0.022667  d :     0.125738
      dxz     :     0.020471
      dyz     :     0.030940
      dx2y2   :     0.026080
      dxy     :     0.025580

  2 C s       :     1.000355  s :     1.000355
      pz      :     0.979524  p :     2.959113
      px      :     1.008505
      py      :     0.971084
      dz2     :     0.021213  d :     0.095256
      dxz     :     0.010051
      dyz     :     0.028576
      dx2y2   :     0.018426
      dxy     :     0.016990

  3 C s       :     1.017665  s :     1.017665
      pz      :     1.062802  p :     2.732088
      px      :     0.706114
      py      :     0.963173
      dz2     :     0.019515  d :     0.145167
      dxz     :     0.023915
      dyz     :     0.028220
      dx2y2   :     0.033150
      dxy     :     0.040367

  4 O s       :     1.727120  s :     1.727120
      pz      :     1.444724  p :     4.576898
      px      :     1.366254
      py      :     1.765921
      dz2     :     0.012331  d :     0.040351
      dxz     :     0.007210
      dyz     :     0.006455
      dx2y2   :     0.008983
      dxy     :     0.005372

  5 C s       :     1.050626  s :     1.050626
      pz      :     0.777754  p :     2.743964
      px      :     1.013080
      py      :     0.953130
      dz2     :     0.037317  d :     0.172255
      dxz     :     0.028742
      dyz     :     0.046384
      dx2y2   :     0.031192
      dxy     :     0.028619

  6 C s       :     0.996502  s :     0.996502
      pz      :     1.038834  p :     2.932401
      px      :     0.921180
      py      :     0.972387
      dz2     :     0.018131  d :     0.094829
      dxz     :     0.013205
      dyz     :     0.018665
      dx2y2   :     0.022907
      dxy     :     0.021921

  7 C s       :     1.009459  s :     1.009459
      pz      :     0.993499  p :     2.917949
      px      :     0.908088
      py      :     1.016363
      dz2     :     0.021872  d :     0.084831
      dxz     :     0.019753
      dyz     :     0.008359
      dx2y2   :     0.016944
      dxy     :     0.017903

  8 C s       :     1.108713  s :     1.108713
      pz      :     0.966833  p :     2.832901
      px      :     0.935178
      py      :     0.930889
      dz2     :     0.030112  d :     0.118859
      dxz     :     0.031607
      dyz     :     0.018842
      dx2y2   :     0.019049
      dxy     :     0.019248

  9 C s       :     0.959465  s :     0.959465
      pz      :     1.045235  p :     3.060525
      px      :     0.962800
      py      :     1.052490
      dz2     :     0.009789  d :     0.073537
      dxz     :     0.016714
      dyz     :     0.014265
      dx2y2   :     0.014751
      dxy     :     0.018018

 10 C s       :     0.948744  s :     0.948744
      pz      :     0.975296  p :     3.047422
      px      :     1.021863
      py      :     1.050263
      dz2     :     0.015957  d :     0.072277
      dxz     :     0.015248
      dyz     :     0.018633
      dx2y2   :     0.005680
      dxy     :     0.016760

 11 H s       :     0.920647  s :     0.920647
      pz      :     0.020230  p :     0.043249
      px      :     0.010167
      py      :     0.012852

 12 H s       :     0.921263  s :     0.921263
      pz      :     0.009994  p :     0.043271
      px      :     0.023005
      py      :     0.010273

 13 H s       :     0.919400  s :     0.919400
      pz      :     0.016906  p :     0.043069
      px      :     0.010571
      py      :     0.015593

 14 H s       :     0.923645  s :     0.923645
      pz      :     0.015878  p :     0.039275
      px      :     0.009741
      py      :     0.013656

 15 H s       :     0.918706  s :     0.918706
      pz      :     0.017091  p :     0.040599
      px      :     0.009091
      py      :     0.014417

 16 H s       :     0.914185  s :     0.914185
      pz      :     0.009637  p :     0.042674
      px      :     0.022314
      py      :     0.010723

 17 H s       :     0.915373  s :     0.915373
      pz      :     0.020916  p :     0.039477
      px      :     0.006101
      py      :     0.012459

 18 H s       :     0.939563  s :     0.939563
      pz      :     0.016605  p :     0.039925
      px      :     0.007305
      py      :     0.016015

 19 H s       :     0.929835  s :     0.929835
      pz      :     0.013751  p :     0.038623
      px      :     0.009763
      py      :     0.015110

 20 H s       :     0.908606  s :     0.908606
      pz      :     0.021277  p :     0.042041
      px      :     0.010161
      py      :     0.010602

 21 H s       :     0.932714  s :     0.932714
      pz      :     0.015243  p :     0.041680
      px      :     0.010137
      py      :     0.016300

 22 H s       :     0.940373  s :     0.940373
      pz      :     0.021677  p :     0.049609
      px      :     0.012634
      py      :     0.015299

 23 H s       :     0.899212  s :     0.899212
      pz      :     0.011060  p :     0.044145
      px      :     0.012639
      py      :     0.020445

 24 H s       :     0.901283  s :     0.901283
      pz      :     0.018592  p :     0.044012
      px      :     0.010146
      py      :     0.015274

 25 H s       :     0.920913  s :     0.920913
      pz      :     0.017535  p :     0.044170
      px      :     0.013998
      py      :     0.012637

 26 H s       :     0.915377  s :     0.915377
      pz      :     0.010467  p :     0.045410
      px      :     0.019067
      py      :     0.015877

 27 H s       :     0.929774  s :     0.929774
      pz      :     0.013857  p :     0.044311
      px      :     0.016876
      py      :     0.013578

 28 H s       :     0.880089  s :     0.880089
      pz      :     0.013201  p :     0.044728
      px      :     0.011530
      py      :     0.019997



                     *******************************
                     * LOEWDIN POPULATION ANALYSIS *
                     *******************************

----------------------
LOEWDIN ATOMIC CHARGES
----------------------
   0 C :   -0.117472
   1 C :   -0.088137
   2 C :   -0.083695
   3 C :   -0.058830
   4 O :   -0.075796
   5 C :   -0.059439
   6 C :   -0.072468
   7 C :   -0.053088
   8 C :   -0.036622
   9 C :   -0.118936
  10 C :   -0.114236
  11 H :    0.047002
  12 H :    0.046694
  13 H :    0.045992
  14 H :    0.046610
  15 H :    0.049949
  16 H :    0.051577
  17 H :    0.056822
  18 H :    0.041084
  19 H :    0.047410
  20 H :    0.054521
  21 H :    0.046736
  22 H :    0.036473
  23 H :    0.055044
  24 H :    0.053952
  25 H :    0.048100
  26 H :    0.046833
  27 H :    0.044422
  28 H :    0.059499

-------------------------------
LOEWDIN REDUCED ORBITAL CHARGES
-------------------------------
  0 C s       :     0.779942  s :     0.779942
      pz      :     1.061316  p :     3.093755
      px      :     1.037162
      py      :     0.995276
      dz2     :     0.044971  d :     0.243776
      dxz     :     0.012129
      dyz     :     0.079687
      dx2y2   :     0.070072
      dxy     :     0.036917

  1 C s       :     0.756024  s :     0.756024
      pz      :     0.995036  p :     2.940148
      px      :     0.962869
      py      :     0.982243
      dz2     :     0.069386  d :     0.391965
      dxz     :     0.066069
      dyz     :     0.097620
      dx2y2   :     0.080138
      dxy     :     0.078752

  2 C s       :     0.769655  s :     0.769655
      pz      :     0.995934  p :     3.003410
      px      :     1.019786
      py      :     0.987690
      dz2     :     0.068165  d :     0.310630
      dxz     :     0.032375
      dyz     :     0.094521
      dx2y2   :     0.063365
      dxy     :     0.052204

  3 C s       :     0.764125  s :     0.764125
      pz      :     1.072852  p :     2.857260
      px      :     0.790477
      py      :     0.993931
      dz2     :     0.061277  d :     0.437445
      dxz     :     0.067244
      dyz     :     0.090820
      dx2y2   :     0.105663
      dxy     :     0.112441

  4 O s       :     1.409448  s :     1.409448
      pz      :     1.471447  p :     4.560914
      px      :     1.402101
      py      :     1.687365
      dz2     :     0.027634  d :     0.105434
      dxz     :     0.023630
      dyz     :     0.016922
      dx2y2   :     0.020704
      dxy     :     0.016544

  5 C s       :     0.749945  s :     0.749945
      pz      :     0.844351  p :     2.808366
      px      :     0.979713
      py      :     0.984302
      dz2     :     0.113787  d :     0.501128
      dxz     :     0.080557
      dyz     :     0.137183
      dx2y2   :     0.088928
      dxy     :     0.080672

  6 C s       :     0.768338  s :     0.768338
      pz      :     1.051466  p :     2.993620
      px      :     0.954242
      py      :     0.987912
      dz2     :     0.056939  d :     0.310510
      dxz     :     0.045015
      dyz     :     0.064059
      dx2y2   :     0.073805
      dxy     :     0.070692

  7 C s       :     0.806379  s :     0.806379
      pz      :     1.037370  p :     2.963207
      px      :     0.974174
      py      :     0.951663
      dz2     :     0.070497  d :     0.283502
      dxz     :     0.071576
      dyz     :     0.027891
      dx2y2   :     0.053690
      dxy     :     0.059848

  8 C s       :     0.804722  s :     0.804722
      pz      :     0.992161  p :     2.857855
      px      :     0.984984
      py      :     0.880709
      dz2     :     0.093960  d :     0.374045
      dxz     :     0.099921
      dyz     :     0.060108
      dx2y2   :     0.058286
      dxy     :     0.061771

  9 C s       :     0.778601  s :     0.778601
      pz      :     1.059082  p :     3.103573
      px      :     0.979136
      py      :     1.065354
      dz2     :     0.030561  d :     0.236761
      dxz     :     0.056363
      dyz     :     0.046875
      dx2y2   :     0.046235
      dxy     :     0.056727

 10 C s       :     0.776849  s :     0.776849
      pz      :     0.984100  p :     3.103052
      px      :     1.055745
      py      :     1.063207
      dz2     :     0.049123  d :     0.234335
      dxz     :     0.051499
      dyz     :     0.060115
      dx2y2   :     0.017594
      dxy     :     0.056005

 11 H s       :     0.807605  s :     0.807605
      pz      :     0.060339  p :     0.145392
      px      :     0.040106
      py      :     0.044948

 12 H s       :     0.807934  s :     0.807934
      pz      :     0.040231  p :     0.145372
      px      :     0.065624
      py      :     0.039518

 13 H s       :     0.809365  s :     0.809365
      pz      :     0.053857  p :     0.144643
      px      :     0.040754
      py      :     0.050032

 14 H s       :     0.806724  s :     0.806724
      pz      :     0.055393  p :     0.146666
      px      :     0.040570
      py      :     0.050703

 15 H s       :     0.806081  s :     0.806081
      pz      :     0.055407  p :     0.143970
      px      :     0.038334
      py      :     0.050229

 16 H s       :     0.803706  s :     0.803706
      pz      :     0.038913  p :     0.144716
      px      :     0.065847
      py      :     0.039956

 17 H s       :     0.808051  s :     0.808051
      pz      :     0.064289  p :     0.135127
      px      :     0.026377
      py      :     0.044461

 18 H s       :     0.820659  s :     0.820659
      pz      :     0.056035  p :     0.138257
      px      :     0.028033
      py      :     0.054189

 19 H s       :     0.813380  s :     0.813380
      pz      :     0.047409  p :     0.139211
      px      :     0.039736
      py      :     0.052066

 20 H s       :     0.801780  s :     0.801780
      pz      :     0.063749  p :     0.143699
      px      :     0.038669
      py      :     0.041280

 21 H s       :     0.806839  s :     0.806839
      pz      :     0.051828  p :     0.146426
      px      :     0.039710
      py      :     0.054888

 22 H s       :     0.809197  s :     0.809197
      pz      :     0.064231  p :     0.154330
      px      :     0.041436
      py      :     0.048663

 23 H s       :     0.797995  s :     0.797995
      pz      :     0.042934  p :     0.146961
      px      :     0.044033
      py      :     0.059994

 24 H s       :     0.799022  s :     0.799022
      pz      :     0.057829  p :     0.147026
      px      :     0.039291
      py      :     0.049906

 25 H s       :     0.806638  s :     0.806638
      pz      :     0.054989  p :     0.145263
      px      :     0.044350
      py      :     0.045924

 26 H s       :     0.803008  s :     0.803008
      pz      :     0.040348  p :     0.150159
      px      :     0.059659
      py      :     0.050153

 27 H s       :     0.808800  s :     0.808800
      pz      :     0.044561  p :     0.146778
      px      :     0.054419
      py      :     0.047799

 28 H s       :     0.789773  s :     0.789773
      pz      :     0.046866  p :     0.150728
      px      :     0.044777
      py      :     0.059085



                      *****************************
                      * MAYER POPULATION ANALYSIS *
                      *****************************

  NA   - Mulliken gross atomic population
  ZA   - Total nuclear charge
  QA   - Mulliken gross atomic charge
  VA   - Mayer's total valence
  BVA  - Mayer's bonded valence
  FA   - Mayer's free valence

  ATOM       NA         ZA         QA         VA         BVA        FA
  0 C      4.0779     4.0000    -0.0779     3.9818     3.9818     0.0000
  1 C      4.1016     4.0000    -0.1016     4.0074     4.0074     0.0000
  2 C      4.0547     4.0000    -0.0547     3.9325     3.9325     0.0000
  3 C      3.8949     4.0000     0.1051     3.9710     3.9710     0.0000
  4 O      6.3444     6.0000    -0.3444     1.8939     1.8939     0.0000
  5 C      3.9668     4.0000     0.0332     4.0432     4.0432     0.0000
  6 C      4.0237     4.0000    -0.0237     3.9134     3.9134     0.0000
  7 C      4.0122     4.0000    -0.0122     3.9810     3.9810     0.0000
  8 C      4.0605     4.0000    -0.0605     4.0680     4.0680     0.0000
  9 C      4.0935     4.0000    -0.0935     3.9672     3.9672    -0.0000
 10 C      4.0684     4.0000    -0.0684     3.9707     3.9707     0.0000
 11 H      0.9639     1.0000     0.0361     1.0282     1.0282    -0.0000
 12 H      0.9645     1.0000     0.0355     1.0281     1.0281    -0.0000
 13 H      0.9625     1.0000     0.0375     1.0258     1.0258     0.0000
 14 H      0.9629     1.0000     0.0371     1.0131     1.0131     0.0000
 15 H      0.9593     1.0000     0.0407     1.0226     1.0226     0.0000
 16 H      0.9569     1.0000     0.0431     1.0221     1.0221     0.0000
 17 H      0.9548     1.0000     0.0452     1.0201     1.0201    -0.0000
 18 H      0.9795     1.0000     0.0205     1.0237     1.0237    -0.0000
 19 H      0.9685     1.0000     0.0315     1.0142     1.0142     0.0000
 20 H      0.9506     1.0000     0.0494     1.0124     1.0124    -0.0000
 21 H      0.9744     1.0000     0.0256     1.0282     1.0282     0.0000
 22 H      0.9900     1.0000     0.0100     1.0408     1.0408    -0.0000
 23 H      0.9434     1.0000     0.0566     1.0216     1.0216     0.0000
 24 H      0.9453     1.0000     0.0547     1.0213     1.0213    -0.0000
 25 H      0.9651     1.0000     0.0349     1.0295     1.0295    -0.0000
 26 H      0.9608     1.0000     0.0392     1.0180     1.0180     0.0000
 27 H      0.9741     1.0000     0.0259     1.0248     1.0248    -0.0000
 28 H      0.9248     1.0000     0.0752     1.0154     1.0154     0.0000

  Mayer bond orders larger than 0.100000
B(  0-C ,  1-C ) :   1.0157 B(  0-C , 11-H ) :   0.9962 B(  0-C , 12-H ) :   0.9957 
B(  0-C , 13-H ) :   0.9928 B(  1-C ,  2-C ) :   0.9737 B(  1-C ,  6-C ) :   0.9732 
B(  1-C , 14-H ) :   0.9929 B(  2-C ,  3-C ) :   0.9903 B(  2-C , 15-H ) :   0.9913 
B(  2-C , 16-H ) :   0.9993 B(  3-C ,  4-O ) :   0.9507 B(  3-C , 17-H ) :   1.0124 
B(  3-C , 18-H ) :   0.9966 B(  4-O ,  5-C ) :   0.9453 B(  5-C ,  6-C ) :   0.9746 
B(  5-C ,  7-C ) :   1.0577 B(  5-C , 19-H ) :   0.9988 B(  6-C , 20-H ) :   0.9963 
B(  6-C , 21-H ) :   0.9949 B(  7-C ,  8-C ) :   1.8942 B(  7-C , 22-H ) :   0.9934 
B(  8-C ,  9-C ) :   1.0112 B(  8-C , 10-C ) :   1.0251 B(  9-C , 23-H ) :   0.9850 
B(  9-C , 24-H ) :   0.9846 B(  9-C , 25-H ) :   0.9957 B( 10-C , 26-H ) :   0.9858 
B( 10-C , 27-H ) :   0.9928 B( 10-C , 28-H ) :   0.9737 

-------
TIMINGS
-------

Total SCF time: 0 days 0 hours 1 min 2 sec 

Total time                  ....      62.231 sec
Sum of individual times     ....      59.919 sec  ( 96.3%)

SCF preparation             ....       2.773 sec  (  4.5%)
Fock matrix formation       ....      55.553 sec  ( 89.3%)
  Startup                   ....       0.184 sec  (  0.3% of F)
  Split-RI-J                ....       1.888 sec  (  3.4% of F)
  Chain of spheres X        ....      26.415 sec  ( 47.6% of F)
  XC integration            ....      26.359 sec  ( 47.4% of F)
    XC Preparation          ....       0.000 sec  (  0.0% of XC)
[...]
 34:   1029.57   0.000834    4.22  0.000253  (-0.007115 -0.012463 -0.006847)
 35:   1033.82   0.000405    2.05  0.000122  ( 0.003504 -0.009875 -0.003544)
 36:   1066.84   0.001231    6.22  0.000360  (-0.014160  0.009239  0.008609)
 37:   1098.46   0.006102   30.84  0.001734  ( 0.033395  0.018422  0.016703)
 38:   1129.51   0.000458    2.31  0.000126  ( 0.011086  0.000223 -0.001860)
 39:   1132.73   0.000354    1.79  0.000097  (-0.004824  0.005605  0.006537)
 40:   1171.58   0.000842    4.26  0.000224  ( 0.005010 -0.010468 -0.009469)
 41:   1179.21   0.020220  102.19  0.005351  (-0.064483  0.030585  0.016050)
 42:   1191.71   0.002407   12.16  0.000630  ( 0.002451  0.010734 -0.022562)
 43:   1228.53   0.001370    6.92  0.000348  (-0.008493  0.008195  0.014444)
 44:   1251.13   0.005982   30.23  0.001492  (-0.029736  0.015861  0.018872)
 45:   1267.87   0.004778   24.14  0.001176  ( 0.029344 -0.008715 -0.015456)
 46:   1314.62   0.000500    2.53  0.000119  (-0.000899  0.010312  0.003391)
 47:   1319.25   0.003358   16.97  0.000794  ( 0.010678 -0.013701 -0.022194)
 48:   1326.22   0.001687    8.52  0.000397  ( 0.014447  0.002643 -0.013461)
 49:   1367.95   0.000675    3.41  0.000154  (-0.009456  0.003125  0.007397)
 50:   1399.83   0.000734    3.71  0.000164  ( 0.012743 -0.000222  0.001120)
 51:   1404.38   0.001165    5.89  0.000259  (-0.010907  0.008417  0.008305)
 52:   1420.48   0.000744    3.76  0.000164  ( 0.009768 -0.008083  0.001657)
 53:   1434.65   0.001426    7.21  0.000310  ( 0.016957 -0.003768  0.002905)
 54:   1445.76   0.000974    4.92  0.000210  ( 0.005973 -0.010963  0.007379)
 55:   1447.58   0.000870    4.39  0.000187  ( 0.010497  0.004137 -0.007758)
 56:   1454.52   0.004427   22.37  0.000950  (-0.022139 -0.013900 -0.016322)
 57:   1457.49   0.001956    9.89  0.000419  (-0.002096  0.018791 -0.007835)
 58:   1464.63   0.003283   16.59  0.000700  (-0.022832 -0.001903  0.013216)
 59:   1498.52   0.000362    1.83  0.000075  (-0.005971  0.003884  0.004969)
 60:   1501.75   0.000467    2.36  0.000097  ( 0.006360 -0.003799 -0.006501)
 61:   1509.53   0.000325    1.64  0.000067  (-0.007451 -0.002467 -0.002366)
 62:   1514.17   0.003648   18.44  0.000752  (-0.009091 -0.025274  0.005524)
 63:   1523.42   0.001996   10.09  0.000409  (-0.005552 -0.004745 -0.018857)
 64:   1526.28   0.003368   17.02  0.000689  (-0.011621  0.014862 -0.018238)
 65:   1528.36   0.001939    9.80  0.000396  (-0.010231  0.009229  0.014356)
 66:   1532.52   0.000819    4.14  0.000167  (-0.004772  0.011990  0.000399)
 67:   1534.00   0.000888    4.49  0.000181  ( 0.003123 -0.012732 -0.002967)
 68:   1806.39   0.003624   18.31  0.000626  (-0.020298  0.008532 -0.011885)
 69:   3021.56   0.008232   41.60  0.000850  (-0.005609  0.016870 -0.023111)
 70:   3042.80   0.013295   67.19  0.001364  ( 0.016032 -0.032542  0.006893)
 71:   3064.28   0.006481   32.75  0.000660  ( 0.007501 -0.018468  0.016208)
 72:   3090.40   0.003380   17.08  0.000341  (-0.003292  0.006022  0.017151)
 73:   3092.55   0.008507   42.99  0.000858  ( 0.025778  0.012704 -0.005703)
 74:   3094.76   0.003856   19.49  0.000389  (-0.017334 -0.001639  0.009254)
 75:   3098.70   0.004028   20.36  0.000406  (-0.011082 -0.013017 -0.010648)
 76:   3099.44   0.012349   62.41  0.001243  ( 0.020893 -0.024040  0.015129)
 77:   3150.68   0.005982   30.23  0.000593  (-0.019855  0.014081 -0.000192)
 78:   3156.41   0.004150   20.97  0.000410  ( 0.002254 -0.005957  0.019228)
 79:   3166.25   0.001548    7.82  0.000153  ( 0.001600  0.011271  0.004791)
 80:   3172.30   0.002556   12.92  0.000251  (-0.002859 -0.014729 -0.005126)
 81:   3172.54   0.005444   27.51  0.000536  (-0.005486  0.008534  0.020799)
 82:   3181.52   0.005409   27.34  0.000531  (-0.013667  0.007696 -0.016869)
 83:   3186.05   0.003872   19.57  0.000379  (-0.013031  0.006215  0.013072)
 84:   3206.46   0.001470    7.43  0.000143  (-0.001644  0.004698 -0.010877)
 85:   3216.92   0.004658   23.54  0.000452  ( 0.010606  0.007074 -0.017008)
 86:   3254.76   0.000458    2.31  0.000044  (-0.005058 -0.002247  0.003643)

* The epsilon (eps) is given for a Dirac delta lineshape.
** The dipole moment derivative (T) already includes vibrational overlap.

The first frequency considered to be a vibration is 6
The total number of vibrations considered is 81


--------------------------
THERMOCHEMISTRY AT 298.15K
--------------------------

Temperature         ...   298.15 K
Pressure            ...     1.00 atm
Total Mass          ...   154.25 AMU
Quasi RRHO          ...     True
Cut-Off Frequency   ...     1.00 cm^-1

Throughout the following assumptions are being made:
  (1) The electronic state is orbitally nondegenerate
  (2) There are no thermally accessible electronically excited states
  (3) Hindered rotations indicated by low frequency modes are not
      treated as such but are treated as vibrations and this may
      cause some error
  (4) All equations used are the standard statistical mechanics
      equations for an ideal gas
  (5) All vibrations are strictly harmonic

freq.      45.82  E(vib)   ...       0.53 
freq.      88.43  E(vib)   ...       0.48 
freq.     101.73  E(vib)   ...       0.46 
freq.     143.73  E(vib)   ...       0.41 
freq.     169.30  E(vib)   ...       0.38 
freq.     200.88  E(vib)   ...       0.35 
freq.     224.39  E(vib)   ...       0.33 
freq.     246.35  E(vib)   ...       0.31 
freq.     292.11  E(vib)   ...       0.27 
freq.     318.99  E(vib)   ...       0.25 
freq.     327.33  E(vib)   ...       0.24 
freq.     386.21  E(vib)   ...       0.20 
freq.     416.34  E(vib)   ...       0.18 
freq.     428.05  E(vib)   ...       0.18 
freq.     455.64  E(vib)   ...       0.16 
freq.     485.92  E(vib)   ...       0.15 
freq.     508.91  E(vib)   ...       0.14 
freq.     597.09  E(vib)   ...       0.10 
freq.     738.63  E(vib)   ...       0.06 
freq.     817.24  E(vib)   ...       0.05 
freq.     832.68  E(vib)   ...       0.04 
freq.     847.68  E(vib)   ...       0.04 
freq.     882.95  E(vib)   ...       0.04 
freq.     934.74  E(vib)   ...       0.03 
freq.     959.05  E(vib)   ...       0.03 
freq.     983.65  E(vib)   ...       0.02 
freq.     991.21  E(vib)   ...       0.02 
freq.    1006.25  E(vib)   ...       0.02 
freq.    1029.57  E(vib)   ...       0.02 
freq.    1033.82  E(vib)   ...       0.02 
freq.    1066.84  E(vib)   ...       0.02 
freq.    1098.46  E(vib)   ...       0.02 
freq.    1129.51  E(vib)   ...       0.01 
freq.    1132.73  E(vib)   ...       0.01 
freq.    1171.58  E(vib)   ...       0.01 
freq.    1179.21  E(vib)   ...       0.01 
freq.    1191.71  E(vib)   ...       0.01 
freq.    1228.53  E(vib)   ...       0.01 
freq.    1251.13  E(vib)   ...       0.01 
freq.    1267.87  E(vib)   ...       0.01 
freq.    1314.62  E(vib)   ...       0.01 
freq.    1319.25  E(vib)   ...       0.01 
freq.    1326.22  E(vib)   ...       0.01 
freq.    1367.95  E(vib)   ...       0.01 
freq.    1399.83  E(vib)   ...       0.00 
freq.    1404.38  E(vib)   ...       0.00 
freq.    1420.48  E(vib)   ...       0.00 
freq.    1434.65  E(vib)   ...       0.00 
freq.    1445.76  E(vib)   ...       0.00 
freq.    1447.58  E(vib)   ...       0.00 
freq.    1454.52  E(vib)   ...       0.00 
freq.    1457.49  E(vib)   ...       0.00 
freq.    1464.63  E(vib)   ...       0.00 
freq.    1498.52  E(vib)   ...       0.00 
freq.    1501.75  E(vib)   ...       0.00 
freq.    1509.53  E(vib)   ...       0.00 
freq.    1514.17  E(vib)   ...       0.00 
freq.    1523.42  E(vib)   ...       0.00 
freq.    1526.28  E(vib)   ...       0.00 
freq.    1528.36  E(vib)   ...       0.00 
freq.    1532.52  E(vib)   ...       0.00 
freq.    1534.00  E(vib)   ...       0.00 
freq.    1806.39  E(vib)   ...       0.00 
freq.    3021.56  E(vib)   ...       0.00 
freq.    3042.80  E(vib)   ...       0.00 
freq.    3064.28  E(vib)   ...       0.00 
freq.    3090.40  E(vib)   ...       0.00 
freq.    3092.55  E(vib)   ...       0.00 
freq.    3094.76  E(vib)   ...       0.00 
freq.    3098.70  E(vib)   ...       0.00 
freq.    3099.44  E(vib)   ...       0.00 
freq.    3150.68  E(vib)   ...       0.00 
freq.    3156.41  E(vib)   ...       0.00 
freq.    3166.25  E(vib)   ...       0.00 
freq.    3172.30  E(vib)   ...       0.00 
freq.    3172.54  E(vib)   ...       0.00 
freq.    3181.52  E(vib)   ...       0.00 
freq.    3186.05  E(vib)   ...       0.00 
freq.    3206.46  E(vib)   ...       0.00 
freq.    3216.92  E(vib)   ...       0.00 
freq.    3254.76  E(vib)   ...       0.00 

------------
INNER ENERGY
------------

The inner energy is: U= E(el) + E(ZPE) + E(vib) + E(rot) + E(trans)
    E(el)   - is the total energy from the electronic structure calculation
              = E(kin-el) + E(nuc-el) + E(el-el) + E(nuc-nuc)
    E(ZPE)  - the the zero temperature vibrational energy from the frequency calculation
    E(vib)  - the the finite temperature correction to E(ZPE) due to population
              of excited vibrational states
    E(rot)  - is the rotational thermal energy
    E(trans)- is the translational thermal energy

Summary of contributions to the inner energy U:
Electronic energy                ...    -83.88833707 Eh
Zero point energy                ...      0.26976453 Eh     169.28 kcal/mol
Thermal vibrational correction   ...      0.00912474 Eh       5.73 kcal/mol
Thermal rotational correction    ...      0.00141627 Eh       0.89 kcal/mol
Thermal translational correction ...      0.00141627 Eh       0.89 kcal/mol
-----------------------------------------------------------------------
Total thermal energy                    -83.60661525 Eh


Summary of corrections to the electronic energy:
(perhaps to be used in another calculation)
Total thermal correction                  0.01195729 Eh       7.50 kcal/mol
Non-thermal (ZPE) correction              0.26976453 Eh     169.28 kcal/mol
-----------------------------------------------------------------------
Total correction                          0.28172182 Eh     176.78 kcal/mol


--------
ENTHALPY
--------

The enthalpy is H = U + kB*T
                kB is Boltzmann's constant
Total thermal energy              ...    -83.60661525 Eh 
Thermal Enthalpy correction       ...      0.00094421 Eh       0.59 kcal/mol
-----------------------------------------------------------------------
Total Enthalpy                    ...    -83.60567104 Eh


Note: Only C1 symmetry has been detected, increase convergence thresholds 
      if your molecule has a higher symmetry. Symmetry factor of 1.0 is   
      used for the rotational entropy correction. 
 

Note: Rotational entropy computed according to Herzberg 
Infrared and Raman Spectra, Chapter V,1, Van Nostrand Reinhold, 1945 
Point Group:  C1, Symmetry Number:   1  
Rotational constants in cm-1:     0.068561     0.020405     0.018539 

Vibrational entropy computed according to the QRRHO of S. Grimme
Chem.Eur.J. 2012 18 9955 using a reference frequency of 100.0 cm-1


-------
ENTROPY
-------

The entropy contributions are T*S = T*(S(el)+S(vib)+S(rot)+S(trans))
     S(el)   - electronic entropy
     S(vib)  - vibrational entropy
     S(rot)  - rotational entropy
     S(trans)- translational entropy
The entropies will be listed as multiplied by the temperature to get
units of energy

Electronic entropy                ...      0.00000000 Eh      0.00 kcal/mol
Vibrational entropy               ...      0.01563754 Eh      9.81 kcal/mol
Rotational entropy                ...      0.01449604 Eh      9.10 kcal/mol
Translational entropy             ...      0.01948509 Eh     12.23 kcal/mol
-----------------------------------------------------------------------
Final entropy term                ...      0.04961866 Eh     31.14 kcal/mol

In case the symmetry of your molecule has not been determined correctly
or in case you have a reason to use a different symmetry number we print 
out the resulting rotational entropy values for sn=1,12:

 non-linear molecules -----------------------------------
|  sn= 1 | S(rot)=       0.01449604 Eh      9.10 kcal/mol|
|  sn= 2 | S(rot)=       0.01384158 Eh      8.69 kcal/mol|
|  sn= 3 | S(rot)=       0.01345875 Eh      8.45 kcal/mol|
|  sn= 4 | S(rot)=       0.01318712 Eh      8.28 kcal/mol|
|  sn= 5 | S(rot)=       0.01297644 Eh      8.14 kcal/mol|
|  sn= 6 | S(rot)=       0.01280429 Eh      8.03 kcal/mol|
|  sn= 7 | S(rot)=       0.01265875 Eh      7.94 kcal/mol|
|  sn= 8 | S(rot)=       0.01253267 Eh      7.86 kcal/mol|
|  sn= 9 | S(rot)=       0.01242146 Eh      7.79 kcal/mol|
|  sn=10 | S(rot)=       0.01232198 Eh      7.73 kcal/mol|
|  sn=11 | S(rot)=       0.01223199 Eh      7.68 kcal/mol|
|  sn=12 | S(rot)=       0.01214984 Eh      7.62 kcal/mol|
 linear molecules ---------------------------------------
|  Dinfh | S(rot)=       0.00909110 Eh      5.70 kcal/mol|
|  Cinfv | S(rot)=       0.00974556 Eh      6.12 kcal/mol|
 --------------------------------------------------------


-------------------
GIBBS FREE ENERGY
-------------------

The Gibbs free energy is G = H - T*S

Total enthalpy                    ...    -83.60567104 Eh 
Total entropy correction          ...     -0.04961866 Eh    -31.14 kcal/mol
-----------------------------------------------------------------------
Final Gibbs free energy         ...    -83.65528970 Eh

For completeness - the Gibbs free energy minus the electronic energy
G-E(el)                           ...      0.23304737 Eh    146.24 kcal/mol


Maximum memory used throughout the entire PROP-calculation: 140.4 MB

--------------------------------
SUGGESTED CITATIONS FOR THIS RUN
--------------------------------

Below you find a list of papers that are relevant to this ORCA run
We neither can nor want to force you to cite these papers, but we appreciate if you do
You receive ORCA, which is the product of decades of hard work by many enthusiastic individuals, for free
The only thing we kindly ask in return is that you cite our papers,
We deeply appreciate it, if you show your appreciation for ORCA by not just citing the generic ORCA reference.

Please note that relegating all ORCA citations to the supporting information does *not* help us.
SI sections are not indexed - citations you put there will not count into any citation statistics
But we need these citations in order to attract the funding resources that allow us to do what we are doing

Therefore, if you are a happy ORCA user, please consider citing a few of the papers listed below in the main body of your paper

In addition to the list printed below, the program has created the file ./output/_z_rose_oxide/_z_rose_oxide.bibtex that contains the list in bibtex format
You can import this file easily into all common literature databanks and citation aid programs


List of essential papers. We consider these as the minimum necessary citations

  1. Neese,F.
     Software update: the ORCA program system, version 5.0
     WIRES Comput. Molec. Sci., 2022 12(1)e1606
     doi.org/10.1002/wcms.1606
  2. Mueller,M.; Hansen,A.; Grimme,S.
     wB97X-3c: A composite range-separated hybrid DFT method with a molecule-optimized polarized valence double-zeta basis set
     J. Chem. Phys., 2023 158 014103
     doi.org/10.1063/5.0133026

List of papers to cite with high priority. The work reported in these papers was absolutely
necessary for this run to complete.
Our perspective: the developers of density functionals and basis sets usually get cited in chemistry papers
Good! But without the algorithms to do something with them, the functionals or basis sets would not do anything.
Hence, in our opinion, the algorithm design and method developments papers are equally worthy of getting cited

  1. Neese,F.
     An improvement of the resolution of the identity approximation for the formation of the Coulomb matrix
     J. Comp. Chem., 2003 24(14)1740-1747
     doi.org/10.1002/jcc.10318
  2. Neese,F.; Wennmohs,F.; Hansen,A.; Becker,U.
     Efficient, approximate and parallel Hartree-Fock and hybrid DFT calculations. A 'chain-of-spheres' algorithm for the Hartree-Fock exchange
     Chem. Phys., 2009 356(1-3)98-109
     doi.org/10.1016/j.chemphys.2008.10.036
  3. Bykov,D.; Petrenko,T.; Izsak,R.; Kossmann,S.; Becker,U.; Valeev,E.; Neese,F.
     Efficient implementation of the analytic second derivatives of Hartree-Fock and hybrid DFT energies: a detailed analysis of different approximations
     Molec. Phys., 2015 113 1961-1977
     doi.org/10.1080/00268976.2015.1025114
  4. Helmich-Paris,B.; de Souza,B.; Neese,F.; Izsák,R.
     An improved chain of spheres for exchange algorithm
     J. Chem. Phys., 2021 155 104109
     doi.org/doi: 10.1063/5.0058766.
  5. Neese,F.
     The SHARK Integral Generation and Digestion System
     J. Comp. Chem., 2022  1-16
     doi.org/10.1002/jcc.26942
  6. Caldeweyher,E.; Bannwarth,C.; Grimme,S.
     Extension of the D3 dispersion coefficient model
     J. Chem. Phys., 2017 147 034112
     doi.org/10.1063/1.4993215
  7. Caldeweyher,E.; Ehlert,S.; Hansen,A.; Neugebauer,H.; Spicher,S.; Bannwarth,C.; Grimme,S.
     A generally applicable atomic-charge dependent London dispersion correction
     J. Chem. Phys., 2019 150 154122
     doi.org/10.1063/1.5090222
  8. Caldeweyher,E.; Mewes,J.; Ehlert,S.; Grimme,S.
     Extension and evaluation of the D4 London-dispersion model for periodic systems
     Phys. Chem. Chem. Phys., 2020 22(16)8499-8512
     doi.org/10.1039/D0CP00502A
  9. Wittmann,L.; Gordiy,I.; Friede,M.; Helmich-Paris,B.; Grimme,S.; Hansen,A.; Bursch,M.
     Extension of the D3 and D4 London Dispersion Corrections to the full Actinides Series
     Phys. Chem. Chem. Phys., 2024 26(32)21379-21394
     doi.org/https://doi.org/10.1039/D4CP01514B 

List of suggested additional citations. These are papers that are important in the 'surrounding' of 
of this run, or papers that preceded the highly important papers. If you like your results we are grateful for a citation.

  1. Izsak,R.; Neese,F.
     An overlap fitted chain of spheres exchange method
     J. Chem. Phys., 2011 135 144105
     doi.org/10.1063/1.3646921
  2. Izsak,R.; Hansen,A.; Neese,F.
     The resolution of identity and chain of spheres approximations for the LPNO-CCSD singles Fock term
     Molec. Phys., 2012 110 2413-2417
     doi.org/10.1080/00268976.2012.687466
  3. Neese,F.
     The ORCA program system
     WIRES Comput. Molec. Sci., 2012 2(1)73-78
     doi.org/10.1002/wcms.81
  4. Izsak,R.; Neese,F.; Klopper,W.
     Robust fitting techniques in the chain of spheres approximation to the Fock exchange: The role of the complementary space
     J. Chem. Phys., 2013 139 
     doi.org/10.1063/1.4819264
  5. Neese,F.
     Software update: the ORCA program system, version 4.0
     WIRES Comput. Molec. Sci., 2018 8(1)1-6
     doi.org/10.1002/wcms.1327
  6. Neese,F.; Wennmohs,F.; Becker,U.; Riplinger,C.
     The ORCA quantum chemistry program package
     J. Chem. Phys., 2020 152 Art. No. L224108
     doi.org/10.1063/5.0004608

List of optional additional citations

  1. Neese,F.
     Approximate second-order SCF convergence for spin unrestricted wavefunctions
     Chem. Phys. Lett., 2000 325(1-3)93-98
     doi.org/10.1016/s0009-2614(00)00662-x

Timings for individual modules:

Sum of individual times          ...     1345.622 sec (=  22.427 min)
Startup calculation              ...       76.025 sec (=   1.267 min)   5.6 %
SCF iterations                   ...      877.126 sec (=  14.619 min)  65.2 %
Property integrals               ...       68.412 sec (=   1.140 min)   5.1 %
SCF Response                     ...       40.409 sec (=   0.673 min)   3.0 %
Property calculations            ...       97.713 sec (=   1.629 min)   7.3 %
SCF Gradient evaluation          ...      185.528 sec (=   3.092 min)  13.8 %
Geometry relaxation              ...        0.409 sec (=   0.007 min)   0.0 %
                             ****ORCA TERMINATED NORMALLY****
TOTAL RUN TIME: 0 days 0 hours 22 minutes 35 seconds 141 msec
