
                                 *****************
                                 * O   R   C   A *
                                 *****************

                                            #,                                       
                                            ###                                      
                                            ####                                     
                                            #####                                    
                                            ######                                   
                                           ########,                                 
                                     ,,################,,,,,                         
                               ,,#################################,,                 
                          ,,##########################################,,             
                       ,#########################################, ''#####,          
                    ,#############################################,,   '####,        
                  ,##################################################,,,,####,       
                ,###########''''           ''''###############################       
              ,#####''   ,,,,##########,,,,          '''####'''          '####       
            ,##' ,,,,###########################,,,                        '##       
           ' ,,###''''                  '''############,,,                           
         ,,##''                                '''############,,,,        ,,,,,,###''
      ,#''                                            '''#######################'''  
     '                                                          ''''####''''         
             ,#######,   #######,   ,#######,      ##                                
            ,#'     '#,  ##    ##  ,#'     '#,    #''#        ,####,   ,####,        
            ##       ##  ##   ,#'  ##            #'  '#       #'       #'  '#        
            ##       ##  #######   ##           ,######,      #####,   #    #        
            '#,     ,#'  ##    ##  '#,     ,#' ,#      #,     #,   #   #,  ,#        
             '#######'   ##     ##  '#######'  #'      '#     '####' # '####'        



                #########################################################
                #                        -***-                          #
                #          Department of theory and spectroscopy        #
                #                                                       #
                #                      Frank Neese                      #
                #                                                       #
                #     Directorship, Architecture, Infrastructure        #
                #                    SHARK, DRIVERS                     #
                #        Core code/Algorithms in most modules           #
                #                                                       #
                #        Max Planck Institute fuer Kohlenforschung      #
                #                Kaiser Wilhelm Platz 1                 #
                #                 D-45470 Muelheim/Ruhr                 #
                #                      Germany                          #
                #                                                       #
                #                  All rights reserved                  #
                #                        -***-                          #
                #########################################################


                         Program Version 6.0.1  -  RELEASE   -


 With contributions from (in alphabetic order):
[Max-Planck-Institut fuer Kohlenforschung]                               
  Daniel Aravena         : Magnetic Suceptibility                        
  Michael Atanasov       : Ab Initio Ligand Field Theory (pilot matlab implementation)
  Alexander A. Auer      : GIAO ZORA, VPT2 properties, NMR spectrum      
  Ute Becker             : All parallelization in ORCA, NUMFREQ, NUMCALC 
  Giovanni Bistoni       : ED, misc. LED, open-shell LED, HFLD           
  Martin Brehm           : Molecular dynamics                            
  Dmytro Bykov           : pre 5.0 version of the SCF Hessian            
  Marcos Casanova-Páez   : Triplet and SCS-CIS(D). UHF-(DLPNO)-IP/EA/STEOM-CCSD. UHF-CVS-IP/STEOM-CCSD   
  Vijay G. Chilkuri      : MRCI spin determinant printing, contributions to CSF-ICE 
  Pauline Colinet        : FMM embedding                                 
  Dipayan Datta          : RHF DLPNO-CCSD density                        
  Achintya Kumar Dutta   : EOM-CC, STEOM-CC                              
  Nicolas Foglia         : Exact transition moments, OPA infrastructure, MCD improvements    
  Dmitry Ganyushin       : Spin-Orbit,Spin-Spin,Magnetic field MRCI      
  Miquel Garcia-Rates    : C-PCM and meta-GGA Hessian, CCSD/C-PCM, Gaussian charge scheme 
  Tiago L. C. Gouveia    : GS-ROHF, GS-ROCIS                             
  Yang Guo               : DLPNO-NEVPT2, F12-NEVPT2, CIM, IAO-localization        
  Andreas Hansen         : Spin unrestricted coupled pair/coupled cluster methods 
  Ingolf Harden          : AUTO-CI MPn and infrastructure                
  Benjamin Helmich-Paris : MC-RPA, TRAH-(SCF,CASSCF), AVAS, COSX integrals, SCF dyn. polar. 
  Lee Huntington         : MR-EOM, pCC                                   
  Robert Izsak           : Overlap fitted RIJCOSX, COSX-SCS-MP3, EOM     
  Riya Kayal             : Wick's Theorem for AUTO-CI, AUTO-CI UHF-CCSDT 
  Emily Kempfer          : AUTO-CI, RHF CISDT and CCSDT                  
  Christian Kollmar      : KDIIS, OOCD, Brueckner-CCSD(T), CCSD density, CASPT2, CASPT2-K, improved NEVPT2 
  Axel Koslowski         : Symmetry handling                             
  Simone Kossmann        : meta-GGA functionals, TD-DFT gradient, OOMP2, (MP2 Hessian; deprecated post 5.0) 
  Lucas Lang             : DCDCAS                                        
  Marvin Lechner         : AUTO-CI (C++ implementation), FIC-MRCC        
  Spencer Leger          : CASSCF response                               
  Dagmar Lenk            : GEPOL surface, SMD, ORCA-2-JSON               
  Dimitrios Liakos       : Extrapolation schemes; Compound Job, initial MDCI parallelization 
  Dimitrios Manganas     : Further ROCIS development; embedding schemes. LFT, Crystal Embedding 
  Dimitrios Pantazis     : SARC Basis sets                               
  Anastasios Papadopoulos: AUTO-CI, single reference methods and gradients 
  Taras Petrenko         : pre 6.0 DFT Hessian and TD-DFT gradient, (ASA, deprecated), ECA, 1-Electron XAS/XES, NRVS 
  Peter Pinski           : DLPNO-MP2, DLPNO-MP2 Gradient                 
  Christoph Reimann      : Effective Core Potentials                     
  Marius Retegan         : Local ZFS, SOC                                
  Christoph Riplinger    : Optimizer, TS searches, QM/MM, DLPNO-CCSD(T), (RO)-DLPNO pert. Triples 
  Michael Roemelt        : Original ROCIS implementation                 
  Masaaki Saitow         : Open-shell DLPNO-CCSD energy and density      
  Barbara Sandhoefer     : DKH picture change effects                    
  Kantharuban Sivalingam : CASSCF convergence/infrastructure, NEVPT2 and variants, FIC-MRCI 
  Bernardo de Souza      : ESD, SOC TD-DFT                               
  Georgi L. Stoychev     : AutoAux, RI-MP2 NMR, DLPNO-MP2 response, X2C  
  Van Anh Tran           : RI-MP2 g-tensors                              
  Willem Van den Heuvel  : Paramagnetic NMR                              
  Zikuan Wang            : NOTCH, Electric field optimization            
  Frank Wennmohs         : Technical directorship and infrastructure     
  Hang Xu                : AUTO-CI-Response properties                   
                                                                         
[FACCTs GmbH]                                                            
  Markus Bursch, Miquel Garcia-Rates, Christoph Riplinger, Bernardo de Souza, Georgi L. Stoychev 
                                                                 
  APM, Basis sets (HGBS, AHGBS, def-TZVP (Ac-Lr), def2-XVPD (La-Lu)), CI-OPT, improved COSX, DLPNO-Multilevel,           
  DOCKER, DRACO, updates on ESD, GOAT, IRC, LR-CPCM, MBIS, meta-GGA TD-DFT gradient, ML-optimized integration grids, 
  MM, NACMEs, nearIR, NEB, NEB-TS, NL-DFT gradient (VV10), 2- and 3-layer-ONIOM, interface openCOSMO-RS, QMMM,   
  Crystal-QMMM, SF, symmetry and pop. for TD-DFT, r2SCAN hybrids, SOLVATOR                                   
                                                                         
[Other institutions]                                                     
  V. Asgeirsson          : NEB                                           
  Christoph Bannwarth    : sTDA-DFT, sTD-DFT, PBEh-3c, B97-3c, D3        
  Sebastian Ehlert       : rSCAN, r2SCAN, r2SCAN-3c, D4, dhf basis sets  
  Marvin Friede          : D4 for Fr, Ra, Ac-Lr                          
  Lars Goerigk           : TD-DFT with DH, B97 family of functionals     
  Stefan Grimme          : VdW corrections, initial TS optimization, DFT functionals, gCP, sTDA/sTD-DF 
  Waldemar Hujo          : DFT-NL                                        
  H. Jonsson             : NEB                                           
  Holger Kruse           : gCP                                           
  Marcel Mueller         : wB97X-3c, vDZP basis set                      
  Hagen Neugebauer       : wr2SCAN                                       
  Tobias Risthaus        : range-separated hybrid DFT                    
  Lukas Wittmann         : regularized MP2, r2SCAN double-hybrids, wr2SCAN        
                                                                         
We gratefully acknowledge several colleagues who have allowed us to      
interface, adapt or use parts of their codes:                            
  Ed Valeev, F. Pavosevic, A. Kumar             : LibInt (2-el integral package), F12 methods 
  Garnet Chan, S. Sharma, J. Yang, R. Olivares  : DMRG                   
  Ulf Ekstrom                                   : XCFun DFT Library      
  Mihaly Kallay                                 : mrcc  (arbitrary order and MRCC methods)
  Frank Weinhold                                : gennbo (NPA and NBO analysis)           
  Simon Mueller                                 : openCOSMO-RS                            
  Christopher J. Cramer and Donald G. Truhlar   : smd solvation model                     
  S Lehtola, MJT Oliveira, MAL Marques          : LibXC Library                           
  Liviu Ungur et al                             : ANISO software                          


 Your calculation uses the libint2 library for the computation of 2-el integrals
 For citations please refer to: http://libint.valeyev.net

 Your ORCA version has been built with support for libXC version: 6.2.2
 For citations please refer to: https://libxc.gitlab.io

 This ORCA versions uses:
   CBLAS   interface :  Fast vector & matrix operations
   LAPACKE interface :  Fast linear algebra routines
   SCALAPACK package :  Parallel linear algebra routines
   Shared memory     :  Shared parallel matrices
   BLAS/LAPACK       :  OpenBLAS 0.3.27  USE64BITINT DYNAMIC_ARCH NO_AFFINITY SkylakeX SINGLE_THREADED
        Core in use  :  SkylakeX
   Copyright (c) 2011-2014, The OpenBLAS Project


Your calculation utilizes the atom-pairwise dispersion correction
based on EEQ partial charges (D4)


================================================================================

cite the ECPs for C  [vDZP-ECP], O  [vDZP-ECP] as follows:
   B-Ne (ecp-2-mwb), Al-Ar (ecp-10-mwb), Ga-Kr (ecp-28-mwb), Y-Cd (ecp-28-mwb), In-Xe (ecp-46-mwb):
     A. Bergner, M. Dolg, W. Küchle, H. Stoll, and H. Preuß, Mol. Phys. 80, 1431 (1993)., T. Leininger, A. Berning, A. Nicklass, H. Stoll, H.-J. Werner, and H.-J.Flad, Chem. Phys. 217, 19 (1997).
   Na-Mg, K-Ca, Rb-Sr, Cs-Ba (CRENBL):
     L. Fernandez Pacios and P. A. Christiansen, J. Chem. Phys. 82, 2664 (1985)., M. M. Hurley, L. F. Pacios, P. A. Christiansen, R. B. Ross, and W. C. Ermler, J. Chem. Phys. 84, 6840 (1986)., L. A. LaJohn, P. A. Christiansen, R. B. Ross, T. Atashroo, and W. C. Ermler, J. Chem. Phys. 87, 2812 (1987)., R. B. Ross, J. M. Powers, T. Atashroo, W. C. Ermler, L. A. LaJohn, and P. A. Christiansen, J. Chem. Phys. 93, 6654 (1990). 
   Sc-Zn (ecp-10-mdf):
     M. Dolg, U. Wedig, H. Stoll, and H. Preuss, J. Chem. Phys. 86, 866 (1986). 
   Y-Cd (ecp-28-mwb), Hf-Hg (ecp-60-mwb):
     D. Andrae, U. Häußermann, M. Dolg, H. Stoll, and H. Preuß, Theor. Chim. Acta 77, 123 (1990). 
   La (ecp-46-mwb):
     M. Dolg, H. Stoll, and H. Preuss, J. Chem. Phys. 90, 1730 (1989)., M. Dolg, H. Stoll, and H. Preuss, Theor. Chim. Acta 85, 441 (1993).
   Ce-Lu (SBKJC-ecp):
     T. R. Cundari and W. J. Stevens, J. Chem. Phys. 98, 5555 (1993).
   Tl-Rn (ecp-78-mwb):
     W. Küchle, M. Dolg, H. Stoll, and H. Preuss, Mol. Phys. 74, 1245 (1991).

ECP parameters for C  [vDZP-ECP], O  [vDZP-ECP] have been obtained from:
MM, AH, SG, J. Chem. Phys. 158, 014103 (2023), 10.1063/5.0133026

----- Orbital basis set information -----
Your calculation utilizes the basis: vDZP
   Marcel Mueller, Andreas Hansen, Stefan Grimme 
   J. Chem. Phys. 158, 014103 (2023). DOI: 10.1063/5.0133026

----- AuxJ basis set information -----
Your calculation utilizes the auxiliary basis: def2/J
   F. Weigend, Phys. Chem. Chem. Phys. 8, 1057 (2006).

================================================================================
                                        WARNINGS
                       Please study these warnings very carefully!
================================================================================

WARNING: Frozen-Core approximation turned on, but there are no core electrons.
  ===> : Turning off frozen-core approximation


WARNING: Geometry Optimization
  ===> : Switching off AutoStart
         For restart on a previous wavefunction, please use MOREAD

================================================================================
                                       INPUT FILE
================================================================================
NAME = ./output/myrtenal/myrtenal.inp
|  1> ! wB97X-3c OPT FREQ TightSCF
|  2> %pal
|  3>   nprocs 40
|  4> end
|  5> * xyz 0 1
|  6> C     -0.888388    -1.101242    -1.313336
|  7> C     -0.945278    -0.238007    -0.021554
|  8> C     -0.619563     1.277331    -0.124669
|  9> C      0.560870     1.513200    -1.129183
| 10> C      1.712996     0.537625    -0.828947
| 11> C      1.562289    -0.369304     0.173765
| 12> C      0.249320    -0.310165     0.966641
| 13> C      0.032515     1.186112     1.269366
| 14> C      2.614801    -1.348432     0.480944
| 15> O      2.462220    -2.184560     1.409720
| 16> C     -2.303636    -0.499162     0.677294
| 17> H      0.052362    -1.036618    -1.888659
| 18> H     -1.028203    -2.171245    -1.050392
| 19> H     -1.710754    -0.799369    -1.995991
| 20> H     -1.482320     1.972647    -0.210664
| 21> H      0.930732     2.555673    -1.028769
| 22> H      0.207496     1.373039    -2.172250
| 23> H      2.613122     0.564994    -1.430342
| 24> H      0.146539    -0.997067     1.834431
| 25> H      0.954880     1.794771     1.419272
| 26> H     -0.688159     1.360505     2.097342
| 27> H      3.532822    -1.359147    -0.092728
| 28> H     -2.393255    -1.574807     0.940040
| 29> H     -3.137645    -0.231607    -0.006036
| 30> H     -2.435764     0.084834     1.610168
| 31> *
| 32> 
| 33>                          ****END OF INPUT****
================================================================================

                       *****************************
                       * Geometry Optimization Run *
                       *****************************

Geometry optimization settings:
Update method            Update   .... BFGS
Choice of coordinates    CoordSys .... (2022) Redundant Internals
Initial Hessian          InHess   .... Almloef's Model
Max. no of cycles        MaxIter  .... 75

Convergence Tolerances:
Energy Change            TolE     ....  5.0000e-06 Eh
Max. Gradient            TolMAXG  ....  3.0000e-04 Eh/bohr
RMS Gradient             TolRMSG  ....  1.0000e-04 Eh/bohr
Max. Displacement        TolMAXD  ....  4.0000e-03 bohr
RMS Displacement         TolRMSD  ....  2.0000e-03 bohr
Strict Convergence                .... False

------------------------------------------------------------------------------
                        ORCA OPTIMIZATION COORDINATE SETUP
------------------------------------------------------------------------------

The optimization will be done in redundant internal coordinates (2022)
Making redundant internal coordinates   ...  (2022 redundants) done
Evaluating the initial hessian          ...  (Almloef) done
Evaluating the coordinates              ...  done
Calculating the B-matrix                .... done
Calculating the G-matrix                .... done
Diagonalizing the G-matrix              .... done
The first mode is                       ....   68
The number of degrees of freedom        ....   69

    -----------------------------------------------------------------
                    Redundant Internal Coordinates


    -----------------------------------------------------------------
         Definition                    Initial Value    Approx d2E/dq
    -----------------------------------------------------------------
      1. B(C   1,C   0)                  1.5547         0.341162   
      2. B(C   2,C   1)                  1.5534         0.342835   
      3. B(C   3,C   2)                  1.5678         0.325099   
      4. B(C   4,C   3)                  1.5392         0.361097   
      5. B(C   5,C   4)                  1.3604         0.696590   
      6. B(C   6,C   5)                  1.5349         0.366858   
      7. B(C   6,C   1)                  1.5520         0.344531   
      8. B(C   7,C   6)                  1.5419         0.357580   
      9. B(C   7,C   2)                  1.5417         0.357849   
     10. B(C   8,C   5)                  1.4700         0.465737   
     11. B(O   9,C   8)                  1.2590         0.905563   
     12. B(C  10,C   1)                  1.5498         0.347429   
     13. B(H  11,C   0)                  1.1046         0.341271   
     14. B(H  12,C   0)                  1.1107         0.333765   
     15. B(H  13,C   0)                  1.1106         0.333855   
     16. B(H  14,C   2)                  1.1114         0.332875   
     17. B(H  15,C   3)                  1.1107         0.333745   
     18. B(H  16,C   3)                  1.1102         0.334366   
     19. B(H  17,C   4)                  1.0829         0.369629   
     20. B(H  18,C   6)                  1.1115         0.332738   
     21. B(H  19,C   7)                  1.1152         0.328247   
     22. B(H  20,C   7)                  1.1115         0.332810   
     23. B(H  21,C   8)                  1.0826         0.370052   
     24. B(H  22,C  10)                  1.1109         0.333498   
     25. B(H  23,C  10)                  1.1109         0.333488   
     26. B(H  24,C  10)                  1.1085         0.336445   
     27. A(H  12,C   0,H  13)          108.3104         0.284030   
     28. A(C   1,C   0,H  13)          109.4331         0.315619   
     29. A(C   1,C   0,H  12)          109.4872         0.315605   
     30. A(H  11,C   0,H  12)          106.6709         0.285003   
     31. A(H  11,C   0,H  13)          107.1322         0.285015   
     32. A(C   1,C   0,H  11)          115.5586         0.316749   
     33. A(C   0,C   1,C   2)          118.6081         0.352600   
     34. A(C   0,C   1,C   6)          118.3629         0.352894   
     35. A(C   6,C   1,C  10)          112.3144         0.353984   
     36. A(C   0,C   1,C  10)          108.2515         0.353395   
     37. A(C   2,C   1,C  10)          112.2166         0.353688   
     38. A(C   2,C   1,C   6)           85.7693         0.353187   
     39. A(C   7,C   2,H  14)          115.8053         0.317929   
     40. A(C   1,C   2,H  14)          116.9149         0.315719   
     41. A(C   1,C   2,C   7)           88.3350         0.355464   
     42. A(C   1,C   2,C   3)          110.3137         0.349738   
     43. A(C   3,C   2,C   7)          105.6515         0.352280   
     44. A(C   3,C   2,H  14)          116.1531         0.313010   
     45. A(C   2,C   3,H  16)          110.0794         0.313236   
     46. A(C   2,C   3,H  15)          109.5116         0.313142   
     47. A(C   4,C   3,H  15)          109.1466         0.318534   
     48. A(C   2,C   3,C   4)          110.0737         0.352819   
     49. A(H  15,C   3,H  16)          108.0251         0.284095   
     50. A(C   4,C   3,H  16)          109.9679         0.318630   
     51. A(C   3,C   4,H  17)          119.8564         0.323901   
     52. A(C   3,C   4,C   5)          118.9066         0.402484   
     53. A(C   5,C   4,H  17)          121.2168         0.361565   
     54. A(C   6,C   5,C   8)          122.0178         0.376209   
     55. A(C   4,C   5,C   8)          121.2492         0.421069   
     56. A(C   4,C   5,C   6)          116.7318         0.403609   
     57. A(C   5,C   6,C   7)          105.0154         0.359534   
     58. A(C   1,C   6,C   7)           88.3762         0.355717   
     59. A(C   7,C   6,H  18)          115.6845         0.317869   
     60. A(C   5,C   6,H  18)          117.2952         0.319200   
     61. A(C   1,C   6,H  18)          117.0429         0.315952   
     62. A(C   1,C   6,C   5)          109.3470         0.357268   
     63. A(C   2,C   7,C   6)           86.5236         0.358016   
     64. A(C   6,C   7,H  20)          112.9352         0.317880   
     65. A(C   2,C   7,H  20)          112.9583         0.317919   
     66. A(C   6,C   7,H  19)          116.0862         0.317166   
     67. A(C   2,C   7,H  19)          116.0446         0.317205   
     68. A(H  19,C   7,H  20)          110.5186         0.283158   
     69. A(O   9,C   8,H  21)          119.1520         0.375935   
     70. A(C   5,C   8,H  21)          120.2004         0.337892   
     71. A(C   5,C   8,O   9)          120.6475         0.438486   
     72. A(H  23,C  10,H  24)          107.5350         0.284335   
     73. A(H  22,C  10,H  24)          107.5453         0.284336   
     74. A(C   1,C  10,H  24)          113.2781         0.316953   
     75. A(H  22,C  10,H  23)          108.5495         0.283946   
     76. A(C   1,C  10,H  23)          109.8810         0.316498   
     77. A(C   1,C  10,H  22)          109.9094         0.316500   
     78. D(C   6,C   1,C   0,H  11)    -48.4895         0.009418   
     79. D(C   2,C   1,C   0,H  12)    173.4197         0.009418   
     80. D(C   2,C   1,C   0,H  11)     52.9858         0.009418   
     81. D(C   6,C   1,C   0,H  12)     71.9444         0.009418   
     82. D(C   2,C   1,C   0,H  13)    -68.0102         0.009418   
     83. D(C   6,C   1,C   0,H  13)   -169.4856         0.009418   
     84. D(C   7,C   2,C   1,C  10)     87.7698         0.009503   
     85. D(C   3,C   2,C   1,C   0)    -38.6939         0.009503   
     86. D(C   7,C   2,C   1,C   0)   -144.7774         0.009503   
     87. D(C   7,C   2,C   1,C   6)    -24.6285         0.009503   
     88. D(C   3,C   2,C   1,C   6)     81.4550         0.009503   
     89. D(C   3,C   2,C   1,C  10)   -166.1467         0.009503   
     90. D(C   4,C   3,C   2,H  14)    176.3401         0.008634   
     91. D(C   4,C   3,C   2,C   7)     46.4573         0.008634   
     92. D(C   4,C   3,C   2,C   1)    -47.6452         0.008634   
     93. D(H  15,C   3,C   2,H  14)     56.3425         0.008634   
     94. D(H  15,C   3,C   2,C   7)    -73.5402         0.008634   
     95. D(H  15,C   3,C   2,C   1)   -167.6428         0.008634   
     96. D(H  17,C   4,C   3,C   2)   -179.8994         0.009800   
     97. D(C   5,C   4,C   3,H  16)   -119.7288         0.009800   
     98. D(C   5,C   4,C   3,H  15)    121.9345         0.009800   
     99. D(H  17,C   4,C   3,H  15)    -59.6810         0.009800   
    100. D(C   5,C   4,C   3,C   2)      1.7162         0.009800   
    101. D(C   8,C   5,C   4,H  17)     -0.0111         0.034147   
    102. D(C   8,C   5,C   4,C   3)    178.3505         0.034147   
    103. D(C   6,C   5,C   4,H  17)    179.6046         0.034147   
    104. D(C   6,C   5,C   4,C   3)     -2.0338         0.034147   
    105. D(C   7,C   6,C   1,C   0)    145.0015         0.009589   
    106. D(C   5,C   6,C   1,C  10)    166.9720         0.009589   
    107. D(C   5,C   6,C   1,C   2)    -80.7271         0.009589   
    108. D(C   5,C   6,C   1,C   0)     39.6499         0.009589   
    109. D(H  18,C   6,C   5,C   4)   -175.6781         0.010091   
    110. D(C   7,C   6,C   5,C   8)    133.9788         0.010091   
    111. D(C   7,C   6,C   5,C   4)    -45.6337         0.010091   
    112. D(C   1,C   6,C   5,C   8)   -132.4041         0.010091   
    113. D(C   1,C   6,C   5,C   4)     47.9834         0.010091   
    114. D(C   7,C   6,C   1,C  10)    -87.6765         0.009589   
    115. D(C   7,C   6,C   1,C   2)     24.6245         0.009589   
    116. D(H  19,C   7,C   6,H  18)     98.3999         0.010268   
    117. D(H  19,C   7,C   6,C   5)    -32.5839         0.010268   
    118. D(H  19,C   7,C   6,C   1)   -142.1889         0.010268   
    119. D(C   2,C   7,C   6,C   5)     84.8051         0.010268   
    120. D(C   2,C   7,C   6,C   1)    -24.7999         0.010268   
    121. D(H  19,C   7,C   2,H  14)    -98.5216         0.010282   
    122. D(H  19,C   7,C   2,C   3)     31.5632         0.010282   
    123. D(C   2,C   7,C   6,H  18)   -144.2111         0.010268   
    124. D(H  19,C   7,C   2,C   1)    142.2058         0.010282   
    125. D(C   6,C   7,C   2,H  14)    144.0502         0.010282   
    126. D(C   6,C   7,C   2,C   3)    -85.8650         0.010282   
    127. D(C   6,C   7,C   2,C   1)     24.7776         0.010282   
    128. D(H  21,C   8,C   5,C   6)   -179.5418         0.014772   
    129. D(H  21,C   8,C   5,C   4)      0.0534         0.014772   
    130. D(O   9,C   8,C   5,C   6)      0.5535         0.014772   
    131. D(O   9,C   8,C   5,C   4)   -179.8513         0.014772   
    132. D(H  23,C  10,C   1,C   6)    168.1960         0.009737   
    133. D(H  23,C  10,C   1,C   2)     73.5217         0.009737   
    134. D(H  23,C  10,C   1,C   0)    -59.2676         0.009737   
    135. D(H  22,C  10,C   1,C   6)    -72.4134         0.009737   
    136. D(H  22,C  10,C   1,C   2)   -167.0876         0.009737   
    137. D(H  22,C  10,C   1,C   0)     60.1231         0.009737   
    -----------------------------------------------------------------

Number of atoms                         .... 25
Number of degrees of freedom            .... 137


         *************************************************************
         *                GEOMETRY OPTIMIZATION CYCLE   1            *
         *************************************************************
---------------------------------
CARTESIAN COORDINATES (ANGSTROEM)
---------------------------------
  C     -0.888388   -1.101242   -1.313336
  C     -0.945278   -0.238007   -0.021554
  C     -0.619563    1.277331   -0.124669
  C      0.560870    1.513200   -1.129183
  C      1.712996    0.537625   -0.828947
  C      1.562289   -0.369304    0.173765
  C      0.249320   -0.310165    0.966641
  C      0.032515    1.186112    1.269366
  C      2.614801   -1.348432    0.480944
  O      2.462220   -2.184560    1.409720
  C     -2.303636   -0.499162    0.677294
  H      0.052362   -1.036618   -1.888659
  H     -1.028203   -2.171245   -1.050392
  H     -1.710754   -0.799369   -1.995991
  H     -1.482320    1.972647   -0.210664
  H      0.930732    2.555673   -1.028769
  H      0.207496    1.373039   -2.172250
  H      2.613122    0.564994   -1.430342
  H      0.146539   -0.997067    1.834431
  H      0.954880    1.794771    1.419272
  H     -0.688159    1.360505    2.097342
  H      3.532822   -1.359147   -0.092728
  H     -2.393255   -1.574807    0.940040
  H     -3.137645   -0.231607   -0.006036
  H     -2.435764    0.084834    1.610168

----------------------------
CARTESIAN COORDINATES (A.U.)
----------------------------
  NO LB      ZA    FRAG     MASS         X           Y           Z
   0 C     4.0000*   0    12.011   -1.678810   -2.081046   -2.481845
   1 C     4.0000*   0    12.011   -1.786317   -0.449768   -0.040731
   2 C     4.0000*   0    12.011   -1.170804    2.413806   -0.235590
   3 C     4.0000*   0    12.011    1.059891    2.859534   -2.133847
   4 C     4.0000*   0    12.011    3.237093    1.015964   -1.566483
   5 C     4.0000*   0    12.011    2.952298   -0.697883    0.328368
   6 C     4.0000*   0    12.011    0.471147   -0.586127    1.826687
   7 C     4.0000*   0    12.011    0.061444    2.241427    2.398754
   8 C     4.0000*   0    12.011    4.941258   -2.548167    0.908852
   9 O     6.0000*   0    15.999    4.652921   -4.128220    2.663985
  10 C     4.0000*   0    12.011   -4.353241   -0.943279    1.279900
  11 H     1.0000    0     1.008    0.098950   -1.958924   -3.569048
  12 H     1.0000    0     1.008   -1.943022   -4.103058   -1.984953
  13 H     1.0000    0     1.008   -3.232857   -1.510588   -3.771876
  14 H     1.0000    0     1.008   -2.801179    3.727763   -0.398097
  15 H     1.0000    0     1.008    1.758829    4.829522   -1.944092
  16 H     1.0000    0     1.008    0.392111    2.594668   -4.104958
  17 H     1.0000    0     1.008    4.938085    1.067684   -2.702955
  18 H     1.0000    0     1.008    0.276919   -1.884184    3.466572
  19 H     1.0000    0     1.008    1.804462    3.391626    2.682035
  20 H     1.0000    0     1.008   -1.300432    2.570982    3.963402
  21 H     1.0000    0     1.008    6.676066   -2.568416   -0.175231
  22 H     1.0000    0     1.008   -4.522597   -2.975954    1.776418
  23 H     1.0000    0     1.008   -5.929290   -0.437674   -0.011406
  24 H     1.0000    0     1.008   -4.602927    0.160313    3.042777
* core charge reduced due to ECP

--------------------------------
INTERNAL COORDINATES (ANGSTROEM)
--------------------------------
 C      0   0   0     0.000000000000     0.00000000     0.00000000
 C      1   0   0     1.554706362259     0.00000000     0.00000000
 C      2   1   0     1.553374461839   118.60811308     0.00000000
 C      3   2   1     1.567834375451   110.31373692   321.30610981
 C      4   3   2     1.539247399282   110.07369933   312.35484099
 C      5   4   3     1.360391181181   118.90659752     1.71616018
 C      6   5   4     1.534938880756   116.73177011   357.96622522
 C      3   2   1     1.541706912896    88.33504549   215.22258065
 C      6   5   4     1.469976900692   121.24923629   178.35053087
 O      9   6   5     1.258974126867   120.64746958   180.14867918
 C      2   1   3     1.549750598417   108.25147768   129.29895096
 H      1   2   3     1.104619110013   115.55855099    52.98584278
 H      1   2   3     1.110672859743   109.48718471   173.41967614
 H      1   2   3     1.110599385517   109.43313332   291.98975259
 H      3   2   1     1.111399622517   116.91492388    96.95133387
 H      4   3   2     1.110689347283   109.51164247   192.35724771
 H      4   3   2     1.110183343546   110.07942580    73.73328762
 H      5   4   3     1.082890494954   119.85639769   180.10062786
 H      7   6   5     1.111511482471   117.29517871   184.32194278
 H      8   3   2     1.115210643933   116.04461575   142.20581078
 H      8   3   2     1.111453188084   112.95832073   271.30822778
 H      9   6   5     1.082578833735   120.20044593     0.05336531
 H     11   2   1     1.110891170053   109.90939347    60.12306588
 H     11   2   1     1.110898995861   109.88098262   300.73244643
 H     11   2   1     1.108495844050   113.27807861   180.44442497

---------------------------
INTERNAL COORDINATES (A.U.)
---------------------------
 C      0   0   0     0.000000000000     0.00000000     0.00000000
 C      1   0   0     2.937969243335     0.00000000     0.00000000
 C      2   1   0     2.935452316303   118.60811308     0.00000000
 C      3   2   1     2.962777592950   110.31373692   321.30610981
 C      4   3   2     2.908756036994   110.07369933   312.35484099
 C      5   4   3     2.570766767433   118.90659752     1.71616018
 C      6   5   4     2.900614116937   116.73177011   357.96622522
 C      3   2   1     2.913403844146    88.33504549   215.22258065
 C      6   5   4     2.777853765499   121.24923629   178.35053087
 O      9   6   5     2.379116309472   120.64746958   180.14867918
 C      2   1   3     2.928604206888   108.25147768   129.29895096
 H      1   2   3     2.087427600220   115.55855099    52.98584278
 H      1   2   3     2.098867529294   109.48718471   173.41967614
 H      1   2   3     2.098728683128   109.43313332   291.98975259
 H      3   2   1     2.100240911900   116.91492388    96.95133387
 H      4   3   2     2.098898686230   109.51164247   192.35724771
 H      4   3   2     2.097942477742   110.07942580    73.73328762
 H      5   4   3     2.046366468490   119.85639769   180.10062786
 H      7   6   5     2.100452296579   117.29517871   184.32194278
 H      8   3   2     2.107442698668   116.04461575   142.20581078
 H      8   3   2     2.100342136152   112.95832073   271.30822778
 H      9   6   5     2.045777514138   120.20044593     0.05336531
 H     11   2   1     2.099280075992   109.90939347    60.12306588
 H     11   2   1     2.099294864626   109.88098262   300.73244643
 H     11   2   1     2.094753565844   113.27807861   180.44442497

---------------------
BASIS SET INFORMATION
---------------------
There are 3 groups of distinct atoms

 Group   1 Type C   : 6s6p2d contracted to 2s2p1d pattern {42/42/2}
 Group   2 Type O   : 6s6p2d contracted to 2s2p1d pattern {42/42/2}
 Group   3 Type H   : 8s2p contracted to 2s1p pattern {53/2}

Atom   0C    basis set group =>   1
Atom   1C    basis set group =>   1
Atom   2C    basis set group =>   1
Atom   3C    basis set group =>   1
Atom   4C    basis set group =>   1
Atom   5C    basis set group =>   1
Atom   6C    basis set group =>   1
Atom   7C    basis set group =>   1
Atom   8C    basis set group =>   1
Atom   9O    basis set group =>   2
Atom  10C    basis set group =>   1
Atom  11H    basis set group =>   3
Atom  12H    basis set group =>   3
Atom  13H    basis set group =>   3
Atom  14H    basis set group =>   3
Atom  15H    basis set group =>   3
Atom  16H    basis set group =>   3
Atom  17H    basis set group =>   3
Atom  18H    basis set group =>   3
Atom  19H    basis set group =>   3
Atom  20H    basis set group =>   3
Atom  21H    basis set group =>   3
Atom  22H    basis set group =>   3
Atom  23H    basis set group =>   3
Atom  24H    basis set group =>   3
---------------------------------
AUXILIARY/J BASIS SET INFORMATION
---------------------------------
There are 3 groups of distinct atoms

 Group   1 Type C   : 12s5p4d2f1g contracted to 6s4p3d1f1g pattern {711111/2111/211/2/1}
 Group   2 Type O   : 12s5p4d2f1g contracted to 6s4p3d1f1g pattern {711111/2111/211/2/1}
 Group   3 Type H   : 5s2p1d contracted to 3s1p1d pattern {311/2/1}

Atom   0C    basis set group =>   1
Atom   1C    basis set group =>   1
Atom   2C    basis set group =>   1
Atom   3C    basis set group =>   1
Atom   4C    basis set group =>   1
Atom   5C    basis set group =>   1
Atom   6C    basis set group =>   1
Atom   7C    basis set group =>   1
Atom   8C    basis set group =>   1
Atom   9O    basis set group =>   2
Atom  10C    basis set group =>   1
Atom  11H    basis set group =>   3
Atom  12H    basis set group =>   3
Atom  13H    basis set group =>   3
Atom  14H    basis set group =>   3
Atom  15H    basis set group =>   3
Atom  16H    basis set group =>   3
Atom  17H    basis set group =>   3
Atom  18H    basis set group =>   3
Atom  19H    basis set group =>   3
Atom  20H    basis set group =>   3
Atom  21H    basis set group =>   3
Atom  22H    basis set group =>   3
Atom  23H    basis set group =>   3
Atom  24H    basis set group =>   3
-------------------------
ECP PARAMETER INFORMATION
-------------------------

 Group 1, Type C  ECP vDZP-ECP (replacing 2 core electrons, lmax=3)
 Group 2, Type O  ECP vDZP-ECP (replacing 2 core electrons, lmax=3)

Atom   0C    ECP group =>   1
Atom   1C    ECP group =>   1
Atom   2C    ECP group =>   1
Atom   3C    ECP group =>   1
Atom   4C    ECP group =>   1
Atom   5C    ECP group =>   1
Atom   6C    ECP group =>   1
Atom   7C    ECP group =>   1
Atom   8C    ECP group =>   1
Atom   9O    ECP group =>   2
Atom  10C    ECP group =>   1



           ************************************************************
           *        Program running with 40 parallel MPI-processes    *
           *              working on a common directory               *
           ************************************************************
------------------------------------------------------------------------------
                             ORCA STARTUP CALCULATIONS
                           -- RI-GTO INTEGRALS CHOSEN --
------------------------------------------------------------------------------
------------------------------------------------------------------------------
                   ___                                                        
                  /   \      - P O W E R E D   B Y -                         
                 /     \                                                     
                 |  |  |   _    _      __       _____    __    __             
                 |  |  |  | |  | |    /  \     |  _  \  |  |  /  |          
                  \  \/   | |  | |   /    \    | | | |  |  | /  /          
                 / \  \   | |__| |  /  /\  \   | |_| |  |  |/  /          
                |  |  |   |  __  | /  /__\  \  |    /   |      \           
                |  |  |   | |  | | |   __   |  |    \   |  |\   \          
                \     /   | |  | | |  |  |  |  | |\  \  |  | \   \       
                 \___/    |_|  |_| |__|  |__|  |_| \__\ |__|  \__/        
                                                                              
                      - O R C A' S   B I G   F R I E N D -                    
                                      &                                       
                       - I N T E G R A L  F E E D E R -                       
                                                                              
 v1 FN, 2020, v2 2021, v3 2022-2024                                           
------------------------------------------------------------------------------


----------------------
SHARK INTEGRAL PACKAGE
----------------------

Number of atoms                             ...     25
Number of basis functions                   ...    213
Number of shells                            ...     97
Maximum angular momentum                    ...      2
Integral batch strategy                     ... SHARK/LIBINT Hybrid
RI-J (if used) integral strategy            ... SPLIT-RIJ (Revised 2003 algorithm where possible)
Printlevel                                  ...      1
Contraction scheme used                     ... SEGMENTED contraction
Prescreening option                         ... SCHWARTZ
   Thresh                                   ... 2.500e-11
   Tcut                                     ... 2.500e-12
   Tpresel                                  ... 2.500e-12 
Coulomb Range Separation                    ... NOT USED
Exchange Range Separation                   ... Long Range
   Mu parameter                             ... 3.000e-01
   Scaling (regular/separated)              ... 1.670e-01 8.330e-01
Multipole approximations                    ... NOT USED
Finite Nucleus Model                        ... NOT USED
CABS basis                                  ... NOT available
Auxiliary Coulomb fitting basis             ... AVAILABLE
   # of basis functions in Aux-J            ...    693
   # of shells in Aux-J                     ...    235
   Maximum angular momentum in Aux-J        ...      4
Auxiliary J/K fitting basis                 ... NOT available
Auxiliary Correlation fitting basis         ... NOT available
Auxiliary 'external' fitting basis          ... NOT available

Checking pre-screening integrals            ... done (  0.0 sec) Dimension = 97
Check shell pair data                       ... done (  0.0 sec)
Shell pair information
Shell pair cut-off parameter TPreSel        ...   2.5e-12
Total number of shell pairs                 ...      4753
Shell pairs after pre-screening             ...      4753
Total number of primitive shell pairs       ...     43726
Primitive shell pairs kept                  ...     36993
          la=0 lb=0:   1275 shell pairs
          la=1 lb=0:   1800 shell pairs
          la=1 lb=1:    666 shell pairs
          la=2 lb=0:    550 shell pairs
          la=2 lb=1:    396 shell pairs
          la=2 lb=2:     66 shell pairs

Calculating one electron integrals          ... done (  0.0 sec)
Calculating ECP integrals                   ... done (  0.1 sec)
Calculating RI/J V-Matrix + Cholesky decomp.... done (  0.0 sec)
Calculating Nuclear repulsion               ... done (  0.0 sec) ENN=    335.021228874388 Eh

Diagonalization of the overlap matrix:
Smallest eigenvalue                        ... 9.089e-04
Time for diagonalization                   ...    0.006 sec
Threshold for overlap eigenvalues          ... 1.000e-07
Number of eigenvalues below threshold      ... 0
Time for construction of square roots      ...    0.004 sec
Total time needed                          ...    0.014 sec

-------------------
DFT GRID GENERATION
-------------------

General Integration Accuracy     IntAcc      ... 4.388
Radial Grid Type                 RadialGrid  ... OptM3 with GC (2021)
Angular Grid (max. ang.)         AngularGrid ... 4 (Lebedev-302)
Angular grid pruning method      GridPruning ... 4 (adaptive)
Weight generation scheme         WeightScheme... mBecke (2022)
Basis function cutoff            BFCut       ... 1.0000e-11
Integration weight cutoff        WCut        ... 1.0000e-14
Partially contracted basis set               ... off
Rotationally invariant grid construction     ... off
Angular grids for H and He will be reduced by one unit

Total number of grid points                  ...   110137
Total number of batches                      ...     1733
Average number of points per batch           ...       63
Average number of grid points per atom       ...     4405

--------------------
COSX GRID GENERATION
--------------------

GRIDX 1
-------
General Integration Accuracy     IntAcc      ... 3.816
Radial Grid Type                 RadialGrid  ... OptM3 with GC (2021)
Angular Grid (max. ang.)         AngularGrid ... 1 (Lebedev-50)
Angular grid pruning method      GridPruning ... 4 (adaptive)
Weight generation scheme         WeightScheme... mBecke (2022)
Basis function cutoff            BFCut       ... 1.0000e-11
Integration weight cutoff        WCut        ... 1.0000e-14
Partially contracted basis set               ... on
Rotationally invariant grid construction     ... off
Angular grids for H and He will be reduced by one unit

Total number of grid points                  ...    14061
Total number of batches                      ...      126
Average number of points per batch           ...      111
Average number of grid points per atom       ...      562
UseSFitting                                  ... on

GRIDX 2
-------
General Integration Accuracy     IntAcc      ... 4.020
Radial Grid Type                 RadialGrid  ... OptM3 with GC (2021)
Angular Grid (max. ang.)         AngularGrid ... 2 (Lebedev-110)
Angular grid pruning method      GridPruning ... 4 (adaptive)
Weight generation scheme         WeightScheme... mBecke (2022)
Basis function cutoff            BFCut       ... 1.0000e-11
Integration weight cutoff        WCut        ... 1.0000e-14
Partially contracted basis set               ... on
Rotationally invariant grid construction     ... off
Angular grids for H and He will be reduced by one unit

Total number of grid points                  ...    29700
Total number of batches                      ...      243
Average number of points per batch           ...      122
Average number of grid points per atom       ...     1188
UseSFitting                                  ... on

GRIDX 3
-------
General Integration Accuracy     IntAcc      ... 4.338
Radial Grid Type                 RadialGrid  ... OptM3 with GC (2021)
Angular Grid (max. ang.)         AngularGrid ... 3 (Lebedev-194)
Angular grid pruning method      GridPruning ... 4 (adaptive)
Weight generation scheme         WeightScheme... mBecke (2022)
Basis function cutoff            BFCut       ... 1.0000e-11
Integration weight cutoff        WCut        ... 1.0000e-14
Partially contracted basis set               ... on
Rotationally invariant grid construction     ... off
Angular grids for H and He will be reduced by one unit

Total number of grid points                  ...    64828
Total number of batches                      ...      519
Average number of points per batch           ...      124
Average number of grid points per atom       ...     2593
UseSFitting                                  ... on
Initializing property integral containers    ... done (  0.0 sec)

SHARK setup successfully completed in   3.5 seconds

Maximum memory used throughout the entire STARTUP-calculation: 33.2 MB


           ************************************************************
           *        Program running with 40 parallel MPI-processes    *
           *              working on a common directory               *
           ************************************************************
-------------------------------------------------------------------------------
                                 ORCA GUESS
                   Start orbitals & Density for SCF / CASSCF
-------------------------------------------------------------------------------

------------
SCF SETTINGS
------------
Hamiltonian:
 Density Functional     Method          .... DFT(GTOs)
 Exchange Functional    Exchange        .... WB97X-V
 Correlation Functional Correlation     .... WB97X-V
 Gradients option       PostSCFGGA      .... off
 Hybrid DFT is turned on
   Fraction HF Exchange ScalHFX         ....  0.167000
   Scaling of DF-GGA-X  ScalDFX         ....  0.000000
   Scaling of DF-GGA-C  ScalDFC         ....  1.000000
   Scaling of DF-LDA-C  ScalLDAC        ....  1.000000
   Perturbative correction              ....  0.000000
 Long-range corrected/Screened/Range-Separated Hybrid DFT is turned on
   Amount of maximum screened exact exchange              ....  0.833000
   Range separation parameter mu (erf(mu*r12)/r12)        ....  0.300000
   NL short-range parameter             ....  6.000000
   NL long-range parameter              ....  0.010000
 RI-approximation to the Coulomb term is turned on
   Number of AuxJ basis functions       .... 693
   RIJ-COSX (HFX calculated with COS-X)).... on


General Settings:
 Integral files         IntName         .... ./output/myrtenal/myrtenal
 Hartree-Fock type      HFTyp           .... RHF
 Total Charge           Charge          ....    0
 Multiplicity           Mult            ....    1
 Number of Electrons    NEL             ....   60
 Basis Dimension        Dim             ....  213
 Nuclear Repulsion      ENuc            ....    335.0212288744 Eh

Convergence Acceleration:
 AO-DIIS                CNVDIIS         .... on
   Start iteration      DIISMaxIt       ....    12
   Startup error        DIISStart       ....  0.200000
   # of expansion vecs  DIISMaxEq       ....     5
   Bias factor          DIISBfac        ....   1.050
   Max. coefficient     DIISMaxC        ....  10.000
 MO-DIIS                CNVKDIIS        .... off
 Trust-Rad. Augm. Hess. CNVTRAH         .... auto
   Auto Start mean grad. ratio tolernc. ....  1.125000
   Auto Start start iteration           ....    50
   Auto Start num. interpolation iter.  ....    10
   Max. Number of Micro iterations      ....    24
   Max. Number of Macro iterations      .... Maxiter - #DIIS iter
   Number of Davidson start vectors     ....     2
   Converg. threshold    (grad. norm)   ....   1.000e-05
   Grad. Scal. Fac. for Micro threshold ....   0.100
   Minimum threshold for Micro iter.    ....   1.000e-02
   NR start threshold (gradient norm)   ....   1.000e-04
   Initial trust radius                 ....   0.400
   Minimum AH scaling param. (alpha)    ....   1.000
   Maximum AH scaling param. (alpha)    .... 1000.000
   Quad. conv. algorithm                .... NR
   White noise on init. David. guess    .... on
   Maximum white noise                  ....   0.010
   Pseudo random numbers                .... off
   Inactive MOs                         .... canonical
   Orbital update algorithm             .... Taylor
   Preconditioner                       .... Diag
   Full preconditioner red. dimension   ....   250
 SOSCF                  CNVSOSCF        .... on
   Start iteration      SOSCFMaxIt      ....   150
   Startup grad/error   SOSCFStart      ....  0.003300
   Hessian update       SOSCFHessUp     .... L-BFGS
 Level Shifting         CNVShift        .... on
   Level shift para.    LevelShift      ....    0.2500
   Turn off err/grad.   ShiftErr        ....    0.0010
 Zerner damping         CNVZerner       .... off
 Static damping         CNVDamp         .... on
   Fraction old density DampFac         ....    0.7000
   Max. Damping (<1)    DampMax         ....    0.9800
   Min. Damping (>=0)   DampMin         ....    0.0000
   Turn off err/grad.   DampErr         ....    0.1000

SCF Procedure:
 Maximum # iterations   MaxIter         ....   125
 SCF integral mode      SCFMode         .... Direct
   Integral package                     .... SHARK and LIBINT hybrid scheme
 Reset frequency        DirectResetFreq ....    20
 Integral Threshold     Thresh          ....  2.500e-11 Eh
 Primitive CutOff       TCut            ....  2.500e-12 Eh

Convergence Tolerance:
 Convergence Check Mode ConvCheckMode   .... Total+1el-Energy
 Convergence forced     ConvForced      .... 0
 Energy Change          TolE            ....  1.000e-08 Eh
 1-El. energy change                    ....  1.000e-05 Eh
 Orbital Gradient       TolG            ....  1.000e-05
 Orbital Rotation angle TolX            ....  1.000e-05
 DIIS Error             TolErr          ....  5.000e-07

------------------------------
INITIAL GUESS: MODEL POTENTIAL
------------------------------
Loading Hartree-Fock densities                     ... done
Atomic calculation to generate a density for atom 0 (C  with ECP)
  Multiplicity assumed   :    1
  Atomic configuration   : 1s2 2s2 2p2 
  Number of open shells  : 1
  Command: /home/aspe232/Project/Software/ORCA/6_0_1/build/orca ./output/myrtenal/myrtenal_atom6.inp "" > ./output/myrtenal/myrtenal_atom6.out
Returned from the atomic calculation with res=0
Atomic calculation to generate a density for atom 9 (O  with ECP)
  Multiplicity assumed   :    3
  Atomic configuration   : 1s2 2s2 2p4 
  Number of open shells  : 1
  Command: /home/aspe232/Project/Software/ORCA/6_0_1/build/orca ./output/myrtenal/myrtenal_atom8.inp "" > ./output/myrtenal/myrtenal_atom8.out
Returned from the atomic calculation with res=0
Calculating cut-offs                               ... done
Initializing the effective Hamiltonian             ... done
Setting up the integral package (SHARK)            ... done
Starting the Coulomb interaction                   ... done (   0.0 sec)
Making the grid                                    ... done (   0.7 sec)
Mapping shells                                     ... done
Starting the XC term evaluation                    ... done (   0.0 sec)
  promolecular density results
     # of electrons  =     81.996906506
     EX              =    -42.352656215
     EC              =     -3.334692528
     EX+EC           =    -45.687348743
Transforming the Hamiltonian                       ... done (   0.0 sec)
Diagonalizing the Hamiltonian                      ... done (   0.0 sec)
Back transforming the eigenvectors                 ... done (   0.0 sec)
Now organizing SCF variables                       ... done
                      ------------------
                      INITIAL GUESS DONE (   2.1 sec)
                      ------------------
             **** ENERGY FILE WAS UPDATED (./output/myrtenal/myrtenal.en.tmp) ****
Finished Guess after   2.6 sec
Maximum memory used throughout the entire GUESS-calculation: 20.6 MB


           ************************************************************
           *        Program running with 40 parallel MPI-processes    *
           *              working on a common directory               *
           ************************************************************

-------------------------------------------------------------------------------------------
                                      ORCA LEAN-SCF
                              memory conserving SCF solver
-------------------------------------------------------------------------------------------

----------------------------------------D-I-I-S--------------------------------------------
Iteration    Energy (Eh)           Delta-E    RMSDP     MaxDP     DIISErr   Damp  Time(sec)
-------------------------------------------------------------------------------------------
               ***  Starting incremental Fock matrix formation  ***
    1    -80.9661242093155238     0.00e+00  3.90e-03  7.63e-02  1.76e-01  0.700   4.0
    2    -81.1375772921650196    -1.71e-01  2.85e-03  5.49e-02  1.06e-01  0.700   3.5
                               ***Turning on AO-DIIS***
    3    -81.2220739344216440    -8.45e-02  1.58e-03  2.83e-02  5.57e-02  0.700   3.1
    4    -81.2722210289558689    -5.01e-02  3.42e-03  5.99e-02  3.40e-02  0.000   3.2
    5    -81.3795740812970507    -1.07e-01  2.96e-04  5.34e-03  4.64e-03  0.000   3.3
                              *** Initializing SOSCF ***
---------------------------------------S-O-S-C-F--------------------------------------
Iteration    Energy (Eh)           Delta-E    RMSDP     MaxDP     MaxGrad    Time(sec)
--------------------------------------------------------------------------------------
    6    -81.3799767441969379    -4.03e-04  1.44e-04  4.07e-03  3.12e-03     3.4
               *** Restarting incremental Fock matrix formation ***
    7    -81.3800276142268899    -5.09e-05  9.92e-05  3.09e-03  1.53e-03     4.1
    8    -81.3800529204771124    -2.53e-05  8.47e-05  2.55e-03  7.49e-04     3.8
    9    -81.3800675051956546    -1.46e-05  2.31e-05  4.44e-04  1.53e-04     3.9
   10    -81.3800683575104244    -8.52e-07  8.12e-06  1.04e-04  4.93e-05     4.3
   11    -81.3800684387206275    -8.12e-08  2.68e-06  5.31e-05  1.52e-05     3.6
   12    -81.3800684711158056    -3.24e-08  7.75e-07  1.75e-05  7.30e-06     3.4
   13    -81.3800684685400597     2.58e-09  3.09e-07  6.76e-06  2.33e-06     3.2
                 **** Energy Check signals convergence ****

               *****************************************************
               *                     SUCCESS                       *
               *           SCF CONVERGED AFTER  13 CYCLES          *
               *****************************************************

Recomputing exchange energy using gridx3       ... done (    3.780 sec)
Old exchange energy                            :    -11.531071136 Eh
New exchange energy                            :    -11.531092136 Eh
Exchange energy change after final integration :     -0.000021000 Eh
Total energy after final integration           :    -81.380089469 Eh
             **** ENERGY FILE WAS UPDATED (./output/myrtenal/myrtenal.en.tmp) ****

----------------
TOTAL SCF ENERGY
----------------

Total Energy       :        -81.38008946895961 Eh           -2214.46482 eV

Components:
Nuclear Repulsion  :        335.02122887438838 Eh            9116.39111 eV
Electronic Energy  :       -416.40129734292844 Eh          -11330.85535 eV
One Electron Energy:       -787.37731877019303 Eh          -21425.62610 eV
Two Electron Energy:        370.97602142726458 Eh           10094.77075 eV

Virial components:
Potential Energy   :       -144.23284697283913 Eh           -3924.77530 eV
Kinetic Energy     :         62.85275750387952 Eh            1710.31048 eV
Virial Ratio       :          2.29477357399851

DFT components:
N(Alpha)           :       30.000086582483 electrons
N(Beta)            :       30.000086582483 electrons
N(Total)           :       60.000173164966 electrons
E(X)               :      -12.281327583839 Eh       
E(C)               :       -2.277159640754 Eh       
E(XC)              :      -14.558487224593 Eh       

---------------
SCF CONVERGENCE
---------------

  Last Energy change         ...   -2.5757e-09  Tolerance :   1.0000e-08
  Last MAX-Density change    ...    6.7624e-06  Tolerance :   1.0000e-07
  Last RMS-Density change    ...    3.0922e-07  Tolerance :   5.0000e-09
  Last DIIS Error            ...    3.1188e-03  Tolerance :   5.0000e-07
  Last Orbital Gradient      ...    2.3346e-06  Tolerance :   1.0000e-05
  Last Orbital Rotation      ...    5.6925e-06  Tolerance :   1.0000e-05


----------------
ORBITAL ENERGIES
----------------

  NO   OCC          E(Eh)            E(eV) 
   0   2.0000      -1.142563       -31.0907 
   1   2.0000      -1.039183       -28.2776 
   2   2.0000      -0.937542       -25.5118 
   3   2.0000      -0.886504       -24.1230 
   4   2.0000      -0.876308       -23.8455 
   5   2.0000      -0.815930       -22.2026 
   6   2.0000      -0.773952       -21.0603 
   7   2.0000      -0.747836       -20.3496 
   8   2.0000      -0.728343       -19.8192 
   9   2.0000      -0.688808       -18.7434 
  10   2.0000      -0.635389       -17.2898 
  11   2.0000      -0.605608       -16.4794 
  12   2.0000      -0.583144       -15.8681 
  13   2.0000      -0.570163       -15.5149 
  14   2.0000      -0.562753       -15.3133 
  15   2.0000      -0.547750       -14.9050 
  16   2.0000      -0.536902       -14.6098 
  17   2.0000      -0.517222       -14.0743 
  18   2.0000      -0.509754       -13.8711 
  19   2.0000      -0.504414       -13.7258 
  20   2.0000      -0.495188       -13.4747 
  21   2.0000      -0.483442       -13.1551 
  22   2.0000      -0.481786       -13.1101 
  23   2.0000      -0.466792       -12.7021 
  24   2.0000      -0.441516       -12.0143 
  25   2.0000      -0.413342       -11.2476 
  26   2.0000      -0.404715       -11.0129 
  27   2.0000      -0.390593       -10.6286 
  28   2.0000      -0.366837        -9.9822 
  29   2.0000      -0.354862        -9.6563 
  30   0.0000       0.010073         0.2741 
  31   0.0000       0.080137         2.1806 
  32   0.0000       0.091080         2.4784 
  33   0.0000       0.099319         2.7026 
  34   0.0000       0.104790         2.8515 
  35   0.0000       0.118174         3.2157 
  36   0.0000       0.121037         3.2936 
  37   0.0000       0.127015         3.4562 
  38   0.0000       0.135924         3.6987 
  39   0.0000       0.138556         3.7703 
  40   0.0000       0.152007         4.1363 
*Only the first 10 virtual orbitals were printed.

                    ********************************
                    * MULLIKEN POPULATION ANALYSIS *
                    ********************************

-----------------------
MULLIKEN ATOMIC CHARGES
-----------------------
   0 C :   -0.040628
   1 C :   -0.167858
   2 C :   -0.037671
   3 C :   -0.073862
   4 C :   -0.003735
   5 C :   -0.060489
   6 C :    0.000116
   7 C :   -0.042717
   8 C :    0.228497
   9 O :   -0.346764
  10 C :   -0.051108
  11 H :    0.040307
  12 H :    0.046712
  13 H :    0.036671
  14 H :    0.045651
  15 H :    0.062146
  16 H :    0.059827
  17 H :    0.035792
  18 H :    0.064131
  19 H :    0.052097
  20 H :    0.042492
  21 H :    0.001458
  22 H :    0.043100
  23 H :    0.038511
  24 H :    0.027324
Sum of atomic charges:   -0.0000000

--------------------------------
MULLIKEN REDUCED ORBITAL CHARGES
--------------------------------
  0 C s       :     0.945424  s :     0.945424
      pz      :     0.973914  p :     3.023904
      px      :     1.032330
      py      :     1.017660
      dz2     :     0.011444  d :     0.071300
      dxz     :     0.024202
      dyz     :     0.012012
      dx2y2   :     0.019805
      dxy     :     0.003837

  1 C s       :     1.103633  s :     1.103633
      pz      :     0.988594  p :     2.918527
      px      :     0.968719
      py      :     0.961214
      dz2     :     0.026389  d :     0.145698
      dxz     :     0.033432
      dyz     :     0.029332
      dx2y2   :     0.035533
      dxy     :     0.021013

  2 C s       :     1.060883  s :     1.060883
      pz      :     0.937706  p :     2.858830
      px      :     0.967745
      py      :     0.953379
      dz2     :     0.027747  d :     0.117958
      dxz     :     0.023939
      dyz     :     0.017815
      dx2y2   :     0.018853
      dxy     :     0.029603

  3 C s       :     0.996225  s :     0.996225
      pz      :     1.021733  p :     2.982089
      px      :     0.944257
      py      :     1.016099
      dz2     :     0.027573  d :     0.095548
      dxz     :     0.018854
      dyz     :     0.006923
      dx2y2   :     0.019982
      dxy     :     0.022216

  4 C s       :     1.069433  s :     1.069433
      pz      :     0.954696  p :     2.842353
      px      :     0.957969
      py      :     0.929687
      dz2     :     0.018746  d :     0.091949
      dxz     :     0.023311
      dyz     :     0.010999
      dx2y2   :     0.022657
      dxy     :     0.016237

  5 C s       :     1.049548  s :     1.049548
      pz      :     1.010481  p :     2.900138
      px      :     0.951827
      py      :     0.937830
      dz2     :     0.024940  d :     0.110803
      dxz     :     0.022624
      dyz     :     0.016178
      dx2y2   :     0.020328
      dxy     :     0.026733

  6 C s       :     1.037549  s :     1.037549
      pz      :     0.985611  p :     2.845568
      px      :     0.904061
      py      :     0.955896
      dz2     :     0.016984  d :     0.116767
      dxz     :     0.025040
      dyz     :     0.027958
      dx2y2   :     0.029421
      dxy     :     0.017365

  7 C s       :     1.014835  s :     1.014835
      pz      :     0.958186  p :     2.930548
      px      :     1.033737
      py      :     0.938625
      dz2     :     0.020125  d :     0.097334
      dxz     :     0.023710
      dyz     :     0.015364
      dx2y2   :     0.016453
      dxy     :     0.021682

  8 C s       :     1.114393  s :     1.114393
      pz      :     0.775111  p :     2.483076
      px      :     0.910272
      py      :     0.797693
      dz2     :     0.034120  d :     0.174033
      dxz     :     0.049150
      dyz     :     0.021581
      dx2y2   :     0.035082
      dxy     :     0.034100

  9 O s       :     1.807608  s :     1.807608
      pz      :     1.334433  p :     4.505260
      px      :     1.771081
      py      :     1.399747
      dz2     :     0.010905  d :     0.033896
      dxz     :     0.004343
      dyz     :     0.009637
      dx2y2   :     0.004871
      dxy     :     0.004140

 10 C s       :     0.957452  s :     0.957452
      pz      :     1.016563  p :     3.020427
      px      :     0.962735
      py      :     1.041128
      dz2     :     0.011343  d :     0.073230
      dxz     :     0.018941
      dyz     :     0.013843
      dx2y2   :     0.020901
      dxy     :     0.008202

 11 H s       :     0.912354  s :     0.912354
      pz      :     0.014296  p :     0.047339
      px      :     0.022049
      py      :     0.010994

 12 H s       :     0.910095  s :     0.910095
      pz      :     0.010172  p :     0.043193
      px      :     0.010255
      py      :     0.022766

 13 H s       :     0.920180  s :     0.920180
      pz      :     0.015061  p :     0.043149
      px      :     0.017519
      py      :     0.010569

 14 H s       :     0.913374  s :     0.913374
      pz      :     0.009214  p :     0.040975
      px      :     0.017128
      py      :     0.014632

 15 H s       :     0.894872  s :     0.894872
      pz      :     0.009249  p :     0.042982
      px      :     0.011506
      py      :     0.022227

 16 H s       :     0.896600  s :     0.896600
      pz      :     0.022241  p :     0.043573
      px      :     0.011410
      py      :     0.009922

 17 H s       :     0.916157  s :     0.916157
      pz      :     0.015716  p :     0.048051
      px      :     0.021189
      py      :     0.011145

 18 H s       :     0.893361  s :     0.893361
      pz      :     0.018689  p :     0.042508
      px      :     0.008413
      py      :     0.015406

 19 H s       :     0.905237  s :     0.905237
      pz      :     0.009244  p :     0.042666
      px      :     0.019975
      py      :     0.013447

 20 H s       :     0.913349  s :     0.913349
      pz      :     0.017562  p :     0.044159
      px      :     0.016044
      py      :     0.010553

 21 H s       :     0.954950  s :     0.954950
      pz      :     0.012965  p :     0.043592
      px      :     0.022525
      py      :     0.008102

 22 H s       :     0.913970  s :     0.913970
      pz      :     0.010766  p :     0.042930
      px      :     0.009339
      py      :     0.022826

 23 H s       :     0.918476  s :     0.918476
      pz      :     0.014677  p :     0.043013
      px      :     0.017645
      py      :     0.010691

 24 H s       :     0.927969  s :     0.927969
      pz      :     0.020003  p :     0.044707
      px      :     0.010658
      py      :     0.014045



                     *******************************
                     * LOEWDIN POPULATION ANALYSIS *
                     *******************************

----------------------
LOEWDIN ATOMIC CHARGES
----------------------
   0 C :   -0.111214
   1 C :   -0.057047
   2 C :   -0.037633
   3 C :   -0.070672
   4 C :    0.012402
   5 C :   -0.045978
   6 C :   -0.027040
   7 C :   -0.062293
   8 C :    0.041575
   9 O :   -0.174989
  10 C :   -0.106728
  11 H :    0.040009
  12 H :    0.051319
  13 H :    0.046273
  14 H :    0.038392
  15 H :    0.055206
  16 H :    0.052078
  17 H :    0.038744
  18 H :    0.049928
  19 H :    0.043313
  20 H :    0.042115
  21 H :    0.037263
  22 H :    0.050800
  23 H :    0.048300
  24 H :    0.045874

-------------------------------
LOEWDIN REDUCED ORBITAL CHARGES
-------------------------------
  0 C s       :     0.779486  s :     0.779486
      pz      :     0.999218  p :     3.096039
      px      :     1.062493
      py      :     1.034327
      dz2     :     0.038591  d :     0.235689
      dxz     :     0.080853
      dyz     :     0.039187
      dx2y2   :     0.064367
      dxy     :     0.012691

  1 C s       :     0.756040  s :     0.756040
      pz      :     0.957325  p :     2.863303
      px      :     0.949927
      py      :     0.956052
      dz2     :     0.079659  d :     0.437704
      dxz     :     0.096726
      dyz     :     0.089078
      dx2y2   :     0.103006
      dxy     :     0.069235

  2 C s       :     0.766153  s :     0.766153
      pz      :     0.940737  p :     2.900448
      px      :     0.984975
      py      :     0.974736
      dz2     :     0.085292  d :     0.371033
      dxz     :     0.071018
      dyz     :     0.060506
      dx2y2   :     0.055528
      dxy     :     0.098689

  3 C s       :     0.772244  s :     0.772244
      pz      :     1.022295  p :     3.001186
      px      :     0.960055
      py      :     1.018836
      dz2     :     0.086465  d :     0.297242
      dxz     :     0.058734
      dyz     :     0.021172
      dx2y2   :     0.063407
      dxy     :     0.067464

  4 C s       :     0.819149  s :     0.819149
      pz      :     0.962657  p :     2.876804
      px      :     0.985362
      py      :     0.928785
      dz2     :     0.049251  d :     0.291644
      dxz     :     0.077741
      dyz     :     0.043473
      dx2y2   :     0.071242
      dxy     :     0.049937

  5 C s       :     0.799818  s :     0.799818
      pz      :     0.972591  p :     2.894145
      px      :     0.960146
      py      :     0.961409
      dz2     :     0.069410  d :     0.352015
      dxz     :     0.073652
      dyz     :     0.058994
      dx2y2   :     0.065116
      dxy     :     0.084844

  6 C s       :     0.758392  s :     0.758392
      pz      :     0.994381  p :     2.902504
      px      :     0.931374
      py      :     0.976749
      dz2     :     0.052862  d :     0.366143
      dxz     :     0.074327
      dyz     :     0.093468
      dx2y2   :     0.088425
      dxy     :     0.057061

  7 C s       :     0.768381  s :     0.768381
      pz      :     0.984260  p :     2.976634
      px      :     1.036341
      py      :     0.956033
      dz2     :     0.066302  d :     0.317278
      dxz     :     0.076826
      dyz     :     0.053870
      dx2y2   :     0.046734
      dxy     :     0.073546

  8 C s       :     0.820698  s :     0.820698
      pz      :     0.836452  p :     2.645244
      px      :     0.976019
      py      :     0.832773
      dz2     :     0.083646  d :     0.492483
      dxz     :     0.131183
      dyz     :     0.087505
      dx2y2   :     0.099643
      dxy     :     0.090506

  9 O s       :     1.566809  s :     1.566809
      pz      :     1.405172  p :     4.538490
      px      :     1.690060
      py      :     1.443258
      dz2     :     0.015907  d :     0.069690
      dxz     :     0.011718
      dyz     :     0.023004
      dx2y2   :     0.009921
      dxy     :     0.009140

 10 C s       :     0.778700  s :     0.778700
      pz      :     1.045480  p :     3.088751
      px      :     0.982338
      py      :     1.060933
      dz2     :     0.037305  d :     0.239277
      dxz     :     0.062490
      dyz     :     0.044736
      dx2y2   :     0.067218
      dxy     :     0.027527

 11 H s       :     0.802502  s :     0.802502
      pz      :     0.047112  p :     0.157489
      px      :     0.067556
      py      :     0.042821

 12 H s       :     0.801705  s :     0.801705
      pz      :     0.039809  p :     0.146975
      px      :     0.041856
      py      :     0.065310

 13 H s       :     0.806116  s :     0.806116
      pz      :     0.049753  p :     0.147611
      px      :     0.056266
      py      :     0.041592

 14 H s       :     0.814709  s :     0.814709
      pz      :     0.039363  p :     0.146899
      px      :     0.056058
      py      :     0.051479

 15 H s       :     0.796743  s :     0.796743
      pz      :     0.039324  p :     0.148051
      px      :     0.042780
      py      :     0.065946

 16 H s       :     0.798355  s :     0.798355
      pz      :     0.067152  p :     0.149566
      px      :     0.042110
      py      :     0.040305

 17 H s       :     0.806601  s :     0.806601
      pz      :     0.050020  p :     0.154655
      px      :     0.064987
      py      :     0.039648

 18 H s       :     0.803280  s :     0.803280
      pz      :     0.058525  p :     0.146792
      px      :     0.034518
      py      :     0.053749

 19 H s       :     0.812996  s :     0.812996
      pz      :     0.037032  p :     0.143691
      px      :     0.060401
      py      :     0.046259

 20 H s       :     0.809515  s :     0.809515
      pz      :     0.054112  p :     0.148370
      px      :     0.054212
      py      :     0.040045

 21 H s       :     0.826017  s :     0.826017
      pz      :     0.041668  p :     0.136720
      px      :     0.067420
      py      :     0.027633

 22 H s       :     0.803890  s :     0.803890
      pz      :     0.041308  p :     0.145310
      px      :     0.038219
      py      :     0.065783

 23 H s       :     0.806063  s :     0.806063
      pz      :     0.049272  p :     0.145637
      px      :     0.054657
      py      :     0.041708

 24 H s       :     0.805753  s :     0.805753
      pz      :     0.059724  p :     0.148372
      px      :     0.039580
      py      :     0.049069



                      *****************************
                      * MAYER POPULATION ANALYSIS *
                      *****************************

  NA   - Mulliken gross atomic population
  ZA   - Total nuclear charge
  QA   - Mulliken gross atomic charge
  VA   - Mayer's total valence
  BVA  - Mayer's bonded valence
  FA   - Mayer's free valence

  ATOM       NA         ZA         QA         VA         BVA        FA
  0 C      4.0406     4.0000    -0.0406     3.9428     3.9428     0.0000
  1 C      4.1679     4.0000    -0.1679     4.0418     4.0418     0.0000
  2 C      4.0377     4.0000    -0.0377     3.9250     3.9250     0.0000
  3 C      4.0739     4.0000    -0.0739     4.0083     4.0083    -0.0000
  4 C      4.0037     4.0000    -0.0037     3.9644     3.9644     0.0000
  5 C      4.0605     4.0000    -0.0605     4.0452     4.0452    -0.0000
  6 C      3.9999     4.0000     0.0001     3.9352     3.9352    -0.0000
  7 C      4.0427     4.0000    -0.0427     3.9313     3.9313     0.0000
  8 C      3.7715     4.0000     0.2285     3.9989     3.9989    -0.0000
  9 O      6.3468     6.0000    -0.3468     1.9788     1.9788    -0.0000
 10 C      4.0511     4.0000    -0.0511     3.9812     3.9812    -0.0000
 11 H      0.9597     1.0000     0.0403     1.0217     1.0217     0.0000
 12 H      0.9533     1.0000     0.0467     1.0272     1.0272    -0.0000
 13 H      0.9633     1.0000     0.0367     1.0264     1.0264     0.0000
 14 H      0.9543     1.0000     0.0457     1.0214     1.0214     0.0000
 15 H      0.9379     1.0000     0.0621     1.0223     1.0223     0.0000
 16 H      0.9402     1.0000     0.0598     1.0184     1.0184    -0.0000
 17 H      0.9642     1.0000     0.0358     1.0393     1.0393     0.0000
 18 H      0.9359     1.0000     0.0641     1.0287     1.0287    -0.0000
 19 H      0.9479     1.0000     0.0521     1.0166     1.0166    -0.0000
 20 H      0.9575     1.0000     0.0425     1.0320     1.0320     0.0000
 21 H      0.9985     1.0000     0.0015     1.0435     1.0435     0.0000
 22 H      0.9569     1.0000     0.0431     1.0275     1.0275    -0.0000
 23 H      0.9615     1.0000     0.0385     1.0262     1.0262     0.0000
 24 H      0.9727     1.0000     0.0273     1.0334     1.0334    -0.0000

  Mayer bond orders larger than 0.100000
B(  0-C ,  1-C ) :   1.0138 B(  0-C , 11-H ) :   0.9910 B(  0-C , 12-H ) :   0.9900 
B(  0-C , 13-H ) :   0.9897 B(  1-C ,  2-C ) :   0.9532 B(  1-C ,  6-C ) :   0.9450 
B(  1-C , 10-C ) :   1.0288 B(  2-C ,  3-C ) :   1.0007 B(  2-C ,  7-C ) :   0.9742 
B(  2-C , 14-H ) :   1.0045 B(  3-C ,  4-C ) :   1.0191 B(  3-C , 15-H ) :   0.9843 
B(  3-C , 16-H ) :   0.9841 B(  4-C ,  5-C ) :   1.8097 B(  4-C , 17-H ) :   0.9908 
B(  5-C ,  6-C ) :   1.0250 B(  5-C ,  8-C ) :   1.1085 B(  6-C ,  7-C ) :   0.9670 
B(  6-C , 18-H ) :   0.9909 B(  7-C , 19-H ) :   1.0042 B(  7-C , 20-H ) :   1.0050 
B(  8-C ,  9-O ) :   1.8334 B(  8-C , 21-H ) :   1.0166 B( 10-C , 22-H ) :   0.9929 
B( 10-C , 23-H ) :   0.9926 B( 10-C , 24-H ) :   0.9936 

-------
TIMINGS
-------

Total SCF time: 0 days 0 hours 0 min 55 sec 

Total time                  ....      55.188 sec
Sum of individual times     ....      53.114 sec  ( 96.2%)

SCF preparation             ....       2.360 sec  (  4.3%)
Fock matrix formation       ....      49.181 sec  ( 89.1%)
  Startup                   ....       0.265 sec  (  0.5% of F)
  Split-RI-J                ....       1.634 sec  (  3.3% of F)
  Chain of spheres X        ....      23.176 sec  ( 47.1% of F)
  XC integration            ....      23.567 sec  ( 47.9% of F)
    XC Preparation          ....       0.000 sec  (  0.0% of XC)
    Basis function eval.    ....       0.536 sec  (  2.3% of XC)
    Density eval.           ....       0.251 sec  (  1.1% of XC)
    XC-Functional eval.     ....       0.165 sec  (  0.7% of XC)
    XC-Potential eval.      ....       0.342 sec  (  1.5% of XC)
Diagonalization             ....       0.000 sec  (  0.0%)
Density matrix formation    ....       0.386 sec  (  0.7%)
Total Energy calculation    ....       0.342 sec  (  0.6%)
Population analysis         ....       0.070 sec  (  0.1%)
Orbital Transformation      ....       0.101 sec  (  0.2%)
Orbital Orthonormalization  ....       0.000 sec  (  0.0%)
DIIS solution               ....       0.381 sec  (  0.7%)
SOSCF solution              ....       0.294 sec  (  0.5%)
Finished LeanSCF after  55.2 sec

Maximum memory used throughout the entire LEANSCF-calculation: 38.5 MB


           ************************************************************
           *        Program running with 40 parallel MPI-processes    *
           *              working on a common directory               *
           ************************************************************

------------------------------------------------------------------------------
                         ORCA PROPERTY INTEGRAL CALCULATIONS
------------------------------------------------------------------------------

GBWName                                   ... ./output/myrtenal/myrtenal.gbw
Number of atoms                           ...     25
Number of basis functions                 ...    213
Max core memory                           ...   1024 MB

Dipole integrals                          ... YES
Quadrupole integrals                      ...  NO
Linear momentum integrals                 ...  NO
Angular momentum integrals                ...  NO
Higher moments length integrals           ...  NO
Higher moments velocity integrals         ...  NO
Kinetic energy integrals                  ...  NO
GIAO right hand sides                     ...  NO
GIAO dipole derivative integrals          ...  NO
SOC integrals                             ...  NO
EPR diamagnetic integrals (GIAO)          ...  NO
EPR gauge integrals                       ...  NO
Field gradient integrals                  ...  NO (   0 nuclei)
Spin-dipole/Fermi contact integrals       ...  NO (   0 nuclei)
Contact density integrals                 ...  NO (   0 nuclei)
Nucleus-orbit integrals                   ...  NO (   0 nuclei)
Geometric perturbations                   ...  NO (  25 nuclei)

Choice of electric origin   ... Center of mass
Position of electric origin ... (  0.7378, -0.3223,  0.2814) 
Choice of magnetic origin   ... GIAO
Position of magnetic origin ... (  0.0000,  0.0000,  0.0000) 

Calculating integrals                     ... Electric Dipole (Length)     done (  0.0 sec)

Property integrals calculated in   0.0 sec

Maximum memory used throughout the entire PROPINT-calculation: 16.8 MB


-------------------------------------------------------------------------------
                          DFT DISPERSION CORRECTION                            
                                                                               
                                DFTD4 V3.4.0                                   
-------------------------------------------------------------------------------
The wB97X-3c composite method is recognized
Using three-body term ABC
Active option DFTDOPT                   ...         5   

-------------------------   ----------------
Dispersion correction           -0.032602249
-------------------------   ----------------


[...]
 15:    403.36   0.000057    0.29  0.000044  (-0.002063  0.005889  0.002350)
 16:    431.36   0.000320    1.62  0.000232  (-0.012544 -0.005587 -0.006567)
 17:    458.66   0.000223    1.13  0.000152  (-0.005290  0.009951  0.004980)
 18:    477.43   0.000281    1.42  0.000184  (-0.012792  0.004068 -0.001893)
 19:    594.89   0.000506    2.56  0.000266  (-0.003983  0.012280  0.009947)
 20:    618.05   0.000848    4.29  0.000428  (-0.020299  0.003888 -0.000979)
 21:    659.38   0.000365    1.84  0.000173  (-0.006914  0.011138 -0.000911)
 22:    727.71   0.002589   13.08  0.001110  (-0.025431  0.020856 -0.005327)
 23:    817.90   0.003382   17.09  0.001290  ( 0.034239 -0.010335  0.003365)
 24:    837.19   0.002773   14.01  0.001034  ( 0.009724  0.024746  0.018077)
 25:    868.95   0.000140    0.71  0.000050  (-0.005375 -0.001694 -0.004322)
 26:    897.27   0.000305    1.54  0.000106  ( 0.003546 -0.006704  0.006968)
 27:    936.16   0.000965    4.88  0.000322  (-0.004242  0.005421  0.016559)
 28:    964.08   0.000754    3.81  0.000244  ( 0.013810 -0.005393  0.004939)
 29:    981.71   0.000093    0.47  0.000030  (-0.000674  0.003622  0.003994)
 30:    989.73   0.000721    3.64  0.000227  (-0.011979 -0.005998  0.006918)
 31:   1005.72   0.000950    4.80  0.000295  (-0.015032  0.007004 -0.004440)
 32:   1012.82   0.001568    7.92  0.000483  (-0.005513 -0.017590  0.011972)
 33:   1042.90   0.000218    1.10  0.000065  (-0.005258  0.003664 -0.004910)
 34:   1048.13   0.000050    0.25  0.000015  ( 0.002294  0.001655  0.002631)
 35:   1095.37   0.000332    1.68  0.000095  (-0.007612  0.000501  0.006042)
 36:   1104.54   0.000801    4.05  0.000226  (-0.009945  0.010236 -0.004765)
 37:   1136.90   0.000393    1.99  0.000108  (-0.010268 -0.001226  0.000961)
 38:   1169.03   0.000175    0.88  0.000047  (-0.001284  0.006263  0.002417)
 39:   1188.48   0.004147   20.96  0.001089  ( 0.012500 -0.025874  0.016220)
 40:   1231.90   0.003047   15.40  0.000772  (-0.012482  0.023899 -0.006701)
 41:   1245.94   0.001869    9.45  0.000468  ( 0.013738 -0.013377  0.010027)
 42:   1273.23   0.001357    6.86  0.000333  ( 0.011027 -0.000621  0.014510)
 43:   1290.28   0.000881    4.45  0.000213  (-0.007446  0.012024 -0.003596)
 44:   1295.59   0.000453    2.29  0.000109  (-0.003545 -0.007585  0.006244)
 45:   1305.96   0.001349    6.82  0.000322  ( 0.016944 -0.005921 -0.000437)
 46:   1351.15   0.001007    5.09  0.000233  (-0.008757 -0.005562 -0.011176)
 47:   1380.76   0.000373    1.88  0.000084  (-0.007933 -0.004584 -0.000597)
 48:   1406.10   0.000985    4.98  0.000219  ( 0.006064  0.011621 -0.006847)
 49:   1438.84   0.002729   13.79  0.000592  ( 0.016659 -0.011047 -0.013869)
 50:   1440.15   0.000991    5.01  0.000215  (-0.001111  0.000221 -0.014612)
 51:   1451.02   0.001830    9.25  0.000394  (-0.010047  0.011708 -0.012476)
 52:   1453.16   0.002455   12.41  0.000527  (-0.015040 -0.015709 -0.007363)
 53:   1497.41   0.003586   18.12  0.000747  (-0.003680  0.019634 -0.018661)
 54:   1511.35   0.000765    3.86  0.000158  ( 0.008471 -0.000860 -0.009241)
 55:   1518.54   0.001161    5.87  0.000239  ( 0.001740  0.008000 -0.013096)
 56:   1532.23   0.000309    1.56  0.000063  ( 0.002154  0.001368 -0.007505)
 57:   1544.17   0.002017   10.19  0.000408  ( 0.007277 -0.018835  0.000010)
 58:   1549.61   0.001659    8.38  0.000334  (-0.007742 -0.008497 -0.014212)
 59:   1755.75   0.006036   30.51  0.001073  ( 0.019976 -0.022708  0.012577)
 60:   1845.98   0.071931  363.51  0.012160  (-0.028423  0.083023 -0.066778)
 61:   3004.62   0.017851   90.21  0.001854  ( 0.039359 -0.003273 -0.017153)
 62:   3091.62   0.004758   24.05  0.000480  (-0.006729 -0.013995  0.015464)
 63:   3098.73   0.004454   22.51  0.000449  ( 0.010674 -0.005322 -0.017500)
 64:   3103.39   0.008811   44.53  0.000886  (-0.024009 -0.015351 -0.008596)
 65:   3133.47   0.008120   41.04  0.000809  ( 0.019685 -0.011129  0.017244)
 66:   3136.12   0.001700    8.59  0.000169  (-0.005760 -0.008192 -0.008297)
 67:   3143.97   0.007578   38.30  0.000752  (-0.003894  0.024531  0.011630)
 68:   3178.44   0.000137    0.69  0.000013  (-0.001644  0.002909 -0.001495)
 69:   3183.03   0.003906   19.74  0.000383  (-0.010191  0.014021 -0.009081)
 70:   3183.67   0.002702   13.65  0.000265  ( 0.000876 -0.009910  0.012879)
 71:   3208.88   0.002610   13.19  0.000254  (-0.009297 -0.010019 -0.008184)
 72:   3218.57   0.002859   14.45  0.000277  ( 0.014849  0.002596 -0.007070)
 73:   3226.04   0.004865   24.59  0.000471  ( 0.014369 -0.005444 -0.015313)
 74:   3230.63   0.001596    8.07  0.000154  ( 0.010613  0.001476 -0.006274)

* The epsilon (eps) is given for a Dirac delta lineshape.
** The dipole moment derivative (T) already includes vibrational overlap.

The first frequency considered to be a vibration is 6
The total number of vibrations considered is 69


--------------------------
THERMOCHEMISTRY AT 298.15K
--------------------------

Temperature         ...   298.15 K
Pressure            ...     1.00 atm
Total Mass          ...   150.22 AMU
Quasi RRHO          ...     True
Cut-Off Frequency   ...     1.00 cm^-1

Throughout the following assumptions are being made:
  (1) The electronic state is orbitally nondegenerate
  (2) There are no thermally accessible electronically excited states
  (3) Hindered rotations indicated by low frequency modes are not
      treated as such but are treated as vibrations and this may
      cause some error
  (4) All equations used are the standard statistical mechanics
      equations for an ideal gas
  (5) All vibrations are strictly harmonic

freq.      75.15  E(vib)   ...       0.49 
freq.     163.48  E(vib)   ...       0.39 
freq.     174.04  E(vib)   ...       0.38 
freq.     198.58  E(vib)   ...       0.35 
freq.     226.57  E(vib)   ...       0.33 
freq.     243.23  E(vib)   ...       0.31 
freq.     275.89  E(vib)   ...       0.28 
freq.     354.83  E(vib)   ...       0.22 
freq.     388.48  E(vib)   ...       0.20 
freq.     403.36  E(vib)   ...       0.19 
freq.     431.36  E(vib)   ...       0.18 
freq.     458.66  E(vib)   ...       0.16 
freq.     477.43  E(vib)   ...       0.15 
freq.     594.89  E(vib)   ...       0.10 
freq.     618.05  E(vib)   ...       0.09 
freq.     659.38  E(vib)   ...       0.08 
freq.     727.71  E(vib)   ...       0.06 
freq.     817.90  E(vib)   ...       0.05 
freq.     837.19  E(vib)   ...       0.04 
freq.     868.95  E(vib)   ...       0.04 
freq.     897.27  E(vib)   ...       0.03 
freq.     936.16  E(vib)   ...       0.03 
freq.     964.08  E(vib)   ...       0.03 
freq.     981.71  E(vib)   ...       0.02 
freq.     989.73  E(vib)   ...       0.02 
freq.    1005.72  E(vib)   ...       0.02 
freq.    1012.82  E(vib)   ...       0.02 
freq.    1042.90  E(vib)   ...       0.02 
freq.    1048.13  E(vib)   ...       0.02 
freq.    1095.37  E(vib)   ...       0.02 
freq.    1104.54  E(vib)   ...       0.02 
freq.    1136.90  E(vib)   ...       0.01 
freq.    1169.03  E(vib)   ...       0.01 
freq.    1188.48  E(vib)   ...       0.01 
freq.    1231.90  E(vib)   ...       0.01 
freq.    1245.94  E(vib)   ...       0.01 
freq.    1273.23  E(vib)   ...       0.01 
freq.    1290.28  E(vib)   ...       0.01 
freq.    1295.59  E(vib)   ...       0.01 
freq.    1305.96  E(vib)   ...       0.01 
freq.    1351.15  E(vib)   ...       0.01 
freq.    1380.76  E(vib)   ...       0.01 
freq.    1406.10  E(vib)   ...       0.00 
freq.    1438.84  E(vib)   ...       0.00 
freq.    1440.15  E(vib)   ...       0.00 
freq.    1451.02  E(vib)   ...       0.00 
freq.    1453.16  E(vib)   ...       0.00 
freq.    1497.41  E(vib)   ...       0.00 
freq.    1511.35  E(vib)   ...       0.00 
freq.    1518.54  E(vib)   ...       0.00 
freq.    1532.23  E(vib)   ...       0.00 
freq.    1544.17  E(vib)   ...       0.00 
freq.    1549.61  E(vib)   ...       0.00 
freq.    1755.75  E(vib)   ...       0.00 
freq.    1845.98  E(vib)   ...       0.00 
freq.    3004.62  E(vib)   ...       0.00 
freq.    3091.62  E(vib)   ...       0.00 
freq.    3098.73  E(vib)   ...       0.00 
freq.    3103.39  E(vib)   ...       0.00 
freq.    3133.47  E(vib)   ...       0.00 
freq.    3136.12  E(vib)   ...       0.00 
freq.    3143.97  E(vib)   ...       0.00 
freq.    3178.44  E(vib)   ...       0.00 
freq.    3183.03  E(vib)   ...       0.00 
freq.    3183.67  E(vib)   ...       0.00 
freq.    3208.88  E(vib)   ...       0.00 
freq.    3218.57  E(vib)   ...       0.00 
freq.    3226.04  E(vib)   ...       0.00 
freq.    3230.63  E(vib)   ...       0.00 

------------
INNER ENERGY
------------

The inner energy is: U= E(el) + E(ZPE) + E(vib) + E(rot) + E(trans)
    E(el)   - is the total energy from the electronic structure calculation
              = E(kin-el) + E(nuc-el) + E(el-el) + E(nuc-nuc)
    E(ZPE)  - the the zero temperature vibrational energy from the frequency calculation
    E(vib)  - the the finite temperature correction to E(ZPE) due to population
              of excited vibrational states
    E(rot)  - is the rotational thermal energy
    E(trans)- is the translational thermal energy

Summary of contributions to the inner energy U:
Electronic energy                ...    -81.42934180 Eh
Zero point energy                ...      0.22332479 Eh     140.14 kcal/mol
Thermal vibrational correction   ...      0.00716146 Eh       4.49 kcal/mol
Thermal rotational correction    ...      0.00141627 Eh       0.89 kcal/mol
Thermal translational correction ...      0.00141627 Eh       0.89 kcal/mol
-----------------------------------------------------------------------
Total thermal energy                    -81.19602302 Eh


Summary of corrections to the electronic energy:
(perhaps to be used in another calculation)
Total thermal correction                  0.00999400 Eh       6.27 kcal/mol
Non-thermal (ZPE) correction              0.22332479 Eh     140.14 kcal/mol
-----------------------------------------------------------------------
Total correction                          0.23331878 Eh     146.41 kcal/mol


--------
ENTHALPY
--------

The enthalpy is H = U + kB*T
                kB is Boltzmann's constant
Total thermal energy              ...    -81.19602302 Eh 
Thermal Enthalpy correction       ...      0.00094421 Eh       0.59 kcal/mol
-----------------------------------------------------------------------
Total Enthalpy                    ...    -81.19507881 Eh


Note: Only C1 symmetry has been detected, increase convergence thresholds 
      if your molecule has a higher symmetry. Symmetry factor of 1.0 is   
      used for the rotational entropy correction. 
 

Note: Rotational entropy computed according to Herzberg 
Infrared and Raman Spectra, Chapter V,1, Van Nostrand Reinhold, 1945 
Point Group:  C1, Symmetry Number:   1  
Rotational constants in cm-1:     0.056475     0.032492     0.028265 

Vibrational entropy computed according to the QRRHO of S. Grimme
Chem.Eur.J. 2012 18 9955 using a reference frequency of 100.0 cm-1


-------
ENTROPY
-------

The entropy contributions are T*S = T*(S(el)+S(vib)+S(rot)+S(trans))
     S(el)   - electronic entropy
     S(vib)  - vibrational entropy
     S(rot)  - rotational entropy
     S(trans)- translational entropy
The entropies will be listed as multiplied by the temperature to get
units of energy

Electronic entropy                ...      0.00000000 Eh      0.00 kcal/mol
Vibrational entropy               ...      0.01172393 Eh      7.36 kcal/mol
Rotational entropy                ...      0.01416886 Eh      8.89 kcal/mol
Translational entropy             ...      0.01944758 Eh     12.20 kcal/mol
-----------------------------------------------------------------------
Final entropy term                ...      0.04534036 Eh     28.45 kcal/mol

In case the symmetry of your molecule has not been determined correctly
or in case you have a reason to use a different symmetry number we print 
out the resulting rotational entropy values for sn=1,12:

 non-linear molecules -----------------------------------
|  sn= 1 | S(rot)=       0.01416886 Eh      8.89 kcal/mol|
|  sn= 2 | S(rot)=       0.01351440 Eh      8.48 kcal/mol|
|  sn= 3 | S(rot)=       0.01313157 Eh      8.24 kcal/mol|
|  sn= 4 | S(rot)=       0.01285994 Eh      8.07 kcal/mol|
|  sn= 5 | S(rot)=       0.01264925 Eh      7.94 kcal/mol|
|  sn= 6 | S(rot)=       0.01247711 Eh      7.83 kcal/mol|
|  sn= 7 | S(rot)=       0.01233156 Eh      7.74 kcal/mol|
|  sn= 8 | S(rot)=       0.01220549 Eh      7.66 kcal/mol|
|  sn= 9 | S(rot)=       0.01209428 Eh      7.59 kcal/mol|
|  sn=10 | S(rot)=       0.01199480 Eh      7.53 kcal/mol|
|  sn=11 | S(rot)=       0.01190481 Eh      7.47 kcal/mol|
|  sn=12 | S(rot)=       0.01182265 Eh      7.42 kcal/mol|
 linear molecules ---------------------------------------
|  Dinfh | S(rot)=       0.00869289 Eh      5.45 kcal/mol|
|  Cinfv | S(rot)=       0.00934734 Eh      5.87 kcal/mol|
 --------------------------------------------------------


-------------------
GIBBS FREE ENERGY
-------------------

The Gibbs free energy is G = H - T*S

Total enthalpy                    ...    -81.19507881 Eh 
Total entropy correction          ...     -0.04534036 Eh    -28.45 kcal/mol
-----------------------------------------------------------------------
Final Gibbs free energy         ...    -81.24041917 Eh

For completeness - the Gibbs free energy minus the electronic energy
G-E(el)                           ...      0.18892263 Eh    118.55 kcal/mol


Maximum memory used throughout the entire PROP-calculation: 112.0 MB

--------------------------------
SUGGESTED CITATIONS FOR THIS RUN
--------------------------------

Below you find a list of papers that are relevant to this ORCA run
We neither can nor want to force you to cite these papers, but we appreciate if you do
You receive ORCA, which is the product of decades of hard work by many enthusiastic individuals, for free
The only thing we kindly ask in return is that you cite our papers,
We deeply appreciate it, if you show your appreciation for ORCA by not just citing the generic ORCA reference.

Please note that relegating all ORCA citations to the supporting information does *not* help us.
SI sections are not indexed - citations you put there will not count into any citation statistics
But we need these citations in order to attract the funding resources that allow us to do what we are doing

Therefore, if you are a happy ORCA user, please consider citing a few of the papers listed below in the main body of your paper

In addition to the list printed below, the program has created the file ./output/myrtenal/myrtenal.bibtex that contains the list in bibtex format
You can import this file easily into all common literature databanks and citation aid programs


List of essential papers. We consider these as the minimum necessary citations

  1. Neese,F.
     Software update: the ORCA program system, version 5.0
     WIRES Comput. Molec. Sci., 2022 12(1)e1606
     doi.org/10.1002/wcms.1606
  2. Mueller,M.; Hansen,A.; Grimme,S.
     wB97X-3c: A composite range-separated hybrid DFT method with a molecule-optimized polarized valence double-zeta basis set
     J. Chem. Phys., 2023 158 014103
     doi.org/10.1063/5.0133026

List of papers to cite with high priority. The work reported in these papers was absolutely
necessary for this run to complete.
Our perspective: the developers of density functionals and basis sets usually get cited in chemistry papers
Good! But without the algorithms to do something with them, the functionals or basis sets would not do anything.
Hence, in our opinion, the algorithm design and method developments papers are equally worthy of getting cited

  1. Neese,F.
     An improvement of the resolution of the identity approximation for the formation of the Coulomb matrix
     J. Comp. Chem., 2003 24(14)1740-1747
     doi.org/10.1002/jcc.10318
  2. Neese,F.; Wennmohs,F.; Hansen,A.; Becker,U.
     Efficient, approximate and parallel Hartree-Fock and hybrid DFT calculations. A 'chain-of-spheres' algorithm for the Hartree-Fock exchange
     Chem. Phys., 2009 356(1-3)98-109
     doi.org/10.1016/j.chemphys.2008.10.036
  3. Bykov,D.; Petrenko,T.; Izsak,R.; Kossmann,S.; Becker,U.; Valeev,E.; Neese,F.
     Efficient implementation of the analytic second derivatives of Hartree-Fock and hybrid DFT energies: a detailed analysis of different approximations
     Molec. Phys., 2015 113 1961-1977
     doi.org/10.1080/00268976.2015.1025114
  4. Helmich-Paris,B.; de Souza,B.; Neese,F.; Izsák,R.
     An improved chain of spheres for exchange algorithm
     J. Chem. Phys., 2021 155 104109
     doi.org/doi: 10.1063/5.0058766.
  5. Neese,F.
     The SHARK Integral Generation and Digestion System
     J. Comp. Chem., 2022  1-16
     doi.org/10.1002/jcc.26942
  6. Caldeweyher,E.; Bannwarth,C.; Grimme,S.
     Extension of the D3 dispersion coefficient model
     J. Chem. Phys., 2017 147 034112
     doi.org/10.1063/1.4993215
  7. Caldeweyher,E.; Ehlert,S.; Hansen,A.; Neugebauer,H.; Spicher,S.; Bannwarth,C.; Grimme,S.
     A generally applicable atomic-charge dependent London dispersion correction
     J. Chem. Phys., 2019 150 154122
     doi.org/10.1063/1.5090222
  8. Caldeweyher,E.; Mewes,J.; Ehlert,S.; Grimme,S.
     Extension and evaluation of the D4 London-dispersion model for periodic systems
     Phys. Chem. Chem. Phys., 2020 22(16)8499-8512
     doi.org/10.1039/D0CP00502A
  9. Wittmann,L.; Gordiy,I.; Friede,M.; Helmich-Paris,B.; Grimme,S.; Hansen,A.; Bursch,M.
     Extension of the D3 and D4 London Dispersion Corrections to the full Actinides Series
     Phys. Chem. Chem. Phys., 2024 26(32)21379-21394
     doi.org/https://doi.org/10.1039/D4CP01514B 

List of suggested additional citations. These are papers that are important in the 'surrounding' of 
of this run, or papers that preceded the highly important papers. If you like your results we are grateful for a citation.

  1. Izsak,R.; Neese,F.
     An overlap fitted chain of spheres exchange method
     J. Chem. Phys., 2011 135 144105
     doi.org/10.1063/1.3646921
  2. Izsak,R.; Hansen,A.; Neese,F.
     The resolution of identity and chain of spheres approximations for the LPNO-CCSD singles Fock term
     Molec. Phys., 2012 110 2413-2417
     doi.org/10.1080/00268976.2012.687466
  3. Neese,F.
     The ORCA program system
     WIRES Comput. Molec. Sci., 2012 2(1)73-78
     doi.org/10.1002/wcms.81
  4. Izsak,R.; Neese,F.; Klopper,W.
     Robust fitting techniques in the chain of spheres approximation to the Fock exchange: The role of the complementary space
     J. Chem. Phys., 2013 139 
     doi.org/10.1063/1.4819264
  5. Neese,F.
     Software update: the ORCA program system, version 4.0
     WIRES Comput. Molec. Sci., 2018 8(1)1-6
     doi.org/10.1002/wcms.1327
  6. Neese,F.; Wennmohs,F.; Becker,U.; Riplinger,C.
     The ORCA quantum chemistry program package
     J. Chem. Phys., 2020 152 Art. No. L224108
     doi.org/10.1063/5.0004608

List of optional additional citations

  1. Neese,F.
     Approximate second-order SCF convergence for spin unrestricted wavefunctions
     Chem. Phys. Lett., 2000 325(1-3)93-98
     doi.org/10.1016/s0009-2614(00)00662-x

Timings for individual modules:

Sum of individual times          ...      621.870 sec (=  10.365 min)
Startup calculation              ...       29.327 sec (=   0.489 min)   4.7 %
SCF iterations                   ...      351.466 sec (=   5.858 min)  56.5 %
Property integrals               ...       48.386 sec (=   0.806 min)   7.8 %
SCF Response                     ...       35.853 sec (=   0.598 min)   5.8 %
Property calculations            ...       87.464 sec (=   1.458 min)  14.1 %
SCF Gradient evaluation          ...       69.244 sec (=   1.154 min)  11.1 %
Geometry relaxation              ...        0.132 sec (=   0.002 min)   0.0 %
                             ****ORCA TERMINATED NORMALLY****
TOTAL RUN TIME: 0 days 0 hours 10 minutes 25 seconds 674 msec
