
                                 *****************
                                 * O   R   C   A *
                                 *****************

                                            #,                                       
                                            ###                                      
                                            ####                                     
                                            #####                                    
                                            ######                                   
                                           ########,                                 
                                     ,,################,,,,,                         
                               ,,#################################,,                 
                          ,,##########################################,,             
                       ,#########################################, ''#####,          
                    ,#############################################,,   '####,        
                  ,##################################################,,,,####,       
                ,###########''''           ''''###############################       
              ,#####''   ,,,,##########,,,,          '''####'''          '####       
            ,##' ,,,,###########################,,,                        '##       
           ' ,,###''''                  '''############,,,                           
         ,,##''                                '''############,,,,        ,,,,,,###''
      ,#''                                            '''#######################'''  
     '                                                          ''''####''''         
             ,#######,   #######,   ,#######,      ##                                
            ,#'     '#,  ##    ##  ,#'     '#,    #''#        ,####,   ,####,        
            ##       ##  ##   ,#'  ##            #'  '#       #'       #'  '#        
            ##       ##  #######   ##           ,######,      #####,   #    #        
            '#,     ,#'  ##    ##  '#,     ,#' ,#      #,     #,   #   #,  ,#        
             '#######'   ##     ##  '#######'  #'      '#     '####' # '####'        



                #########################################################
                #                        -***-                          #
                #          Department of theory and spectroscopy        #
                #                                                       #
                #                      Frank Neese                      #
                #                                                       #
                #     Directorship, Architecture, Infrastructure        #
                #                    SHARK, DRIVERS                     #
                #        Core code/Algorithms in most modules           #
                #                                                       #
                #        Max Planck Institute fuer Kohlenforschung      #
                #                Kaiser Wilhelm Platz 1                 #
                #                 D-45470 Muelheim/Ruhr                 #
                #                      Germany                          #
                #                                                       #
                #                  All rights reserved                  #
                #                        -***-                          #
                #########################################################


                         Program Version 6.0.1  -  RELEASE   -


 With contributions from (in alphabetic order):
[Max-Planck-Institut fuer Kohlenforschung]                               
  Daniel Aravena         : Magnetic Suceptibility                        
  Michael Atanasov       : Ab Initio Ligand Field Theory (pilot matlab implementation)
  Alexander A. Auer      : GIAO ZORA, VPT2 properties, NMR spectrum      
  Ute Becker             : All parallelization in ORCA, NUMFREQ, NUMCALC 
  Giovanni Bistoni       : ED, misc. LED, open-shell LED, HFLD           
  Martin Brehm           : Molecular dynamics                            
  Dmytro Bykov           : pre 5.0 version of the SCF Hessian            
  Marcos Casanova-Páez   : Triplet and SCS-CIS(D). UHF-(DLPNO)-IP/EA/STEOM-CCSD. UHF-CVS-IP/STEOM-CCSD   
  Vijay G. Chilkuri      : MRCI spin determinant printing, contributions to CSF-ICE 
  Pauline Colinet        : FMM embedding                                 
  Dipayan Datta          : RHF DLPNO-CCSD density                        
  Achintya Kumar Dutta   : EOM-CC, STEOM-CC                              
  Nicolas Foglia         : Exact transition moments, OPA infrastructure, MCD improvements    
  Dmitry Ganyushin       : Spin-Orbit,Spin-Spin,Magnetic field MRCI      
  Miquel Garcia-Rates    : C-PCM and meta-GGA Hessian, CCSD/C-PCM, Gaussian charge scheme 
  Tiago L. C. Gouveia    : GS-ROHF, GS-ROCIS                             
  Yang Guo               : DLPNO-NEVPT2, F12-NEVPT2, CIM, IAO-localization        
  Andreas Hansen         : Spin unrestricted coupled pair/coupled cluster methods 
  Ingolf Harden          : AUTO-CI MPn and infrastructure                
  Benjamin Helmich-Paris : MC-RPA, TRAH-(SCF,CASSCF), AVAS, COSX integrals, SCF dyn. polar. 
  Lee Huntington         : MR-EOM, pCC                                   
  Robert Izsak           : Overlap fitted RIJCOSX, COSX-SCS-MP3, EOM     
  Riya Kayal             : Wick's Theorem for AUTO-CI, AUTO-CI UHF-CCSDT 
  Emily Kempfer          : AUTO-CI, RHF CISDT and CCSDT                  
  Christian Kollmar      : KDIIS, OOCD, Brueckner-CCSD(T), CCSD density, CASPT2, CASPT2-K, improved NEVPT2 
  Axel Koslowski         : Symmetry handling                             
  Simone Kossmann        : meta-GGA functionals, TD-DFT gradient, OOMP2, (MP2 Hessian; deprecated post 5.0) 
  Lucas Lang             : DCDCAS                                        
  Marvin Lechner         : AUTO-CI (C++ implementation), FIC-MRCC        
  Spencer Leger          : CASSCF response                               
  Dagmar Lenk            : GEPOL surface, SMD, ORCA-2-JSON               
  Dimitrios Liakos       : Extrapolation schemes; Compound Job, initial MDCI parallelization 
  Dimitrios Manganas     : Further ROCIS development; embedding schemes. LFT, Crystal Embedding 
  Dimitrios Pantazis     : SARC Basis sets                               
  Anastasios Papadopoulos: AUTO-CI, single reference methods and gradients 
  Taras Petrenko         : pre 6.0 DFT Hessian and TD-DFT gradient, (ASA, deprecated), ECA, 1-Electron XAS/XES, NRVS 
  Peter Pinski           : DLPNO-MP2, DLPNO-MP2 Gradient                 
  Christoph Reimann      : Effective Core Potentials                     
  Marius Retegan         : Local ZFS, SOC                                
  Christoph Riplinger    : Optimizer, TS searches, QM/MM, DLPNO-CCSD(T), (RO)-DLPNO pert. Triples 
  Michael Roemelt        : Original ROCIS implementation                 
  Masaaki Saitow         : Open-shell DLPNO-CCSD energy and density      
  Barbara Sandhoefer     : DKH picture change effects                    
  Kantharuban Sivalingam : CASSCF convergence/infrastructure, NEVPT2 and variants, FIC-MRCI 
  Bernardo de Souza      : ESD, SOC TD-DFT                               
  Georgi L. Stoychev     : AutoAux, RI-MP2 NMR, DLPNO-MP2 response, X2C  
  Van Anh Tran           : RI-MP2 g-tensors                              
  Willem Van den Heuvel  : Paramagnetic NMR                              
  Zikuan Wang            : NOTCH, Electric field optimization            
  Frank Wennmohs         : Technical directorship and infrastructure     
  Hang Xu                : AUTO-CI-Response properties                   
                                                                         
[FACCTs GmbH]                                                            
  Markus Bursch, Miquel Garcia-Rates, Christoph Riplinger, Bernardo de Souza, Georgi L. Stoychev 
                                                                 
  APM, Basis sets (HGBS, AHGBS, def-TZVP (Ac-Lr), def2-XVPD (La-Lu)), CI-OPT, improved COSX, DLPNO-Multilevel,           
  DOCKER, DRACO, updates on ESD, GOAT, IRC, LR-CPCM, MBIS, meta-GGA TD-DFT gradient, ML-optimized integration grids, 
  MM, NACMEs, nearIR, NEB, NEB-TS, NL-DFT gradient (VV10), 2- and 3-layer-ONIOM, interface openCOSMO-RS, QMMM,   
  Crystal-QMMM, SF, symmetry and pop. for TD-DFT, r2SCAN hybrids, SOLVATOR                                   
                                                                         
[Other institutions]                                                     
  V. Asgeirsson          : NEB                                           
  Christoph Bannwarth    : sTDA-DFT, sTD-DFT, PBEh-3c, B97-3c, D3        
  Sebastian Ehlert       : rSCAN, r2SCAN, r2SCAN-3c, D4, dhf basis sets  
  Marvin Friede          : D4 for Fr, Ra, Ac-Lr                          
  Lars Goerigk           : TD-DFT with DH, B97 family of functionals     
  Stefan Grimme          : VdW corrections, initial TS optimization, DFT functionals, gCP, sTDA/sTD-DF 
  Waldemar Hujo          : DFT-NL                                        
  H. Jonsson             : NEB                                           
  Holger Kruse           : gCP                                           
  Marcel Mueller         : wB97X-3c, vDZP basis set                      
  Hagen Neugebauer       : wr2SCAN                                       
  Tobias Risthaus        : range-separated hybrid DFT                    
  Lukas Wittmann         : regularized MP2, r2SCAN double-hybrids, wr2SCAN        
                                                                         
We gratefully acknowledge several colleagues who have allowed us to      
interface, adapt or use parts of their codes:                            
  Ed Valeev, F. Pavosevic, A. Kumar             : LibInt (2-el integral package), F12 methods 
  Garnet Chan, S. Sharma, J. Yang, R. Olivares  : DMRG                   
  Ulf Ekstrom                                   : XCFun DFT Library      
  Mihaly Kallay                                 : mrcc  (arbitrary order and MRCC methods)
  Frank Weinhold                                : gennbo (NPA and NBO analysis)           
  Simon Mueller                                 : openCOSMO-RS                            
  Christopher J. Cramer and Donald G. Truhlar   : smd solvation model                     
  S Lehtola, MJT Oliveira, MAL Marques          : LibXC Library                           
  Liviu Ungur et al                             : ANISO software                          


 Your calculation uses the libint2 library for the computation of 2-el integrals
 For citations please refer to: http://libint.valeyev.net

 Your ORCA version has been built with support for libXC version: 6.2.2
 For citations please refer to: https://libxc.gitlab.io

 This ORCA versions uses:
   CBLAS   interface :  Fast vector & matrix operations
   LAPACKE interface :  Fast linear algebra routines
   SCALAPACK package :  Parallel linear algebra routines
   Shared memory     :  Shared parallel matrices
   BLAS/LAPACK       :  OpenBLAS 0.3.27  USE64BITINT DYNAMIC_ARCH NO_AFFINITY SkylakeX SINGLE_THREADED
        Core in use  :  SkylakeX
   Copyright (c) 2011-2014, The OpenBLAS Project


Your calculation utilizes the atom-pairwise dispersion correction
based on EEQ partial charges (D4)


================================================================================

cite the ECPs for C  [vDZP-ECP] as follows:
   B-Ne (ecp-2-mwb), Al-Ar (ecp-10-mwb), Ga-Kr (ecp-28-mwb), Y-Cd (ecp-28-mwb), In-Xe (ecp-46-mwb):
     A. Bergner, M. Dolg, W. Küchle, H. Stoll, and H. Preuß, Mol. Phys. 80, 1431 (1993)., T. Leininger, A. Berning, A. Nicklass, H. Stoll, H.-J. Werner, and H.-J.Flad, Chem. Phys. 217, 19 (1997).
   Na-Mg, K-Ca, Rb-Sr, Cs-Ba (CRENBL):
     L. Fernandez Pacios and P. A. Christiansen, J. Chem. Phys. 82, 2664 (1985)., M. M. Hurley, L. F. Pacios, P. A. Christiansen, R. B. Ross, and W. C. Ermler, J. Chem. Phys. 84, 6840 (1986)., L. A. LaJohn, P. A. Christiansen, R. B. Ross, T. Atashroo, and W. C. Ermler, J. Chem. Phys. 87, 2812 (1987)., R. B. Ross, J. M. Powers, T. Atashroo, W. C. Ermler, L. A. LaJohn, and P. A. Christiansen, J. Chem. Phys. 93, 6654 (1990). 
   Sc-Zn (ecp-10-mdf):
     M. Dolg, U. Wedig, H. Stoll, and H. Preuss, J. Chem. Phys. 86, 866 (1986). 
   Y-Cd (ecp-28-mwb), Hf-Hg (ecp-60-mwb):
     D. Andrae, U. Häußermann, M. Dolg, H. Stoll, and H. Preuß, Theor. Chim. Acta 77, 123 (1990). 
   La (ecp-46-mwb):
     M. Dolg, H. Stoll, and H. Preuss, J. Chem. Phys. 90, 1730 (1989)., M. Dolg, H. Stoll, and H. Preuss, Theor. Chim. Acta 85, 441 (1993).
   Ce-Lu (SBKJC-ecp):
     T. R. Cundari and W. J. Stevens, J. Chem. Phys. 98, 5555 (1993).
   Tl-Rn (ecp-78-mwb):
     W. Küchle, M. Dolg, H. Stoll, and H. Preuss, Mol. Phys. 74, 1245 (1991).

ECP parameters for C  [vDZP-ECP] have been obtained from:
MM, AH, SG, J. Chem. Phys. 158, 014103 (2023), 10.1063/5.0133026

----- Orbital basis set information -----
Your calculation utilizes the basis: vDZP
   Marcel Mueller, Andreas Hansen, Stefan Grimme 
   J. Chem. Phys. 158, 014103 (2023). DOI: 10.1063/5.0133026

----- AuxJ basis set information -----
Your calculation utilizes the auxiliary basis: def2/J
   F. Weigend, Phys. Chem. Chem. Phys. 8, 1057 (2006).

================================================================================
                                        WARNINGS
                       Please study these warnings very carefully!
================================================================================

WARNING: Frozen-Core approximation turned on, but there are no core electrons.
  ===> : Turning off frozen-core approximation


WARNING: Geometry Optimization
  ===> : Switching off AutoStart
         For restart on a previous wavefunction, please use MOREAD

================================================================================
                                       INPUT FILE
================================================================================
NAME = ./output/neoalloocimene/neoalloocimene.inp
|  1> ! wB97X-3c OPT FREQ TightSCF
|  2> %pal
|  3>   nprocs 40
|  4> end
|  5> * xyz 0 1
|  6> C     -2.574030    -0.214525     0.783325
|  7> C     -1.779412     0.327288    -0.377438
|  8> C     -2.399783     0.623604    -1.524243
|  9> C     -0.313517     0.539147    -0.276701
| 10> C      0.394149     0.273280     0.828732
| 11> C      1.878792     0.486496     0.879151
| 12> C      2.608108    -0.728567     0.379349
| 13> C      2.731118    -0.990146    -0.925252
| 14> H     -2.191958    -1.219401     1.060482
| 15> H     -2.477630     0.468716     1.653050
| 16> H     -3.654466    -0.312628     0.542084
| 17> H     -1.851174     1.013387    -2.373132
| 18> H     -3.467419     0.482826    -1.638369
| 19> H      0.208700     0.931432    -1.142545
| 20> H     -0.086319    -0.119415     1.715374
| 21> H      2.176706     1.391115     0.304307
| 22> H      2.169258     0.657267     1.937637
| 23> H      3.055029    -1.407879     1.099399
| 24> H      3.266810    -1.875116    -1.252800
| 25> H      2.307038    -0.326883    -1.672410
| 26> *
| 27> 
| 28>                          ****END OF INPUT****
================================================================================

                       *****************************
                       * Geometry Optimization Run *
                       *****************************

Geometry optimization settings:
Update method            Update   .... BFGS
Choice of coordinates    CoordSys .... (2022) Redundant Internals
Initial Hessian          InHess   .... Almloef's Model
Max. no of cycles        MaxIter  .... 60

Convergence Tolerances:
Energy Change            TolE     ....  5.0000e-06 Eh
Max. Gradient            TolMAXG  ....  3.0000e-04 Eh/bohr
RMS Gradient             TolRMSG  ....  1.0000e-04 Eh/bohr
Max. Displacement        TolMAXD  ....  4.0000e-03 bohr
RMS Displacement         TolRMSD  ....  2.0000e-03 bohr
Strict Convergence                .... False

------------------------------------------------------------------------------
                        ORCA OPTIMIZATION COORDINATE SETUP
------------------------------------------------------------------------------

The optimization will be done in redundant internal coordinates (2022)
Making redundant internal coordinates   ...  (2022 redundants) done
Evaluating the initial hessian          ...  (Almloef) done
Evaluating the coordinates              ...  done
Calculating the B-matrix                .... done
Calculating the G-matrix                .... done
Diagonalizing the G-matrix              .... done
Small eigenvalue found = 1.227e-02
Small eigenvalue found = 1.828e-02
The first mode is                       ....   26
The number of degrees of freedom        ....   54

    -----------------------------------------------------------------
                    Redundant Internal Coordinates


    -----------------------------------------------------------------
         Definition                    Initial Value    Approx d2E/dq
    -----------------------------------------------------------------
      1. B(C   1,C   0)                  1.5074         0.405867   
      2. B(C   2,C   1)                  1.3371         0.758829   
      3. B(C   3,C   1)                  1.4845         0.441463   
      4. B(C   4,C   3)                  1.3392         0.752984   
      5. B(C   5,C   4)                  1.5007         0.415995   
      6. B(C   6,C   5)                  1.5027         0.412996   
      7. B(C   7,C   6)                  1.3362         0.761217   
      8. B(H   8,C   0)                  1.1102         0.334331   
      9. B(H   9,C   0)                  1.1102         0.334352   
     10. B(H  10,C   0)                  1.1114         0.332900   
     11. B(H  11,C   2)                  1.0833         0.369088   
     12. B(H  12,C   2)                  1.0829         0.369605   
     13. B(H  13,C   3)                  1.0846         0.367360   
     14. B(H  14,C   4)                  1.0822         0.370545   
     15. B(H  15,C   5)                  1.1124         0.331599   
     16. B(H  16,C   5)                  1.1108         0.333582   
     17. B(H  17,C   6)                  1.0861         0.365258   
     18. B(H  18,C   7)                  1.0851         0.366651   
     19. B(H  19,C   7)                  1.0854         0.366290   
     20. A(C   1,C   0,H   8)          109.6424         0.324780   
     21. A(H   9,C   0,H  10)          107.9861         0.283981   
     22. A(C   1,C   0,H  10)          112.1504         0.324552   
     23. A(C   1,C   0,H   9)          109.6495         0.324784   
     24. A(H   8,C   0,H  10)          107.9902         0.283979   
     25. A(H   8,C   0,H   9)          109.3647         0.284171   
     26. A(C   0,C   1,C   2)          119.7040         0.417183   
     27. A(C   0,C   1,C   3)          121.3023         0.379316   
     28. A(C   2,C   1,C   3)          118.9937         0.423487   
     29. A(C   1,C   2,H  12)          121.2656         0.366892   
     30. A(C   1,C   2,H  11)          121.1226         0.366804   
     31. A(H  11,C   2,H  12)          117.6118         0.293169   
     32. A(C   4,C   3,H  13)          118.4472         0.366024   
     33. A(C   1,C   3,C   4)          123.3303         0.422902   
     34. A(C   1,C   3,H  13)          118.2223         0.334489   
     35. A(C   5,C   4,H  14)          117.5963         0.331683   
     36. A(C   3,C   4,C   5)          121.4859         0.418442   
     37. A(C   3,C   4,H  14)          120.9110         0.366566   
     38. A(C   4,C   5,C   6)          110.7373         0.376568   
     39. A(H  15,C   5,H  16)          107.2987         0.283707   
     40. A(C   6,C   5,H  16)          108.3205         0.325591   
     41. A(C   4,C   5,H  16)          108.2124         0.325979   
     42. A(C   6,C   5,H  15)          110.8355         0.325272   
     43. A(C   4,C   5,H  15)          111.2910         0.325659   
     44. A(C   5,C   6,C   7)          121.8499         0.418713   
     45. A(C   7,C   6,H  17)          119.1396         0.366346   
     46. A(C   5,C   6,H  17)          119.0082         0.330499   
     47. A(H  18,C   7,H  19)          118.9136         0.292448   
     48. A(C   6,C   7,H  19)          121.0978         0.366524   
     49. A(C   6,C   7,H  18)          119.9878         0.366585   
     50. D(C   2,C   1,C   0,H   8)    119.9012         0.012210   
     51. D(C   3,C   1,C   0,H   8)    -60.0100         0.012210   
     52. D(C   3,C   1,C   0,H   9)     60.0745         0.012210   
     53. D(C   2,C   1,C   0,H  10)     -0.0567         0.012210   
     54. D(C   2,C   1,C   0,H   9)   -120.0142         0.012210   
     55. D(H  11,C   2,C   1,C   3)     -0.0333         0.041159   
     56. D(H  11,C   2,C   1,C   0)   -179.9466         0.041159   
     57. D(H  12,C   2,C   1,C   3)    179.9582         0.041159   
     58. D(H  12,C   2,C   1,C   0)      0.0449         0.041159   
     59. D(H  13,C   3,C   1,C   2)      0.0895         0.013296   
     60. D(H  13,C   3,C   1,C   0)   -179.9986         0.013296   
     61. D(C   4,C   3,C   1,C   0)     -0.1489         0.013296   
     62. D(C   4,C   3,C   1,C   2)    179.9392         0.013296   
     63. D(C   5,C   4,C   3,H  13)     -0.9578         0.040466   
     64. D(C   5,C   4,C   3,C   1)    179.1929         0.040466   
     65. D(H  14,C   4,C   3,H  13)   -179.9845         0.040466   
     66. D(H  14,C   4,C   3,C   1)      0.1661         0.040466   
     67. D(H  16,C   5,C   4,C   3)    154.4726         0.012804   
     68. D(H  15,C   5,C   4,H  14)   -144.1272         0.012804   
     69. D(H  15,C   5,C   4,C   3)     36.8150         0.012804   
     70. D(C   6,C   5,C   4,H  14)     92.1117         0.012804   
     71. D(C   6,C   5,C   4,C   3)    -86.9461         0.012804   
     72. D(H  17,C   6,C   5,C   4)   -101.9089         0.012626   
     73. D(C   7,C   6,C   5,H  16)   -162.8381         0.012626   
     74. D(C   7,C   6,C   5,H  15)    -45.3761         0.012626   
     75. D(H  17,C   6,C   5,H  15)    134.0689         0.012626   
     76. D(C   7,C   6,C   5,C   4)     78.6462         0.012626   
     77. D(H  19,C   7,C   6,H  17)   -179.2866         0.041444   
     78. D(H  19,C   7,C   6,C   5)      0.1577         0.041444   
     79. D(H  18,C   7,C   6,H  17)      0.3753         0.041444   
     80. D(H  18,C   7,C   6,C   5)    179.8195         0.041444   
    -----------------------------------------------------------------

Number of atoms                         .... 20
Number of degrees of freedom            .... 80


         *************************************************************
         *                GEOMETRY OPTIMIZATION CYCLE   1            *
         *************************************************************
---------------------------------
CARTESIAN COORDINATES (ANGSTROEM)
---------------------------------
  C     -2.574030   -0.214525    0.783325
  C     -1.779412    0.327288   -0.377438
  C     -2.399783    0.623604   -1.524243
  C     -0.313517    0.539147   -0.276701
  C      0.394149    0.273280    0.828732
  C      1.878792    0.486496    0.879151
  C      2.608108   -0.728567    0.379349
  C      2.731118   -0.990146   -0.925252
  H     -2.191958   -1.219401    1.060482
  H     -2.477630    0.468716    1.653050
  H     -3.654466   -0.312628    0.542084
  H     -1.851174    1.013387   -2.373132
  H     -3.467419    0.482826   -1.638369
  H      0.208700    0.931432   -1.142545
  H     -0.086319   -0.119415    1.715374
  H      2.176706    1.391115    0.304307
  H      2.169258    0.657267    1.937637
  H      3.055029   -1.407879    1.099399
  H      3.266810   -1.875116   -1.252800
  H      2.307038   -0.326883   -1.672410

----------------------------
CARTESIAN COORDINATES (A.U.)
----------------------------
  NO LB      ZA    FRAG     MASS         X           Y           Z
   0 C     4.0000*   0    12.011   -4.864212   -0.405393    1.480270
   1 C     4.0000*   0    12.011   -3.362601    0.618485   -0.713254
   2 C     4.0000*   0    12.011   -4.534933    1.178441   -2.880402
   3 C     4.0000*   0    12.011   -0.592461    1.018840   -0.522889
   4 C     4.0000*   0    12.011    0.744834    0.516424    1.566077
   5 C     4.0000*   0    12.011    3.550402    0.919344    1.661355
   6 C     4.0000*   0    12.011    4.928610   -1.376792    0.716866
   7 C     4.0000*   0    12.011    5.161065   -1.871105   -1.748473
   8 H     1.0000    0     1.008   -4.142200   -2.304334    2.004021
   9 H     1.0000    0     1.008   -4.682042    0.885745    3.123812
  10 H     1.0000    0     1.008   -6.905940   -0.590781    1.024390
  11 H     1.0000    0     1.008   -3.498212    1.915024   -4.484570
  12 H     1.0000    0     1.008   -6.552472    0.912409   -3.096069
  13 H     1.0000    0     1.008    0.394386    1.760151   -2.159097
  14 H     1.0000    0     1.008   -0.163119   -0.225662    3.241587
  15 H     1.0000    0     1.008    4.113378    2.628826    0.575057
  16 H     1.0000    0     1.008    4.099304    1.242055    3.661603
  17 H     1.0000    0     1.008    5.773168   -2.660506    2.077563
  18 H     1.0000    0     1.008    6.173376   -3.543456   -2.367449
  19 H     1.0000    0     1.008    4.359670   -0.617719   -3.160397
* core charge reduced due to ECP

--------------------------------
INTERNAL COORDINATES (ANGSTROEM)
--------------------------------
 C      0   0   0     0.000000000000     0.00000000     0.00000000
 C      1   0   0     1.507431535779     0.00000000     0.00000000
 C      2   1   0     1.337095754807   119.70399177     0.00000000
 C      2   1   3     1.484547180145   121.30225349   180.08875079
 C      4   2   1     1.339200711893   123.33034242   359.85106541
 C      5   4   2     1.500722484561   121.48588725   179.19288185
 C      6   5   4     1.502691572156   110.73732948   273.05387396
 C      7   6   5     1.336240548158   121.84988844    78.64618321
 H      1   2   3     1.110212047858   109.64237788   119.90121194
 H      1   2   3     1.110194937705   109.64950500   239.98577694
 H      1   2   3     1.111379039206   112.15038519   359.94333973
 H      3   2   1     1.083289045588   121.12261565   180.05339163
 H      3   2   1     1.082908037488   121.26561184     0.04487489
 H      4   2   1     1.084566249083   118.22232014   180.00139466
 H      5   4   2     1.082216659553   120.91101340     0.16612343
 H      6   5   4     1.112445014773   111.29096204    36.81502794
 H      6   5   4     1.110822147687   108.21243714   154.47259445
 H      7   6   5     1.086128526504   119.00824684   258.09112255
 H      8   7   6     1.085092397940   119.98778399   179.81953514
 H      8   7   6     1.085360184700   121.09777860     0.15767028

---------------------------
INTERNAL COORDINATES (A.U.)
---------------------------
 C      0   0   0     0.000000000000     0.00000000     0.00000000
 C      1   0   0     2.848632768259     0.00000000     0.00000000
 C      2   1   0     2.526744791413   119.70399177     0.00000000
 C      2   1   3     2.805387603358   121.30225349   180.08875079
 C      4   2   1     2.530722583830   123.33034242   359.85106541
 C      5   4   2     2.835954498838   121.48588725   179.19288185
 C      6   5   4     2.839675535127   110.73732948   273.05387396
 C      7   6   5     2.525128685060   121.84988844    78.64618321
 H      1   2   3     2.097996721031   109.64237788   119.90121194
 H      1   2   3     2.097964387528   109.64950500   239.98577694
 H      1   2   3     2.100202015079   112.15038519   359.94333973
 H      3   2   1     2.047119620038   121.12261565   180.05339163
 H      3   2   1     2.046399619074   121.26561184     0.04487489
 H      4   2   1     2.049533184861   118.22232014   180.00139466
 H      5   4   2     2.045093104121   120.91101340     0.16612343
 H      6   5   4     2.102216416967   111.29096204    36.81502794
 H      6   5   4     2.099149642624   108.21243714   154.47259445
 H      7   6   5     2.052485461331   119.00824684   258.09112255
 H      8   7   6     2.050527462107   119.98778399   179.81953514
 H      8   7   6     2.051033505746   121.09777860     0.15767028

---------------------
BASIS SET INFORMATION
---------------------
There are 2 groups of distinct atoms

 Group   1 Type C   : 6s6p2d contracted to 2s2p1d pattern {42/42/2}
 Group   2 Type H   : 8s2p contracted to 2s1p pattern {53/2}

Atom   0C    basis set group =>   1
Atom   1C    basis set group =>   1
Atom   2C    basis set group =>   1
Atom   3C    basis set group =>   1
Atom   4C    basis set group =>   1
Atom   5C    basis set group =>   1
Atom   6C    basis set group =>   1
Atom   7C    basis set group =>   1
Atom   8H    basis set group =>   2
Atom   9H    basis set group =>   2
Atom  10H    basis set group =>   2
Atom  11H    basis set group =>   2
Atom  12H    basis set group =>   2
Atom  13H    basis set group =>   2
Atom  14H    basis set group =>   2
Atom  15H    basis set group =>   2
Atom  16H    basis set group =>   2
Atom  17H    basis set group =>   2
Atom  18H    basis set group =>   2
Atom  19H    basis set group =>   2
---------------------------------
AUXILIARY/J BASIS SET INFORMATION
---------------------------------
There are 2 groups of distinct atoms

 Group   1 Type C   : 12s5p4d2f1g contracted to 6s4p3d1f1g pattern {711111/2111/211/2/1}
 Group   2 Type H   : 5s2p1d contracted to 3s1p1d pattern {311/2/1}

Atom   0C    basis set group =>   1
Atom   1C    basis set group =>   1
Atom   2C    basis set group =>   1
Atom   3C    basis set group =>   1
Atom   4C    basis set group =>   1
Atom   5C    basis set group =>   1
Atom   6C    basis set group =>   1
Atom   7C    basis set group =>   1
Atom   8H    basis set group =>   2
Atom   9H    basis set group =>   2
Atom  10H    basis set group =>   2
Atom  11H    basis set group =>   2
Atom  12H    basis set group =>   2
Atom  13H    basis set group =>   2
Atom  14H    basis set group =>   2
Atom  15H    basis set group =>   2
Atom  16H    basis set group =>   2
Atom  17H    basis set group =>   2
Atom  18H    basis set group =>   2
Atom  19H    basis set group =>   2
-------------------------
ECP PARAMETER INFORMATION
-------------------------

 Group 1, Type C  ECP vDZP-ECP (replacing 2 core electrons, lmax=3)

Atom   0C    ECP group =>   1
Atom   1C    ECP group =>   1
Atom   2C    ECP group =>   1
Atom   3C    ECP group =>   1
Atom   4C    ECP group =>   1
Atom   5C    ECP group =>   1
Atom   6C    ECP group =>   1
Atom   7C    ECP group =>   1



           ************************************************************
           *        Program running with 40 parallel MPI-processes    *
           *              working on a common directory               *
           ************************************************************
------------------------------------------------------------------------------
                             ORCA STARTUP CALCULATIONS
                           -- RI-GTO INTEGRALS CHOSEN --
------------------------------------------------------------------------------
------------------------------------------------------------------------------
                   ___                                                        
                  /   \      - P O W E R E D   B Y -                         
                 /     \                                                     
                 |  |  |   _    _      __       _____    __    __             
                 |  |  |  | |  | |    /  \     |  _  \  |  |  /  |          
                  \  \/   | |  | |   /    \    | | | |  |  | /  /          
                 / \  \   | |__| |  /  /\  \   | |_| |  |  |/  /          
                |  |  |   |  __  | /  /__\  \  |    /   |      \           
                |  |  |   | |  | | |   __   |  |    \   |  |\   \          
                \     /   | |  | | |  |  |  |  | |\  \  |  | \   \       
                 \___/    |_|  |_| |__|  |__|  |_| \__\ |__|  \__/        
                                                                              
                      - O R C A' S   B I G   F R I E N D -                    
                                      &                                       
                       - I N T E G R A L  F E E D E R -                       
                                                                              
 v1 FN, 2020, v2 2021, v3 2022-2024                                           
------------------------------------------------------------------------------


----------------------
SHARK INTEGRAL PACKAGE
----------------------

Number of atoms                             ...     20
Number of basis functions                   ...    164
Number of shells                            ...     76
Maximum angular momentum                    ...      2
Integral batch strategy                     ... SHARK/LIBINT Hybrid
RI-J (if used) integral strategy            ... SPLIT-RIJ (Revised 2003 algorithm where possible)
Printlevel                                  ...      1
Contraction scheme used                     ... SEGMENTED contraction
Prescreening option                         ... SCHWARTZ
   Thresh                                   ... 2.500e-11
   Tcut                                     ... 2.500e-12
   Tpresel                                  ... 2.500e-12 
Coulomb Range Separation                    ... NOT USED
Exchange Range Separation                   ... Long Range
   Mu parameter                             ... 3.000e-01
   Scaling (regular/separated)              ... 1.670e-01 8.330e-01
Multipole approximations                    ... NOT USED
Finite Nucleus Model                        ... NOT USED
CABS basis                                  ... NOT available
Auxiliary Coulomb fitting basis             ... AVAILABLE
   # of basis functions in Aux-J            ...    524
   # of shells in Aux-J                     ...    180
   Maximum angular momentum in Aux-J        ...      4
Auxiliary J/K fitting basis                 ... NOT available
Auxiliary Correlation fitting basis         ... NOT available
Auxiliary 'external' fitting basis          ... NOT available

Checking pre-screening integrals            ... done (  0.0 sec) Dimension = 76
Check shell pair data                       ... done (  0.0 sec)
Shell pair information
Shell pair cut-off parameter TPreSel        ...   2.5e-12
Total number of shell pairs                 ...      2926
Shell pairs after pre-screening             ...      2926
Total number of primitive shell pairs       ...     27316
Primitive shell pairs kept                  ...     22375
          la=0 lb=0:    820 shell pairs
          la=1 lb=0:   1120 shell pairs
          la=1 lb=1:    406 shell pairs
          la=2 lb=0:    320 shell pairs
          la=2 lb=1:    224 shell pairs
          la=2 lb=2:     36 shell pairs

Calculating one electron integrals          ... done (  0.0 sec)
Calculating ECP integrals                   ... done (  0.1 sec)
Calculating RI/J V-Matrix + Cholesky decomp.... done (  0.0 sec)
Calculating Nuclear repulsion               ... done (  0.0 sec) ENN=    179.911147339671 Eh

Diagonalization of the overlap matrix:
Smallest eigenvalue                        ... 1.079e-03
Time for diagonalization                   ...    0.008 sec
Threshold for overlap eigenvalues          ... 1.000e-07
Number of eigenvalues below threshold      ... 0
Time for construction of square roots      ...    0.007 sec
Total time needed                          ...    0.018 sec

-------------------
DFT GRID GENERATION
-------------------

General Integration Accuracy     IntAcc      ... 4.388
Radial Grid Type                 RadialGrid  ... OptM3 with GC (2021)
Angular Grid (max. ang.)         AngularGrid ... 4 (Lebedev-302)
Angular grid pruning method      GridPruning ... 4 (adaptive)
Weight generation scheme         WeightScheme... mBecke (2022)
Basis function cutoff            BFCut       ... 1.0000e-11
Integration weight cutoff        WCut        ... 1.0000e-14
Partially contracted basis set               ... off
Rotationally invariant grid construction     ... off
Angular grids for H and He will be reduced by one unit

Total number of grid points                  ...    86781
Total number of batches                      ...     1366
Average number of points per batch           ...       63
Average number of grid points per atom       ...     4339

--------------------
COSX GRID GENERATION
--------------------

GRIDX 1
-------
General Integration Accuracy     IntAcc      ... 3.816
Radial Grid Type                 RadialGrid  ... OptM3 with GC (2021)
Angular Grid (max. ang.)         AngularGrid ... 1 (Lebedev-50)
Angular grid pruning method      GridPruning ... 4 (adaptive)
Weight generation scheme         WeightScheme... mBecke (2022)
Basis function cutoff            BFCut       ... 1.0000e-11
Integration weight cutoff        WCut        ... 1.0000e-14
Partially contracted basis set               ... on
Rotationally invariant grid construction     ... off
Angular grids for H and He will be reduced by one unit

Total number of grid points                  ...    11151
Total number of batches                      ...      100
Average number of points per batch           ...      111
Average number of grid points per atom       ...      558
UseSFitting                                  ... on

GRIDX 2
-------
General Integration Accuracy     IntAcc      ... 4.020
Radial Grid Type                 RadialGrid  ... OptM3 with GC (2021)
Angular Grid (max. ang.)         AngularGrid ... 2 (Lebedev-110)
Angular grid pruning method      GridPruning ... 4 (adaptive)
Weight generation scheme         WeightScheme... mBecke (2022)
Basis function cutoff            BFCut       ... 1.0000e-11
Integration weight cutoff        WCut        ... 1.0000e-14
Partially contracted basis set               ... on
Rotationally invariant grid construction     ... off
Angular grids for H and He will be reduced by one unit

Total number of grid points                  ...    23487
Total number of batches                      ...      194
Average number of points per batch           ...      121
Average number of grid points per atom       ...     1174
UseSFitting                                  ... on

GRIDX 3
-------
General Integration Accuracy     IntAcc      ... 4.338
Radial Grid Type                 RadialGrid  ... OptM3 with GC (2021)
Angular Grid (max. ang.)         AngularGrid ... 3 (Lebedev-194)
Angular grid pruning method      GridPruning ... 4 (adaptive)
Weight generation scheme         WeightScheme... mBecke (2022)
Basis function cutoff            BFCut       ... 1.0000e-11
Integration weight cutoff        WCut        ... 1.0000e-14
Partially contracted basis set               ... on
Rotationally invariant grid construction     ... off
Angular grids for H and He will be reduced by one unit

Total number of grid points                  ...    51294
Total number of batches                      ...      412
Average number of points per batch           ...      124
Average number of grid points per atom       ...     2565
UseSFitting                                  ... on
Initializing property integral containers    ... done (  0.0 sec)

SHARK setup successfully completed in   2.8 seconds

Maximum memory used throughout the entire STARTUP-calculation: 23.8 MB


           ************************************************************
           *        Program running with 40 parallel MPI-processes    *
           *              working on a common directory               *
           ************************************************************
-------------------------------------------------------------------------------
                                 ORCA GUESS
                   Start orbitals & Density for SCF / CASSCF
-------------------------------------------------------------------------------

------------
SCF SETTINGS
------------
Hamiltonian:
 Density Functional     Method          .... DFT(GTOs)
 Exchange Functional    Exchange        .... WB97X-V
 Correlation Functional Correlation     .... WB97X-V
 Gradients option       PostSCFGGA      .... off
 Hybrid DFT is turned on
   Fraction HF Exchange ScalHFX         ....  0.167000
   Scaling of DF-GGA-X  ScalDFX         ....  0.000000
   Scaling of DF-GGA-C  ScalDFC         ....  1.000000
   Scaling of DF-LDA-C  ScalLDAC        ....  1.000000
   Perturbative correction              ....  0.000000
 Long-range corrected/Screened/Range-Separated Hybrid DFT is turned on
   Amount of maximum screened exact exchange              ....  0.833000
   Range separation parameter mu (erf(mu*r12)/r12)        ....  0.300000
   NL short-range parameter             ....  6.000000
   NL long-range parameter              ....  0.010000
 RI-approximation to the Coulomb term is turned on
   Number of AuxJ basis functions       .... 524
   RIJ-COSX (HFX calculated with COS-X)).... on


General Settings:
 Integral files         IntName         .... ./output/neoalloocimene/neoalloocimene
 Hartree-Fock type      HFTyp           .... RHF
 Total Charge           Charge          ....    0
 Multiplicity           Mult            ....    1
 Number of Electrons    NEL             ....   44
 Basis Dimension        Dim             ....  164
 Nuclear Repulsion      ENuc            ....    179.9111473397 Eh

Convergence Acceleration:
 AO-DIIS                CNVDIIS         .... on
   Start iteration      DIISMaxIt       ....    12
   Startup error        DIISStart       ....  0.200000
   # of expansion vecs  DIISMaxEq       ....     5
   Bias factor          DIISBfac        ....   1.050
   Max. coefficient     DIISMaxC        ....  10.000
 MO-DIIS                CNVKDIIS        .... off
 Trust-Rad. Augm. Hess. CNVTRAH         .... auto
   Auto Start mean grad. ratio tolernc. ....  1.125000
   Auto Start start iteration           ....    50
   Auto Start num. interpolation iter.  ....    10
   Max. Number of Micro iterations      ....    24
   Max. Number of Macro iterations      .... Maxiter - #DIIS iter
   Number of Davidson start vectors     ....     2
   Converg. threshold    (grad. norm)   ....   1.000e-05
   Grad. Scal. Fac. for Micro threshold ....   0.100
   Minimum threshold for Micro iter.    ....   1.000e-02
   NR start threshold (gradient norm)   ....   1.000e-04
   Initial trust radius                 ....   0.400
   Minimum AH scaling param. (alpha)    ....   1.000
   Maximum AH scaling param. (alpha)    .... 1000.000
   Quad. conv. algorithm                .... NR
   White noise on init. David. guess    .... on
   Maximum white noise                  ....   0.010
   Pseudo random numbers                .... off
   Inactive MOs                         .... canonical
   Orbital update algorithm             .... Taylor
   Preconditioner                       .... Diag
   Full preconditioner red. dimension   ....   250
 SOSCF                  CNVSOSCF        .... on
   Start iteration      SOSCFMaxIt      ....   150
   Startup grad/error   SOSCFStart      ....  0.003300
   Hessian update       SOSCFHessUp     .... L-BFGS
 Level Shifting         CNVShift        .... on
   Level shift para.    LevelShift      ....    0.2500
   Turn off err/grad.   ShiftErr        ....    0.0010
 Zerner damping         CNVZerner       .... off
 Static damping         CNVDamp         .... on
   Fraction old density DampFac         ....    0.7000
   Max. Damping (<1)    DampMax         ....    0.9800
   Min. Damping (>=0)   DampMin         ....    0.0000
   Turn off err/grad.   DampErr         ....    0.1000

SCF Procedure:
 Maximum # iterations   MaxIter         ....   125
 SCF integral mode      SCFMode         .... Direct
   Integral package                     .... SHARK and LIBINT hybrid scheme
 Reset frequency        DirectResetFreq ....    20
 Integral Threshold     Thresh          ....  2.500e-11 Eh
 Primitive CutOff       TCut            ....  2.500e-12 Eh

Convergence Tolerance:
 Convergence Check Mode ConvCheckMode   .... Total+1el-Energy
 Convergence forced     ConvForced      .... 0
 Energy Change          TolE            ....  1.000e-08 Eh
 1-El. energy change                    ....  1.000e-05 Eh
 Orbital Gradient       TolG            ....  1.000e-05
 Orbital Rotation angle TolX            ....  1.000e-05
 DIIS Error             TolErr          ....  5.000e-07

------------------------------
INITIAL GUESS: MODEL POTENTIAL
------------------------------
Loading Hartree-Fock densities                     ... done
Atomic calculation to generate a density for atom 0 (C  with ECP)
  Multiplicity assumed   :    1
  Atomic configuration   : 1s2 2s2 2p2 
  Number of open shells  : 1
  Command: /home/aspe232/Project/Software/ORCA/6_0_1/build/orca ./output/neoalloocimene/neoalloocimene_atom6.inp "" > ./output/neoalloocimene/neoalloocimene_atom6.out
Returned from the atomic calculation with res=0
Calculating cut-offs                               ... done
Initializing the effective Hamiltonian             ... done
Setting up the integral package (SHARK)            ... done
Starting the Coulomb interaction                   ... done (   0.0 sec)
Making the grid                                    ... done (   0.8 sec)
Mapping shells                                     ... done
Starting the XC term evaluation                    ... done (   0.0 sec)
  promolecular density results
     # of electrons  =     59.997402130
     EX              =    -29.374903450
     EC              =     -2.369730183
     EX+EC           =    -31.744633633
Transforming the Hamiltonian                       ... done (   0.0 sec)
Diagonalizing the Hamiltonian                      ... done (   0.0 sec)
Back transforming the eigenvectors                 ... done (   0.0 sec)
Now organizing SCF variables                       ... done
                      ------------------
                      INITIAL GUESS DONE (   1.6 sec)
                      ------------------
             **** ENERGY FILE WAS UPDATED (./output/neoalloocimene/neoalloocimene.en.tmp) ****
Finished Guess after   2.0 sec
Maximum memory used throughout the entire GUESS-calculation: 14.5 MB


           ************************************************************
           *        Program running with 40 parallel MPI-processes    *
           *              working on a common directory               *
           ************************************************************

-------------------------------------------------------------------------------------------
                                      ORCA LEAN-SCF
                              memory conserving SCF solver
-------------------------------------------------------------------------------------------

----------------------------------------D-I-I-S--------------------------------------------
Iteration    Energy (Eh)           Delta-E    RMSDP     MaxDP     DIISErr   Damp  Time(sec)
-------------------------------------------------------------------------------------------
               ***  Starting incremental Fock matrix formation  ***
    1    -52.3784512724129740     0.00e+00  4.44e-03  6.98e-02  1.77e-01  0.700   3.5
    2    -52.5123310709222721    -1.34e-01  3.30e-03  5.23e-02  1.10e-01  0.700   2.5
                               ***Turning on AO-DIIS***
    3    -52.5854491147169085    -7.31e-02  1.71e-03  2.80e-02  6.03e-02  0.700   2.4
    4    -52.6287785103832846    -4.33e-02  3.66e-03  5.79e-02  3.84e-02  0.000   2.1
    5    -52.7192293199296387    -9.05e-02  2.63e-04  4.64e-03  4.46e-03  0.000   2.4
                              *** Initializing SOSCF ***
---------------------------------------S-O-S-C-F--------------------------------------
Iteration    Energy (Eh)           Delta-E    RMSDP     MaxDP     MaxGrad    Time(sec)
--------------------------------------------------------------------------------------
    6    -52.7194445314188727    -2.15e-04  1.24e-04  1.63e-03  1.62e-03     2.3
               *** Restarting incremental Fock matrix formation ***
    7    -52.7194722312275132    -2.77e-05  7.50e-05  1.50e-03  6.85e-04     2.5
    8    -52.7194826125141560    -1.04e-05  4.74e-05  8.52e-04  3.25e-04     2.3
    9    -52.7194861970590694    -3.58e-06  1.11e-05  1.23e-04  4.05e-05     2.4
   10    -52.7194863238221387    -1.27e-07  2.98e-06  5.71e-05  1.01e-05     2.4
   11    -52.7194863269859866    -3.16e-09  7.88e-07  1.89e-05  7.06e-06     2.4
                 **** Energy Check signals convergence ****

               *****************************************************
               *                     SUCCESS                       *
               *           SCF CONVERGED AFTER  11 CYCLES          *
               *****************************************************

Recomputing exchange energy using gridx3       ... done (    1.770 sec)
Old exchange energy                            :     -8.297628064 Eh
New exchange energy                            :     -8.297619588 Eh
Exchange energy change after final integration :      0.000008476 Eh
Total energy after final integration           :    -52.719477851 Eh
             **** ENERGY FILE WAS UPDATED (./output/neoalloocimene/neoalloocimene.en.tmp) ****

----------------
TOTAL SCF ENERGY
----------------

Total Energy       :        -52.71947785075815 Eh           -1434.56992 eV

Components:
Nuclear Repulsion  :        179.91114733967078 Eh            4895.63121 eV
Electronic Energy  :       -232.63063366665676 Eh           -6330.20136 eV
One Electron Energy:       -433.10391997638055 Eh          -11785.35682 eV
Two Electron Energy:        200.47328630972379 Eh            5455.15546 eV

Virial components:
Potential Energy   :        -93.65026327348677 Eh           -2548.35322 eV
Kinetic Energy     :         40.93078542272862 Eh            1113.78330 eV
Virial Ratio       :          2.28801529964004

DFT components:
N(Alpha)           :       21.999984151845 electrons
N(Beta)            :       21.999984151845 electrons
N(Total)           :       43.999968303691 electrons
E(X)               :       -8.406030295035 Eh       
E(C)               :       -1.616459533534 Eh       
E(XC)              :      -10.022489828569 Eh       

---------------
SCF CONVERGENCE
---------------

  Last Energy change         ...    3.1638e-09  Tolerance :   1.0000e-08
  Last MAX-Density change    ...    1.8908e-05  Tolerance :   1.0000e-07
  Last RMS-Density change    ...    7.8816e-07  Tolerance :   5.0000e-09
  Last DIIS Error            ...    1.6224e-03  Tolerance :   5.0000e-07
  Last Orbital Gradient      ...    7.0589e-06  Tolerance :   1.0000e-05
  Last Orbital Rotation      ...    1.4832e-05  Tolerance :   1.0000e-05


----------------
ORBITAL ENERGIES
----------------

  NO   OCC          E(Eh)            E(eV) 
   0   2.0000      -0.970386       -26.4055 
   1   2.0000      -0.939619       -25.5683 
   2   2.0000      -0.881498       -23.9868 
   3   2.0000      -0.820986       -22.3402 
   4   2.0000      -0.811237       -22.0749 
   5   2.0000      -0.709880       -19.3168 
   6   2.0000      -0.674315       -18.3490 
   7   2.0000      -0.651035       -17.7156 
   8   2.0000      -0.596102       -16.2208 
   9   2.0000      -0.580684       -15.8012 
  10   2.0000      -0.564718       -15.3668 
  11   2.0000      -0.540910       -14.7189 
  12   2.0000      -0.531081       -14.4514 
  13   2.0000      -0.509888       -13.8748 
  14   2.0000      -0.500870       -13.6294 
  15   2.0000      -0.478186       -13.0121 
  16   2.0000      -0.467155       -12.7119 
  17   2.0000      -0.454065       -12.3557 
  18   2.0000      -0.442101       -12.0302 
  19   2.0000      -0.406934       -11.0732 
  20   2.0000      -0.362393        -9.8612 
  21   2.0000      -0.316544        -8.6136 
  22   0.0000       0.047124         1.2823 
  23   0.0000       0.086357         2.3499 
  24   0.0000       0.090420         2.4605 
  25   0.0000       0.095052         2.5865 
  26   0.0000       0.105407         2.8683 
  27   0.0000       0.119362         3.2480 
  28   0.0000       0.125638         3.4188 
  29   0.0000       0.136694         3.7196 
  30   0.0000       0.145407         3.9567 
  31   0.0000       0.152210         4.1418 
  32   0.0000       0.162333         4.4173 
*Only the first 10 virtual orbitals were printed.

                    ********************************
                    * MULLIKEN POPULATION ANALYSIS *
                    ********************************

-----------------------
MULLIKEN ATOMIC CHARGES
-----------------------
   0 C :   -0.105153
   1 C :   -0.080608
   2 C :   -0.022980
   3 C :    0.012200
   4 C :   -0.024662
   5 C :   -0.097352
   6 C :   -0.040053
   7 C :   -0.030769
   8 H :    0.057368
   9 H :    0.055371
  10 H :    0.040067
  11 H :    0.024000
  12 H :    0.021081
  13 H :   -0.000089
  14 H :    0.014441
  15 H :    0.061144
  16 H :    0.052884
  17 H :    0.014203
  18 H :    0.030909
  19 H :    0.017999
Sum of atomic charges:    0.0000000

--------------------------------
MULLIKEN REDUCED ORBITAL CHARGES
--------------------------------
  0 C s       :     0.959642  s :     0.959642
      pz      :     1.002741  p :     3.071525
      px      :     1.029605
      py      :     1.039179
      dz2     :     0.016181  d :     0.073986
      dxz     :     0.011684
      dyz     :     0.019826
      dx2y2   :     0.018446
      dxy     :     0.007849

  1 C s       :     1.072658  s :     1.072658
      pz      :     0.979446  p :     2.882584
      px      :     0.968439
      py      :     0.934699
      dz2     :     0.030997  d :     0.125367
      dxz     :     0.031789
      dyz     :     0.022986
      dx2y2   :     0.018350
      dxy     :     0.021245

  2 C s       :     0.987099  s :     0.987099
      pz      :     0.982239  p :     2.969987
      px      :     0.993439
      py      :     0.994308
      dz2     :     0.018437  d :     0.065895
      dxz     :     0.018420
      dyz     :     0.012578
      dx2y2   :     0.010622
      dxy     :     0.005838

  3 C s       :     1.010254  s :     1.010254
      pz      :     0.963422  p :     2.882875
      px      :     0.946027
      py      :     0.973426
      dz2     :     0.021395  d :     0.094670
      dxz     :     0.027631
      dyz     :     0.015137
      dx2y2   :     0.013061
      dxy     :     0.017447

  4 C s       :     1.053985  s :     1.053985
      pz      :     0.984968  p :     2.876204
      px      :     0.921490
      py      :     0.969746
      dz2     :     0.021511  d :     0.094473
      dxz     :     0.028361
      dyz     :     0.013410
      dx2y2   :     0.013021
      dxy     :     0.018170

  5 C s       :     0.981105  s :     0.981105
      pz      :     1.064834  p :     3.014603
      px      :     0.950192
      py      :     0.999578
      dz2     :     0.020083  d :     0.101644
      dxz     :     0.016487
      dyz     :     0.015912
      dx2y2   :     0.025095
      dxy     :     0.024067

  6 C s       :     1.065274  s :     1.065274
      pz      :     0.989996  p :     2.879625
      px      :     0.945716
      py      :     0.943914
      dz2     :     0.018709  d :     0.095154
      dxz     :     0.023096
      dyz     :     0.033197
      dx2y2   :     0.010638
      dxy     :     0.009514

  7 C s       :     1.009486  s :     1.009486
      pz      :     0.983776  p :     2.956166
      px      :     0.979627
      py      :     0.992763
      dz2     :     0.013314  d :     0.065118
      dxz     :     0.018733
      dyz     :     0.024919
      dx2y2   :     0.002219
      dxy     :     0.005933

  8 H s       :     0.898517  s :     0.898517
      pz      :     0.011220  p :     0.044116
      px      :     0.011409
      py      :     0.021487

  9 H s       :     0.900498  s :     0.900498
      pz      :     0.018743  p :     0.044131
      px      :     0.010046
      py      :     0.015343

 10 H s       :     0.916231  s :     0.916231
      pz      :     0.010286  p :     0.043702
      px      :     0.023152
      py      :     0.010264

 11 H s       :     0.925151  s :     0.925151
      pz      :     0.020081  p :     0.050850
      px      :     0.014325
      py      :     0.016444

 12 H s       :     0.927944  s :     0.927944
      pz      :     0.010553  p :     0.050975
      px      :     0.025706
      py      :     0.014715

 13 H s       :     0.950674  s :     0.950674
      pz      :     0.020405  p :     0.049415
      px      :     0.013349
      py      :     0.015661

 14 H s       :     0.935206  s :     0.935206
      pz      :     0.020754  p :     0.050352
      px      :     0.013939
      py      :     0.015660

 15 H s       :     0.895643  s :     0.895643
      pz      :     0.013152  p :     0.043213
      px      :     0.010783
      py      :     0.019278

 16 H s       :     0.903717  s :     0.903717
      pz      :     0.021985  p :     0.043400
      px      :     0.011521
      py      :     0.009894

 17 H s       :     0.937796  s :     0.937796
      pz      :     0.016200  p :     0.048001
      px      :     0.015003
      py      :     0.016799

 18 H s       :     0.918788  s :     0.918788
      pz      :     0.011070  p :     0.050303
      px      :     0.017327
      py      :     0.021906

 19 H s       :     0.931525  s :     0.931525
      pz      :     0.017510  p :     0.050475
      px      :     0.015906
      py      :     0.017059



                     *******************************
                     * LOEWDIN POPULATION ANALYSIS *
                     *******************************

----------------------
LOEWDIN ATOMIC CHARGES
----------------------
   0 C :   -0.112676
   1 C :   -0.057568
   2 C :   -0.075063
   3 C :   -0.040793
   4 C :   -0.033245
   5 C :   -0.100737
   6 C :   -0.046975
   7 C :   -0.068408
   8 H :    0.053652
   9 H :    0.052974
  10 H :    0.057341
  11 H :    0.032292
  12 H :    0.032340
  13 H :    0.043175
  14 H :    0.036794
  15 H :    0.062672
  16 H :    0.056518
  17 H :    0.038625
  18 H :    0.036210
  19 H :    0.032872

-------------------------------
LOEWDIN REDUCED ORBITAL CHARGES
-------------------------------
  0 C s       :     0.776561  s :     0.776561
      pz      :     1.009260  p :     3.100005
      px      :     1.037522
      py      :     1.053224
      dz2     :     0.053332  d :     0.236111
      dxz     :     0.034875
      dyz     :     0.062347
      dx2y2   :     0.062206
      dxy     :     0.023351

  1 C s       :     0.796789  s :     0.796789
      pz      :     1.014944  p :     2.874217
      px      :     0.987181
      py      :     0.872092
      dz2     :     0.096993  d :     0.386562
      dxz     :     0.105213
      dyz     :     0.064983
      dx2y2   :     0.059451
      dxy     :     0.059922

  2 C s       :     0.827776  s :     0.827776
      pz      :     1.038455  p :     3.028770
      px      :     1.055067
      py      :     0.935248
      dz2     :     0.065004  d :     0.218518
      dxz     :     0.065914
      dyz     :     0.035899
      dx2y2   :     0.036973
      dxy     :     0.014728

  3 C s       :     0.802614  s :     0.802614
      pz      :     1.038000  p :     2.936642
      px      :     0.986417
      py      :     0.912225
      dz2     :     0.068651  d :     0.301537
      dxz     :     0.096825
      dyz     :     0.041111
      dx2y2   :     0.045725
      dxy     :     0.049225

  4 C s       :     0.807763  s :     0.807763
      pz      :     1.045114  p :     2.920178
      px      :     0.979251
      py      :     0.895812
      dz2     :     0.070511  d :     0.305305
      dxz     :     0.098192
      dyz     :     0.037197
      dx2y2   :     0.043688
      dxy     :     0.055716

  5 C s       :     0.759976  s :     0.759976
      pz      :     1.046427  p :     3.026159
      px      :     0.970779
      py      :     1.008953
      dz2     :     0.062644  d :     0.314602
      dxz     :     0.052839
      dyz     :     0.052938
      dx2y2   :     0.075514
      dxy     :     0.070668

  6 C s       :     0.816105  s :     0.816105
      pz      :     1.067092  p :     2.922949
      px      :     0.895612
      py      :     0.960244
      dz2     :     0.066740  d :     0.307922
      dxz     :     0.065182
      dyz     :     0.109324
      dx2y2   :     0.035393
      dxy     :     0.031282

  7 C s       :     0.832908  s :     0.832908
      pz      :     1.059118  p :     3.019525
      px      :     0.941935
      py      :     1.018472
      dz2     :     0.053454  d :     0.215975
      dxz     :     0.051970
      dyz     :     0.084850
      dx2y2   :     0.006692
      dxy     :     0.019009

  8 H s       :     0.798960  s :     0.798960
      pz      :     0.042606  p :     0.147387
      px      :     0.042736
      py      :     0.062045

  9 H s       :     0.799559  s :     0.799559
      pz      :     0.057819  p :     0.147467
      px      :     0.039792
      py      :     0.049855

 10 H s       :     0.801138  s :     0.801138
      pz      :     0.038080  p :     0.141521
      px      :     0.063809
      py      :     0.039633

 11 H s       :     0.814135  s :     0.814135
      pz      :     0.056116  p :     0.153573
      px      :     0.046999
      py      :     0.050458

 12 H s       :     0.814062  s :     0.814062
      pz      :     0.036997  p :     0.153598
      px      :     0.069523
      py      :     0.047078

 13 H s       :     0.808968  s :     0.808968
      pz      :     0.058597  p :     0.147857
      px      :     0.042640
      py      :     0.046620

 14 H s       :     0.808139  s :     0.808139
      pz      :     0.059433  p :     0.155067
      px      :     0.046169
      py      :     0.049465

 15 H s       :     0.795092  s :     0.795092
      pz      :     0.046941  p :     0.142236
      px      :     0.038245
      py      :     0.057050

 16 H s       :     0.798176  s :     0.798176
      pz      :     0.065035  p :     0.145305
      px      :     0.040681
      py      :     0.039590

 17 H s       :     0.810230  s :     0.810230
      pz      :     0.050064  p :     0.151145
      px      :     0.048044
      py      :     0.053037

 18 H s       :     0.811147  s :     0.811147
      pz      :     0.038653  p :     0.152643
      px      :     0.052009
      py      :     0.061981

 19 H s       :     0.817059  s :     0.817059
      pz      :     0.050125  p :     0.150068
      px      :     0.047738
      py      :     0.052206



                      *****************************
                      * MAYER POPULATION ANALYSIS *
                      *****************************

  NA   - Mulliken gross atomic population
  ZA   - Total nuclear charge
  QA   - Mulliken gross atomic charge
  VA   - Mayer's total valence
  BVA  - Mayer's bonded valence
  FA   - Mayer's free valence

  ATOM       NA         ZA         QA         VA         BVA        FA
  0 C      4.1052     4.0000    -0.1052     3.9986     3.9986    -0.0000
  1 C      4.0806     4.0000    -0.0806     4.1926     4.1926    -0.0000
  2 C      4.0230     4.0000    -0.0230     3.9585     3.9585    -0.0000
  3 C      3.9878     4.0000     0.0122     4.0428     4.0428    -0.0000
  4 C      4.0247     4.0000    -0.0247     3.9795     3.9795     0.0000
  5 C      4.0974     4.0000    -0.0974     4.0068     4.0068     0.0000
  6 C      4.0401     4.0000    -0.0401     4.0216     4.0216    -0.0000
  7 C      4.0308     4.0000    -0.0308     3.9865     3.9865     0.0000
  8 H      0.9426     1.0000     0.0574     1.0145     1.0145    -0.0000
  9 H      0.9446     1.0000     0.0554     1.0157     1.0157    -0.0000
 10 H      0.9599     1.0000     0.0401     1.0366     1.0366    -0.0000
 11 H      0.9760     1.0000     0.0240     1.0390     1.0390     0.0000
 12 H      0.9789     1.0000     0.0211     1.0413     1.0413    -0.0000
 13 H      1.0001     1.0000    -0.0001     1.0458     1.0458     0.0000
 14 H      0.9856     1.0000     0.0144     1.0438     1.0438     0.0000
 15 H      0.9389     1.0000     0.0611     1.0264     1.0264     0.0000
 16 H      0.9471     1.0000     0.0529     1.0153     1.0153     0.0000
 17 H      0.9858     1.0000     0.0142     1.0500     1.0500    -0.0000
 18 H      0.9691     1.0000     0.0309     1.0387     1.0387     0.0000
 19 H      0.9820     1.0000     0.0180     1.0393     1.0393    -0.0000

  Mayer bond orders larger than 0.100000
B(  0-C ,  1-C ) :   1.0306 B(  0-C ,  8-H ) :   0.9794 B(  0-C ,  9-H ) :   0.9794 
B(  0-C , 10-H ) :   0.9950 B(  1-C ,  2-C ) :   1.8585 B(  1-C ,  3-C ) :   1.1418 
B(  2-C , 11-H ) :   0.9915 B(  2-C , 12-H ) :   0.9915 B(  3-C ,  4-C ) :   1.8301 
B(  3-C , 13-H ) :   0.9981 B(  4-C ,  5-C ) :   1.0121 B(  4-C , 14-H ) :   1.0032 
B(  5-C ,  6-C ) :   1.0008 B(  5-C , 15-H ) :   0.9851 B(  5-C , 16-H ) :   0.9973 
B(  6-C ,  7-C ) :   1.9401 B(  6-C , 17-H ) :   1.0071 B(  7-C , 18-H ) :   0.9992 
B(  7-C , 19-H ) :   1.0029 

-------
TIMINGS
-------

Total SCF time: 0 days 0 hours 0 min 32 sec 

Total time                  ....      32.205 sec
Sum of individual times     ....      30.737 sec  ( 95.4%)

SCF preparation             ....       1.715 sec  (  5.3%)
Fock matrix formation       ....      27.933 sec  ( 86.7%)
  Startup                   ....       0.144 sec  (  0.5% of F)
  Split-RI-J                ....       0.780 sec  (  2.8% of F)
  Chain of spheres X        ....      10.523 sec  ( 37.7% of F)
  XC integration            ....      16.040 sec  ( 57.4% of F)
    XC Preparation          ....       0.000 sec  (  0.0% of XC)
    Basis function eval.    ....       0.287 sec  (  1.8% of XC)
    Density eval.           ....       0.091 sec  (  0.6% of XC)
    XC-Functional eval.     ....       0.126 sec  (  0.8% of XC)
    XC-Potential eval.      ....       0.155 sec  (  1.0% of XC)
Diagonalization             ....       0.000 sec  (  0.0%)
Density matrix formation    ....       0.214 sec  (  0.7%)
Total Energy calculation    ....       0.151 sec  (  0.5%)
Population analysis         ....       0.045 sec  (  0.1%)
Orbital Transformation      ....       0.044 sec  (  0.1%)
Orbital Orthonormalization  ....       0.000 sec  (  0.0%)
DIIS solution               ....       0.397 sec  (  1.2%)
SOSCF solution              ....       0.238 sec  (  0.7%)
Finished LeanSCF after  32.2 sec

Maximum memory used throughout the entire LEANSCF-calculation: 26.1 MB


           ************************************************************
           *        Program running with 40 parallel MPI-processes    *
           *              working on a common directory               *
           ************************************************************

------------------------------------------------------------------------------
                         ORCA PROPERTY INTEGRAL CALCULATIONS
------------------------------------------------------------------------------

GBWName                                   ... ./output/neoalloocimene/neoalloocimene.gbw
Number of atoms                           ...     20
Number of basis functions                 ...    164
Max core memory                           ...   1024 MB

Dipole integrals                          ... YES
Quadrupole integrals                      ...  NO
Linear momentum integrals                 ...  NO
Angular momentum integrals                ...  NO
Higher moments length integrals           ...  NO
Higher moments velocity integrals         ...  NO
Kinetic energy integrals                  ...  NO
GIAO right hand sides                     ...  NO
GIAO dipole derivative integrals          ...  NO
SOC integrals                             ...  NO
EPR diamagnetic integrals (GIAO)          ...  NO
EPR gauge integrals                       ...  NO
Field gradient integrals                  ...  NO (   0 nuclei)
Spin-dipole/Fermi contact integrals       ...  NO (   0 nuclei)
Contact density integrals                 ...  NO (   0 nuclei)
Nucleus-orbit integrals                   ...  NO (   0 nuclei)
Geometric perturbations                   ...  NO (  20 nuclei)

Choice of electric origin   ... Center of mass
Position of electric origin ... (  0.1048,  0.0608, -0.0448) 
Choice of magnetic origin   ... GIAO
Position of magnetic origin ... (  0.0000,  0.0000,  0.0000) 

Calculating integrals                     ... Electric Dipole (Length)     done (  0.1 sec)

Property integrals calculated in   0.1 sec

Maximum memory used throughout the entire PROPINT-calculation: 12.3 MB


-------------------------------------------------------------------------------
                          DFT DISPERSION CORRECTION                            
                                                                               
                                DFTD4 V3.4.0                                   
-------------------------------------------------------------------------------
The wB97X-3c composite method is recognized
Using three-body term ABC
Active option DFTDOPT                   ...         5   

-------------------------   ----------------
Dispersion correction           -0.019806363
-------------------------   ----------------


-------------------------   --------------------
FINAL SINGLE POINT ENERGY       -52.739284213438
-------------------------   --------------------



           ************************************************************
           *        Program running with 40 parallel MPI-processes    *
           *              working on a common directory               *
           ************************************************************
------------------------------------------------------------------------------
                         ORCA SCF GRADIENT CALCULATION
------------------------------------------------------------------------------

Nuc. rep. gradient        (SHARK) ... done (  0.0 sec)
HCore & Overlap gradient  (SHARK) ... done (  0.0 sec)
ECP gradient              (SHARK) ... done (  0.2 sec)
Split-RIJ-J gradient      (SHARK) ... done (  0.2 sec)
COSX-gradient                     ... done (  3.0 sec)
XC gradient                       ... done (  1.2 sec)
Dispersion correction             ... done (  0.0 sec)

-------------------
DISPERSION GRADIENT
-------------------

   1   C   :   -0.000447213   -0.000185515    0.000327130
   2   C   :   -0.000307603    0.000033323   -0.000141855
   3   C   :   -0.000304961    0.000127373   -0.000488578
   4   C   :   -0.000109136    0.000252428   -0.000134329
   5   C   :    0.000108611    0.000173426    0.000370863
   6   C   :    0.000275058    0.000219381    0.000297017
   7   C   :    0.000443830   -0.000219813    0.000066184
   8   C   :    0.000439631   -0.000323048   -0.000376146
   9   H   :   -0.000121510   -0.000111377    0.000080667
  10   H   :   -0.000134898   -0.000002909    0.000119073
  11   H   :   -0.000094235   -0.000042383    0.000066856
  12   H   :   -0.000060771    0.000035999   -0.000127600
  13   H   :   -0.000076812    0.000018227   -0.000100106
  14   H   :   -0.000024733    0.000097698   -0.000097537
  15   H   :    0.000015091   -0.000010094    0.000140018
  16   H   :    0.000084972    0.000107782    0.000052641
  17   H   :    0.000061898    0.000053250    0.000109020
  18   H   :    0.000084953   -0.000086731    0.000037212
  19   H   :    0.000041067   -0.000064854   -0.000062594
  20   H   :    0.000126762   -0.000072163   -0.000137937

Difference to translation invariance:
           :   -0.0000000000    0.0000000000    0.0000000000

Difference to rotation invariance:
           :   -0.0000000000    0.0000000000   -0.0000000000

Norm of the Dispersion gradient    ...    0.0014979463
RMS gradient                       ...    0.0001933840
MAX gradient                       ...    0.0004885775

------------------
CARTESIAN GRADIENT
------------------

   1   C   :   -0.002488794    0.001845962   -0.006387410
   2   C   :    0.001740799   -0.003232466    0.012459709
   3   C   :   -0.003953143    0.000778695   -0.004363022
   4   C   :    0.011398086    0.008025894   -0.023493048
   5   C   :    0.003245106   -0.010016394    0.016706538
   6   C   :   -0.005303819   -0.005542173   -0.017038920
   7   C   :   -0.005753113   -0.000163491    0.021757409
   8   C   :   -0.003341727    0.001467921   -0.017484954
   9   H   :    0.004902386   -0.012427455   -0.000228683
  10   H   :    0.001004390    0.010735412    0.007844803
  11   H   :   -0.016140884   -0.002435913   -0.000951774
  12   H   :    0.000782426    0.000170250   -0.000101391
  13   H   :   -0.001004711   -0.000366345    0.000577993
  14   H   :    0.004308942   -0.000500289    0.001042769
  15   H   :    0.000592939    0.001347523    0.000522472
  16   H   :    0.005016010    0.013082177   -0.006122585
  17   H   :    0.001792644   -0.001727012    0.013112867
  18   H   :    0.002505993   -0.001167054    0.000025548
  19   H   :    0.002345427   -0.002481426    0.002183605
  20   H   :   -0.001648960    0.002606186   -0.000061924

Difference to translation invariance:
           :    0.0000000000    0.0000000000    0.0000000000

Difference to rotation invariance:
           :    0.0000673127    0.0000221266    0.0000708957

Norm of the Cartesian gradient     ...    0.0604898978
RMS gradient                       ...    0.0078092122
MAX gradient                       ...    0.0234930476

-------
TIMINGS
-------

Total SCF gradient time     ....        4.774 sec

Densities                   ....       0.001 sec  (  0.0%)
One electron gradient       ....       0.031 sec  (  0.6%)
RI-J Coulomb gradient       ....       0.248 sec  (  5.2%)
COSX gradient               ....       3.026 sec  ( 63.4%)
XC gradient                 ....       1.180 sec  ( 24.7%)

Maximum memory used throughout the entire SCFGRAD-calculation: 32.2 MB
------------------------------------------------------------------------------
                         ORCA GEOMETRY RELAXATION STEP
------------------------------------------------------------------------------

Reading the OPT-File                    .... done
Getting information on internals        .... done
Copying old internal coords+grads       .... done
Making the new internal coordinates     .... (2022 redundants) done
Validating the new internal coordinates .... (2022 redundants) done
Calculating the B-matrix                .... done
Calculating the G,G- and P matrices     .... done
Transforming gradient to internals      .... done
Projecting the internal gradient        .... done
Number of atoms                         ....  20
Number of internal coordinates          ....  80
Current Energy                          ....   -52.739284213 Eh
Current gradient norm                   ....     0.060489898 Eh/bohr
Maximum allowed component of the step   ....  0.300
Current trust radius                    ....  0.300
Evaluating the initial hessian          ....  (Almloef) done
Projecting the Hessian                  .... done
Forming the augmented Hessian           .... done
Diagonalizing the augmented Hessian     .... done
Last element of RFO vector              ....  0.968492492
Lowest eigenvalues of augmented Hessian:
 -0.007552940  0.012209960  0.012668921  0.013295300  0.013676642
Length of the computed step             ....  0.257144744
The final length of the internal step   ....  0.257144744
Converting the step to Cartesian space:
 Initial RMS(Int)=    0.0287496564
Transforming coordinates:
 Iter   0:  RMS(Cart)=    0.1019082191 RMS(Int)=    1.4033449591
 Iter   5:  RMS(Cart)=    0.0000000592 RMS(Int)=    0.0000000304
done
Storing new coordinates                 .... done

                                .--------------------.
          ----------------------|Geometry convergence|-------------------------
          Item                value                   Tolerance       Converged
          ---------------------------------------------------------------------
          RMS gradient        0.0056647240            0.0001000000      NO
          MAX gradient        0.0161130159            0.0003000000      NO
          RMS step            0.0287496564            0.0020000000      NO
          MAX step            0.0966156397            0.0040000000      NO
          ........................................................
          Max(Bonds)      0.0250      Max(Angles)    1.78
          Max(Dihed)        5.54      Max(Improp)    0.00
          ---------------------------------------------------------------------

The optimization has not yet converged - more geometry cycles are needed


    ---------------------------------------------------------------------------
                         Redundant Internal Coordinates
                            (Angstroem and degrees)

        Definition                    Value    dE/dq     Step     New-Value
    ----------------------------------------------------------------------------
     1. B(C   1,C   0)                1.5074  0.007739 -0.0099    1.4975   
     2. B(C   2,C   1)                1.3371  0.005400 -0.0037    1.3334   
     3. B(C   3,C   1)                1.4845  0.015069 -0.0178    1.4668   
     4. B(C   4,C   3)                1.3392  0.011453 -0.0080    1.3312   
     5. B(C   5,C   4)                1.5007 -0.003601  0.0045    1.5052   
     6. B(C   6,C   5)                1.5027 -0.005204  0.0065    1.5092   
     7. B(C   7,C   6)                1.3362  0.014443 -0.0099    1.3263   
     8. B(H   8,C   0)                1.1102  0.012877 -0.0199    1.0903   
     9. B(H   9,C   0)                1.1102  0.012841 -0.0199    1.0903   
    10. B(H  10,C   0)                1.1114  0.016113 -0.0250    1.0863   
    11. B(H  11,C   2)                1.0833  0.000537 -0.0008    1.0825   
    12. B(H  12,C   2)                1.0829  0.000977 -0.0014    1.0815   
    13. B(H  13,C   3)                1.0846  0.001062 -0.0015    1.0831   
    14. B(H  14,C   4)                1.0822 -0.000325  0.0005    1.0827   
    15. B(H  15,C   5)                1.1124  0.015146 -0.0236    1.0888   
    16. B(H  16,C   5)                1.1108  0.012698 -0.0197    1.0911   
    17. B(H  17,C   6)                1.0861  0.001779 -0.0025    1.0836   
    18. B(H  18,C   7)                1.0851  0.002523 -0.0036    1.0815   
    19. B(H  19,C   7)                1.0854  0.002278 -0.0032    1.0821   
    20. A(C   1,C   0,H   8)          109.64 -0.004006    0.69    110.34   
    21. A(H   9,C   0,H  10)          107.99 -0.000602    0.15    108.14   
    22. A(C   1,C   0,H  10)          112.15  0.005188   -0.86    111.29   
    23. A(C   1,C   0,H   9)          109.65 -0.004071    0.70    110.35   
    24. A(H   8,C   0,H  10)          107.99 -0.000667    0.17    108.16   
    25. A(H   8,C   0,H   9)          109.36  0.004350   -0.89    108.48   
    26. A(C   0,C   1,C   2)          119.70 -0.008535    1.20    120.91   
    27. A(C   0,C   1,C   3)          121.30  0.011956   -1.71    119.59   
    28. A(C   2,C   1,C   3)          118.99 -0.003421    0.51    119.50   
    29. A(C   1,C   2,H  12)          121.27 -0.000575    0.10    121.36   
    30. A(C   1,C   2,H  11)          121.12 -0.000329    0.06    121.18   
[...]
     49       0.002440   0.010764  -0.015457   0.030404   0.002141  -0.000091
     50       0.004259   0.014344  -0.020535   0.045722   0.003723  -0.000191
     51       0.004445  -0.072064   0.084345  -0.031804  -0.015158   0.000199
     52       0.016465  -0.291353   0.339926  -0.139270  -0.059573   0.000899
     53      -0.020413   0.352061  -0.411238   0.165560   0.072662  -0.001057
     54      -0.012421   0.113644  -0.132989   0.022911   0.380338  -0.004708
     55       0.022266  -0.203749   0.238734  -0.041680  -0.665329   0.008235
     56      -0.000995   0.009611  -0.010795   0.001580   0.016383  -0.000215
     57      -0.005795   0.060251  -0.070284   0.016086  -0.114011   0.001460
     58      -0.020410   0.215294  -0.250359   0.058093  -0.373667   0.004711
     59       0.026131  -0.274927   0.319466  -0.073152   0.490448  -0.006174


-----------
IR SPECTRUM
-----------

 Mode   freq       eps      Int      T**2         TX        TY        TZ
       cm**-1   L/(mol*cm) km/mol    a.u.
----------------------------------------------------------------------------
  6:     46.27   0.000014    0.07  0.000097  (-0.008152 -0.004322  0.003405)
  7:     64.49   0.000048    0.24  0.000234  ( 0.005945 -0.011836 -0.007647)
  8:    126.67   0.000073    0.37  0.000180  ( 0.006747 -0.009226 -0.006996)
  9:    168.80   0.000091    0.46  0.000169  (-0.008058  0.008961  0.004828)
 10:    194.51   0.000172    0.87  0.000275  ( 0.012035  0.003804  0.010767)
 11:    222.80   0.000128    0.65  0.000179  ( 0.001428  0.010302  0.008431)
 12:    329.92   0.000540    2.73  0.000511  ( 0.016361 -0.014503 -0.005758)
 13:    346.26   0.000078    0.39  0.000070  ( 0.007425 -0.002531 -0.002949)
 14:    431.96   0.000234    1.18  0.000169  ( 0.008976 -0.008856 -0.003120)
 15:    473.80   0.000297    1.50  0.000196  ( 0.012337  0.006404 -0.001597)
 16:    521.01   0.000828    4.19  0.000496  (-0.003870 -0.017576 -0.013127)
 17:    545.13   0.000516    2.61  0.000296  ( 0.007637  0.010709  0.011072)
 18:    670.40   0.003220   16.27  0.001499  (-0.032833 -0.005191 -0.019848)
 19:    725.35   0.000303    1.53  0.000130  ( 0.005777  0.003526  0.009199)
 20:    852.86   0.000291    1.47  0.000107  (-0.003321  0.004306  0.008776)
 21:    878.33   0.000573    2.90  0.000204  (-0.001599  0.008367  0.011445)
 22:    938.27   0.007747   39.15  0.002577  ( 0.003400 -0.042920 -0.026890)
 23:    952.26   0.000829    4.19  0.000272  ( 0.015708  0.004318  0.002502)
 24:    961.39   0.008684   43.89  0.002819  (-0.041160 -0.022246 -0.025097)
 25:    982.85   0.001186    5.99  0.000377  ( 0.013147  0.004498  0.013548)
 26:   1013.40   0.002961   14.97  0.000912  ( 0.003102 -0.027016 -0.013131)
 27:   1016.95   0.006432   32.51  0.001974  (-0.008831  0.035059  0.025822)
 28:   1047.69   0.003351   16.93  0.000998  ( 0.019762  0.016187  0.018586)
 29:   1060.41   0.000261    1.32  0.000077  (-0.001102  0.005773 -0.006506)
 30:   1091.27   0.000487    2.46  0.000139  ( 0.010461 -0.005461  0.000223)
 31:   1092.58   0.002936   14.84  0.000839  ( 0.027268 -0.009262  0.003062)
 32:   1173.22   0.000366    1.85  0.000097  ( 0.008673 -0.001046  0.004597)
 33:   1259.95   0.000132    0.67  0.000033  (-0.004829  0.002894 -0.001026)
 34:   1317.56   0.000454    2.29  0.000107  ( 0.010330 -0.000406  0.000791)
 35:   1348.47   0.000024    0.12  0.000005  ( 0.001095 -0.000058 -0.002069)
 36:   1360.98   0.000245    1.24  0.000056  (-0.005398 -0.003213  0.004101)
 37:   1369.89   0.000049    0.25  0.000011  ( 0.000084 -0.000139  0.003330)
 38:   1383.89   0.000924    4.67  0.000208  ( 0.013122 -0.003993  0.004488)
 39:   1446.40   0.002252   11.38  0.000486  (-0.014565 -0.009603  0.013473)
 40:   1475.67   0.000535    2.70  0.000113  (-0.009302  0.001027  0.005049)
 41:   1481.99   0.000460    2.32  0.000097  ( 0.002645 -0.002706 -0.009085)
 42:   1505.10   0.002422   12.24  0.000502  (-0.007466 -0.018129  0.010854)
 43:   1512.75   0.002268   11.46  0.000468  (-0.002130  0.018246  0.011420)
 44:   1528.84   0.002890   14.61  0.000590  ( 0.023365 -0.001430  0.006481)
 45:   1740.23   0.003691   18.65  0.000662  (-0.011274  0.011987 -0.019778)
 46:   1771.29   0.003722   18.81  0.000656  ( 0.019792 -0.012587 -0.010272)
 47:   1796.01   0.001494    7.55  0.000260  (-0.009556  0.005029 -0.011959)
 48:   3086.91   0.003476   17.57  0.000351  (-0.010037 -0.013749 -0.007849)
 49:   3105.63   0.003898   19.70  0.000392  (-0.006062 -0.010515  0.015631)
 50:   3163.57   0.001031    5.21  0.000102  ( 0.003672  0.006280 -0.006985)
 51:   3188.38   0.001548    7.82  0.000152  ( 0.001144 -0.010144 -0.006880)
 52:   3202.67   0.002193   11.08  0.000214  (-0.005249 -0.005179  0.012620)
 53:   3210.02   0.000297    1.50  0.000029  (-0.003433  0.001857 -0.003698)
 54:   3212.51   0.003556   17.97  0.000345  ( 0.018516  0.001622 -0.000050)
 55:   3215.21   0.001690    8.54  0.000164  (-0.002015  0.009765 -0.008037)
 56:   3215.76   0.000609    3.08  0.000059  ( 0.006276  0.000338 -0.004430)
 57:   3222.34   0.003067   15.50  0.000297  ( 0.005503  0.009150 -0.013528)
 58:   3305.84   0.000939    4.74  0.000089  (-0.002294  0.008021 -0.004361)
 59:   3307.31   0.000935    4.72  0.000088  (-0.007070 -0.004067  0.004657)

* The epsilon (eps) is given for a Dirac delta lineshape.
** The dipole moment derivative (T) already includes vibrational overlap.

The first frequency considered to be a vibration is 6
The total number of vibrations considered is 54


--------------------------
THERMOCHEMISTRY AT 298.15K
--------------------------

Temperature         ...   298.15 K
Pressure            ...     1.00 atm
Total Mass          ...   108.18 AMU
Quasi RRHO          ...     True
Cut-Off Frequency   ...     1.00 cm^-1

Throughout the following assumptions are being made:
  (1) The electronic state is orbitally nondegenerate
  (2) There are no thermally accessible electronically excited states
  (3) Hindered rotations indicated by low frequency modes are not
      treated as such but are treated as vibrations and this may
      cause some error
  (4) All equations used are the standard statistical mechanics
      equations for an ideal gas
  (5) All vibrations are strictly harmonic

freq.      46.27  E(vib)   ...       0.53 
freq.      64.49  E(vib)   ...       0.51 
freq.     126.67  E(vib)   ...       0.43 
freq.     168.80  E(vib)   ...       0.38 
freq.     194.51  E(vib)   ...       0.36 
freq.     222.80  E(vib)   ...       0.33 
freq.     329.92  E(vib)   ...       0.24 
freq.     346.26  E(vib)   ...       0.23 
freq.     431.96  E(vib)   ...       0.18 
freq.     473.80  E(vib)   ...       0.15 
freq.     521.01  E(vib)   ...       0.13 
freq.     545.13  E(vib)   ...       0.12 
freq.     670.40  E(vib)   ...       0.08 
freq.     725.35  E(vib)   ...       0.06 
freq.     852.86  E(vib)   ...       0.04 
freq.     878.33  E(vib)   ...       0.04 
freq.     938.27  E(vib)   ...       0.03 
freq.     952.26  E(vib)   ...       0.03 
freq.     961.39  E(vib)   ...       0.03 
freq.     982.85  E(vib)   ...       0.02 
freq.    1013.40  E(vib)   ...       0.02 
freq.    1016.95  E(vib)   ...       0.02 
freq.    1047.69  E(vib)   ...       0.02 
freq.    1060.41  E(vib)   ...       0.02 
freq.    1091.27  E(vib)   ...       0.02 
freq.    1092.58  E(vib)   ...       0.02 
freq.    1173.22  E(vib)   ...       0.01 
freq.    1259.95  E(vib)   ...       0.01 
freq.    1317.56  E(vib)   ...       0.01 
freq.    1348.47  E(vib)   ...       0.01 
freq.    1360.98  E(vib)   ...       0.01 
freq.    1369.89  E(vib)   ...       0.01 
freq.    1383.89  E(vib)   ...       0.00 
freq.    1446.40  E(vib)   ...       0.00 
freq.    1475.67  E(vib)   ...       0.00 
freq.    1481.99  E(vib)   ...       0.00 
freq.    1505.10  E(vib)   ...       0.00 
freq.    1512.75  E(vib)   ...       0.00 
freq.    1528.84  E(vib)   ...       0.00 
freq.    1740.23  E(vib)   ...       0.00 
freq.    1771.29  E(vib)   ...       0.00 
freq.    1796.01  E(vib)   ...       0.00 
freq.    3086.91  E(vib)   ...       0.00 
freq.    3105.63  E(vib)   ...       0.00 
freq.    3163.57  E(vib)   ...       0.00 
freq.    3188.38  E(vib)   ...       0.00 
freq.    3202.67  E(vib)   ...       0.00 
freq.    3210.02  E(vib)   ...       0.00 
freq.    3212.51  E(vib)   ...       0.00 
freq.    3215.21  E(vib)   ...       0.00 
freq.    3215.76  E(vib)   ...       0.00 
freq.    3222.34  E(vib)   ...       0.00 
freq.    3305.84  E(vib)   ...       0.00 
freq.    3307.31  E(vib)   ...       0.00 

------------
INNER ENERGY
------------

The inner energy is: U= E(el) + E(ZPE) + E(vib) + E(rot) + E(trans)
    E(el)   - is the total energy from the electronic structure calculation
              = E(kin-el) + E(nuc-el) + E(el-el) + E(nuc-nuc)
    E(ZPE)  - the the zero temperature vibrational energy from the frequency calculation
    E(vib)  - the the finite temperature correction to E(ZPE) due to population
              of excited vibrational states
    E(rot)  - is the rotational thermal energy
    E(trans)- is the translational thermal energy

Summary of contributions to the inner energy U:
Electronic energy                ...    -52.74860452 Eh
Zero point energy                ...      0.17920984 Eh     112.46 kcal/mol
Thermal vibrational correction   ...      0.00653117 Eh       4.10 kcal/mol
Thermal rotational correction    ...      0.00141627 Eh       0.89 kcal/mol
Thermal translational correction ...      0.00141627 Eh       0.89 kcal/mol
-----------------------------------------------------------------------
Total thermal energy                    -52.56003097 Eh


Summary of corrections to the electronic energy:
(perhaps to be used in another calculation)
Total thermal correction                  0.00936371 Eh       5.88 kcal/mol
Non-thermal (ZPE) correction              0.17920984 Eh     112.46 kcal/mol
-----------------------------------------------------------------------
Total correction                          0.18857355 Eh     118.33 kcal/mol


--------
ENTHALPY
--------

The enthalpy is H = U + kB*T
                kB is Boltzmann's constant
Total thermal energy              ...    -52.56003097 Eh 
Thermal Enthalpy correction       ...      0.00094421 Eh       0.59 kcal/mol
-----------------------------------------------------------------------
Total Enthalpy                    ...    -52.55908676 Eh


Note: Only C1 symmetry has been detected, increase convergence thresholds 
      if your molecule has a higher symmetry. Symmetry factor of 1.0 is   
      used for the rotational entropy correction. 
 

Note: Rotational entropy computed according to Herzberg 
Infrared and Raman Spectra, Chapter V,1, Van Nostrand Reinhold, 1945 
Point Group:  C1, Symmetry Number:   1  
Rotational constants in cm-1:     0.170733     0.026766     0.025306 

Vibrational entropy computed according to the QRRHO of S. Grimme
Chem.Eur.J. 2012 18 9955 using a reference frequency of 100.0 cm-1


-------
ENTROPY
-------

The entropy contributions are T*S = T*(S(el)+S(vib)+S(rot)+S(trans))
     S(el)   - electronic entropy
     S(vib)  - vibrational entropy
     S(rot)  - rotational entropy
     S(trans)- translational entropy
The entropies will be listed as multiplied by the temperature to get
units of energy

Electronic entropy                ...      0.00000000 Eh      0.00 kcal/mol
Vibrational entropy               ...      0.01134721 Eh      7.12 kcal/mol
Rotational entropy                ...      0.01379031 Eh      8.65 kcal/mol
Translational entropy             ...      0.01898265 Eh     11.91 kcal/mol
-----------------------------------------------------------------------
Final entropy term                ...      0.04412017 Eh     27.69 kcal/mol

In case the symmetry of your molecule has not been determined correctly
or in case you have a reason to use a different symmetry number we print 
out the resulting rotational entropy values for sn=1,12:

 non-linear molecules -----------------------------------
|  sn= 1 | S(rot)=       0.01379031 Eh      8.65 kcal/mol|
|  sn= 2 | S(rot)=       0.01313585 Eh      8.24 kcal/mol|
|  sn= 3 | S(rot)=       0.01275302 Eh      8.00 kcal/mol|
|  sn= 4 | S(rot)=       0.01248139 Eh      7.83 kcal/mol|
|  sn= 5 | S(rot)=       0.01227070 Eh      7.70 kcal/mol|
|  sn= 6 | S(rot)=       0.01209856 Eh      7.59 kcal/mol|
|  sn= 7 | S(rot)=       0.01195301 Eh      7.50 kcal/mol|
|  sn= 8 | S(rot)=       0.01182694 Eh      7.42 kcal/mol|
|  sn= 9 | S(rot)=       0.01171573 Eh      7.35 kcal/mol|
|  sn=10 | S(rot)=       0.01161625 Eh      7.29 kcal/mol|
|  sn=11 | S(rot)=       0.01152626 Eh      7.23 kcal/mol|
|  sn=12 | S(rot)=       0.01144410 Eh      7.18 kcal/mol|
 linear molecules ---------------------------------------
|  Dinfh | S(rot)=       0.00879728 Eh      5.52 kcal/mol|
|  Cinfv | S(rot)=       0.00945174 Eh      5.93 kcal/mol|
 --------------------------------------------------------


-------------------
GIBBS FREE ENERGY
-------------------

The Gibbs free energy is G = H - T*S

Total enthalpy                    ...    -52.55908676 Eh 
Total entropy correction          ...     -0.04412017 Eh    -27.69 kcal/mol
-----------------------------------------------------------------------
Final Gibbs free energy         ...    -52.60320693 Eh

For completeness - the Gibbs free energy minus the electronic energy
G-E(el)                           ...      0.14539759 Eh     91.24 kcal/mol


Maximum memory used throughout the entire PROP-calculation: 72.7 MB

--------------------------------
SUGGESTED CITATIONS FOR THIS RUN
--------------------------------

Below you find a list of papers that are relevant to this ORCA run
We neither can nor want to force you to cite these papers, but we appreciate if you do
You receive ORCA, which is the product of decades of hard work by many enthusiastic individuals, for free
The only thing we kindly ask in return is that you cite our papers,
We deeply appreciate it, if you show your appreciation for ORCA by not just citing the generic ORCA reference.

Please note that relegating all ORCA citations to the supporting information does *not* help us.
SI sections are not indexed - citations you put there will not count into any citation statistics
But we need these citations in order to attract the funding resources that allow us to do what we are doing

Therefore, if you are a happy ORCA user, please consider citing a few of the papers listed below in the main body of your paper

In addition to the list printed below, the program has created the file ./output/neoalloocimene/neoalloocimene.bibtex that contains the list in bibtex format
You can import this file easily into all common literature databanks and citation aid programs


List of essential papers. We consider these as the minimum necessary citations

  1. Neese,F.
     Software update: the ORCA program system, version 5.0
     WIRES Comput. Molec. Sci., 2022 12(1)e1606
     doi.org/10.1002/wcms.1606
  2. Mueller,M.; Hansen,A.; Grimme,S.
     wB97X-3c: A composite range-separated hybrid DFT method with a molecule-optimized polarized valence double-zeta basis set
     J. Chem. Phys., 2023 158 014103
     doi.org/10.1063/5.0133026

List of papers to cite with high priority. The work reported in these papers was absolutely
necessary for this run to complete.
Our perspective: the developers of density functionals and basis sets usually get cited in chemistry papers
Good! But without the algorithms to do something with them, the functionals or basis sets would not do anything.
Hence, in our opinion, the algorithm design and method developments papers are equally worthy of getting cited

  1. Neese,F.
     An improvement of the resolution of the identity approximation for the formation of the Coulomb matrix
     J. Comp. Chem., 2003 24(14)1740-1747
     doi.org/10.1002/jcc.10318
  2. Neese,F.; Wennmohs,F.; Hansen,A.; Becker,U.
     Efficient, approximate and parallel Hartree-Fock and hybrid DFT calculations. A 'chain-of-spheres' algorithm for the Hartree-Fock exchange
     Chem. Phys., 2009 356(1-3)98-109
     doi.org/10.1016/j.chemphys.2008.10.036
  3. Bykov,D.; Petrenko,T.; Izsak,R.; Kossmann,S.; Becker,U.; Valeev,E.; Neese,F.
     Efficient implementation of the analytic second derivatives of Hartree-Fock and hybrid DFT energies: a detailed analysis of different approximations
     Molec. Phys., 2015 113 1961-1977
     doi.org/10.1080/00268976.2015.1025114
  4. Helmich-Paris,B.; de Souza,B.; Neese,F.; Izsák,R.
     An improved chain of spheres for exchange algorithm
     J. Chem. Phys., 2021 155 104109
     doi.org/doi: 10.1063/5.0058766.
  5. Neese,F.
     The SHARK Integral Generation and Digestion System
     J. Comp. Chem., 2022  1-16
     doi.org/10.1002/jcc.26942
  6. Caldeweyher,E.; Bannwarth,C.; Grimme,S.
     Extension of the D3 dispersion coefficient model
     J. Chem. Phys., 2017 147 034112
     doi.org/10.1063/1.4993215
  7. Caldeweyher,E.; Ehlert,S.; Hansen,A.; Neugebauer,H.; Spicher,S.; Bannwarth,C.; Grimme,S.
     A generally applicable atomic-charge dependent London dispersion correction
     J. Chem. Phys., 2019 150 154122
     doi.org/10.1063/1.5090222
  8. Caldeweyher,E.; Mewes,J.; Ehlert,S.; Grimme,S.
     Extension and evaluation of the D4 London-dispersion model for periodic systems
     Phys. Chem. Chem. Phys., 2020 22(16)8499-8512
     doi.org/10.1039/D0CP00502A
  9. Wittmann,L.; Gordiy,I.; Friede,M.; Helmich-Paris,B.; Grimme,S.; Hansen,A.; Bursch,M.
     Extension of the D3 and D4 London Dispersion Corrections to the full Actinides Series
     Phys. Chem. Chem. Phys., 2024 26(32)21379-21394
     doi.org/https://doi.org/10.1039/D4CP01514B 

List of suggested additional citations. These are papers that are important in the 'surrounding' of 
of this run, or papers that preceded the highly important papers. If you like your results we are grateful for a citation.

  1. Izsak,R.; Neese,F.
     An overlap fitted chain of spheres exchange method
     J. Chem. Phys., 2011 135 144105
     doi.org/10.1063/1.3646921
  2. Izsak,R.; Hansen,A.; Neese,F.
     The resolution of identity and chain of spheres approximations for the LPNO-CCSD singles Fock term
     Molec. Phys., 2012 110 2413-2417
     doi.org/10.1080/00268976.2012.687466
  3. Neese,F.
     The ORCA program system
     WIRES Comput. Molec. Sci., 2012 2(1)73-78
     doi.org/10.1002/wcms.81
  4. Izsak,R.; Neese,F.; Klopper,W.
     Robust fitting techniques in the chain of spheres approximation to the Fock exchange: The role of the complementary space
     J. Chem. Phys., 2013 139 
     doi.org/10.1063/1.4819264
  5. Neese,F.
     Software update: the ORCA program system, version 4.0
     WIRES Comput. Molec. Sci., 2018 8(1)1-6
     doi.org/10.1002/wcms.1327
  6. Neese,F.; Wennmohs,F.; Becker,U.; Riplinger,C.
     The ORCA quantum chemistry program package
     J. Chem. Phys., 2020 152 Art. No. L224108
     doi.org/10.1063/5.0004608

List of optional additional citations

  1. Neese,F.
     Approximate second-order SCF convergence for spin unrestricted wavefunctions
     Chem. Phys. Lett., 2000 325(1-3)93-98
     doi.org/10.1016/s0009-2614(00)00662-x

Timings for individual modules:

Sum of individual times          ...      558.741 sec (=   9.312 min)
Startup calculation              ...       39.662 sec (=   0.661 min)   7.1 %
SCF iterations                   ...      366.075 sec (=   6.101 min)  65.5 %
Property integrals               ...       28.948 sec (=   0.482 min)   5.2 %
SCF Response                     ...       21.407 sec (=   0.357 min)   3.8 %
Property calculations            ...       38.008 sec (=   0.633 min)   6.8 %
SCF Gradient evaluation          ...       64.478 sec (=   1.075 min)  11.5 %
Geometry relaxation              ...        0.162 sec (=   0.003 min)   0.0 %
                             ****ORCA TERMINATED NORMALLY****
TOTAL RUN TIME: 0 days 0 hours 9 minutes 25 seconds 122 msec
