
                                 *****************
                                 * O   R   C   A *
                                 *****************

                                            #,                                       
                                            ###                                      
                                            ####                                     
                                            #####                                    
                                            ######                                   
                                           ########,                                 
                                     ,,################,,,,,                         
                               ,,#################################,,                 
                          ,,##########################################,,             
                       ,#########################################, ''#####,          
                    ,#############################################,,   '####,        
                  ,##################################################,,,,####,       
                ,###########''''           ''''###############################       
              ,#####''   ,,,,##########,,,,          '''####'''          '####       
            ,##' ,,,,###########################,,,                        '##       
           ' ,,###''''                  '''############,,,                           
         ,,##''                                '''############,,,,        ,,,,,,###''
      ,#''                                            '''#######################'''  
     '                                                          ''''####''''         
             ,#######,   #######,   ,#######,      ##                                
            ,#'     '#,  ##    ##  ,#'     '#,    #''#        ,####,   ,####,        
            ##       ##  ##   ,#'  ##            #'  '#       #'       #'  '#        
            ##       ##  #######   ##           ,######,      #####,   #    #        
            '#,     ,#'  ##    ##  '#,     ,#' ,#      #,     #,   #   #,  ,#        
             '#######'   ##     ##  '#######'  #'      '#     '####' # '####'        



                #########################################################
                #                        -***-                          #
                #          Department of theory and spectroscopy        #
                #                                                       #
                #                      Frank Neese                      #
                #                                                       #
                #     Directorship, Architecture, Infrastructure        #
                #                    SHARK, DRIVERS                     #
                #        Core code/Algorithms in most modules           #
                #                                                       #
                #        Max Planck Institute fuer Kohlenforschung      #
                #                Kaiser Wilhelm Platz 1                 #
                #                 D-45470 Muelheim/Ruhr                 #
                #                      Germany                          #
                #                                                       #
                #                  All rights reserved                  #
                #                        -***-                          #
                #########################################################


                         Program Version 6.0.1  -  RELEASE   -


 With contributions from (in alphabetic order):
[Max-Planck-Institut fuer Kohlenforschung]                               
  Daniel Aravena         : Magnetic Suceptibility                        
  Michael Atanasov       : Ab Initio Ligand Field Theory (pilot matlab implementation)
  Alexander A. Auer      : GIAO ZORA, VPT2 properties, NMR spectrum      
  Ute Becker             : All parallelization in ORCA, NUMFREQ, NUMCALC 
  Giovanni Bistoni       : ED, misc. LED, open-shell LED, HFLD           
  Martin Brehm           : Molecular dynamics                            
  Dmytro Bykov           : pre 5.0 version of the SCF Hessian            
  Marcos Casanova-Páez   : Triplet and SCS-CIS(D). UHF-(DLPNO)-IP/EA/STEOM-CCSD. UHF-CVS-IP/STEOM-CCSD   
  Vijay G. Chilkuri      : MRCI spin determinant printing, contributions to CSF-ICE 
  Pauline Colinet        : FMM embedding                                 
  Dipayan Datta          : RHF DLPNO-CCSD density                        
  Achintya Kumar Dutta   : EOM-CC, STEOM-CC                              
  Nicolas Foglia         : Exact transition moments, OPA infrastructure, MCD improvements    
  Dmitry Ganyushin       : Spin-Orbit,Spin-Spin,Magnetic field MRCI      
  Miquel Garcia-Rates    : C-PCM and meta-GGA Hessian, CCSD/C-PCM, Gaussian charge scheme 
  Tiago L. C. Gouveia    : GS-ROHF, GS-ROCIS                             
  Yang Guo               : DLPNO-NEVPT2, F12-NEVPT2, CIM, IAO-localization        
  Andreas Hansen         : Spin unrestricted coupled pair/coupled cluster methods 
  Ingolf Harden          : AUTO-CI MPn and infrastructure                
  Benjamin Helmich-Paris : MC-RPA, TRAH-(SCF,CASSCF), AVAS, COSX integrals, SCF dyn. polar. 
  Lee Huntington         : MR-EOM, pCC                                   
  Robert Izsak           : Overlap fitted RIJCOSX, COSX-SCS-MP3, EOM     
  Riya Kayal             : Wick's Theorem for AUTO-CI, AUTO-CI UHF-CCSDT 
  Emily Kempfer          : AUTO-CI, RHF CISDT and CCSDT                  
  Christian Kollmar      : KDIIS, OOCD, Brueckner-CCSD(T), CCSD density, CASPT2, CASPT2-K, improved NEVPT2 
  Axel Koslowski         : Symmetry handling                             
  Simone Kossmann        : meta-GGA functionals, TD-DFT gradient, OOMP2, (MP2 Hessian; deprecated post 5.0) 
  Lucas Lang             : DCDCAS                                        
  Marvin Lechner         : AUTO-CI (C++ implementation), FIC-MRCC        
  Spencer Leger          : CASSCF response                               
  Dagmar Lenk            : GEPOL surface, SMD, ORCA-2-JSON               
  Dimitrios Liakos       : Extrapolation schemes; Compound Job, initial MDCI parallelization 
  Dimitrios Manganas     : Further ROCIS development; embedding schemes. LFT, Crystal Embedding 
  Dimitrios Pantazis     : SARC Basis sets                               
  Anastasios Papadopoulos: AUTO-CI, single reference methods and gradients 
  Taras Petrenko         : pre 6.0 DFT Hessian and TD-DFT gradient, (ASA, deprecated), ECA, 1-Electron XAS/XES, NRVS 
  Peter Pinski           : DLPNO-MP2, DLPNO-MP2 Gradient                 
  Christoph Reimann      : Effective Core Potentials                     
  Marius Retegan         : Local ZFS, SOC                                
  Christoph Riplinger    : Optimizer, TS searches, QM/MM, DLPNO-CCSD(T), (RO)-DLPNO pert. Triples 
  Michael Roemelt        : Original ROCIS implementation                 
  Masaaki Saitow         : Open-shell DLPNO-CCSD energy and density      
  Barbara Sandhoefer     : DKH picture change effects                    
  Kantharuban Sivalingam : CASSCF convergence/infrastructure, NEVPT2 and variants, FIC-MRCI 
  Bernardo de Souza      : ESD, SOC TD-DFT                               
  Georgi L. Stoychev     : AutoAux, RI-MP2 NMR, DLPNO-MP2 response, X2C  
  Van Anh Tran           : RI-MP2 g-tensors                              
  Willem Van den Heuvel  : Paramagnetic NMR                              
  Zikuan Wang            : NOTCH, Electric field optimization            
  Frank Wennmohs         : Technical directorship and infrastructure     
  Hang Xu                : AUTO-CI-Response properties                   
                                                                         
[FACCTs GmbH]                                                            
  Markus Bursch, Miquel Garcia-Rates, Christoph Riplinger, Bernardo de Souza, Georgi L. Stoychev 
                                                                 
  APM, Basis sets (HGBS, AHGBS, def-TZVP (Ac-Lr), def2-XVPD (La-Lu)), CI-OPT, improved COSX, DLPNO-Multilevel,           
  DOCKER, DRACO, updates on ESD, GOAT, IRC, LR-CPCM, MBIS, meta-GGA TD-DFT gradient, ML-optimized integration grids, 
  MM, NACMEs, nearIR, NEB, NEB-TS, NL-DFT gradient (VV10), 2- and 3-layer-ONIOM, interface openCOSMO-RS, QMMM,   
  Crystal-QMMM, SF, symmetry and pop. for TD-DFT, r2SCAN hybrids, SOLVATOR                                   
                                                                         
[Other institutions]                                                     
  V. Asgeirsson          : NEB                                           
  Christoph Bannwarth    : sTDA-DFT, sTD-DFT, PBEh-3c, B97-3c, D3        
  Sebastian Ehlert       : rSCAN, r2SCAN, r2SCAN-3c, D4, dhf basis sets  
  Marvin Friede          : D4 for Fr, Ra, Ac-Lr                          
  Lars Goerigk           : TD-DFT with DH, B97 family of functionals     
  Stefan Grimme          : VdW corrections, initial TS optimization, DFT functionals, gCP, sTDA/sTD-DF 
  Waldemar Hujo          : DFT-NL                                        
  H. Jonsson             : NEB                                           
  Holger Kruse           : gCP                                           
  Marcel Mueller         : wB97X-3c, vDZP basis set                      
  Hagen Neugebauer       : wr2SCAN                                       
  Tobias Risthaus        : range-separated hybrid DFT                    
  Lukas Wittmann         : regularized MP2, r2SCAN double-hybrids, wr2SCAN        
                                                                         
We gratefully acknowledge several colleagues who have allowed us to      
interface, adapt or use parts of their codes:                            
  Ed Valeev, F. Pavosevic, A. Kumar             : LibInt (2-el integral package), F12 methods 
  Garnet Chan, S. Sharma, J. Yang, R. Olivares  : DMRG                   
  Ulf Ekstrom                                   : XCFun DFT Library      
  Mihaly Kallay                                 : mrcc  (arbitrary order and MRCC methods)
  Frank Weinhold                                : gennbo (NPA and NBO analysis)           
  Simon Mueller                                 : openCOSMO-RS                            
  Christopher J. Cramer and Donald G. Truhlar   : smd solvation model                     
  S Lehtola, MJT Oliveira, MAL Marques          : LibXC Library                           
  Liviu Ungur et al                             : ANISO software                          


 Your calculation uses the libint2 library for the computation of 2-el integrals
 For citations please refer to: http://libint.valeyev.net

 Your ORCA version has been built with support for libXC version: 6.2.2
 For citations please refer to: https://libxc.gitlab.io

 This ORCA versions uses:
   CBLAS   interface :  Fast vector & matrix operations
   LAPACKE interface :  Fast linear algebra routines
   SCALAPACK package :  Parallel linear algebra routines
   Shared memory     :  Shared parallel matrices
   BLAS/LAPACK       :  OpenBLAS 0.3.27  USE64BITINT DYNAMIC_ARCH NO_AFFINITY SkylakeX SINGLE_THREADED
        Core in use  :  SkylakeX
   Copyright (c) 2011-2014, The OpenBLAS Project


Your calculation utilizes the atom-pairwise dispersion correction
based on EEQ partial charges (D4)


================================================================================

cite the ECPs for C  [vDZP-ECP], O  [vDZP-ECP] as follows:
   B-Ne (ecp-2-mwb), Al-Ar (ecp-10-mwb), Ga-Kr (ecp-28-mwb), Y-Cd (ecp-28-mwb), In-Xe (ecp-46-mwb):
     A. Bergner, M. Dolg, W. Küchle, H. Stoll, and H. Preuß, Mol. Phys. 80, 1431 (1993)., T. Leininger, A. Berning, A. Nicklass, H. Stoll, H.-J. Werner, and H.-J.Flad, Chem. Phys. 217, 19 (1997).
   Na-Mg, K-Ca, Rb-Sr, Cs-Ba (CRENBL):
     L. Fernandez Pacios and P. A. Christiansen, J. Chem. Phys. 82, 2664 (1985)., M. M. Hurley, L. F. Pacios, P. A. Christiansen, R. B. Ross, and W. C. Ermler, J. Chem. Phys. 84, 6840 (1986)., L. A. LaJohn, P. A. Christiansen, R. B. Ross, T. Atashroo, and W. C. Ermler, J. Chem. Phys. 87, 2812 (1987)., R. B. Ross, J. M. Powers, T. Atashroo, W. C. Ermler, L. A. LaJohn, and P. A. Christiansen, J. Chem. Phys. 93, 6654 (1990). 
   Sc-Zn (ecp-10-mdf):
     M. Dolg, U. Wedig, H. Stoll, and H. Preuss, J. Chem. Phys. 86, 866 (1986). 
   Y-Cd (ecp-28-mwb), Hf-Hg (ecp-60-mwb):
     D. Andrae, U. Häußermann, M. Dolg, H. Stoll, and H. Preuß, Theor. Chim. Acta 77, 123 (1990). 
   La (ecp-46-mwb):
     M. Dolg, H. Stoll, and H. Preuss, J. Chem. Phys. 90, 1730 (1989)., M. Dolg, H. Stoll, and H. Preuss, Theor. Chim. Acta 85, 441 (1993).
   Ce-Lu (SBKJC-ecp):
     T. R. Cundari and W. J. Stevens, J. Chem. Phys. 98, 5555 (1993).
   Tl-Rn (ecp-78-mwb):
     W. Küchle, M. Dolg, H. Stoll, and H. Preuss, Mol. Phys. 74, 1245 (1991).

ECP parameters for C  [vDZP-ECP], O  [vDZP-ECP] have been obtained from:
MM, AH, SG, J. Chem. Phys. 158, 014103 (2023), 10.1063/5.0133026

----- Orbital basis set information -----
Your calculation utilizes the basis: vDZP
   Marcel Mueller, Andreas Hansen, Stefan Grimme 
   J. Chem. Phys. 158, 014103 (2023). DOI: 10.1063/5.0133026

----- AuxJ basis set information -----
Your calculation utilizes the auxiliary basis: def2/J
   F. Weigend, Phys. Chem. Chem. Phys. 8, 1057 (2006).

================================================================================
                                        WARNINGS
                       Please study these warnings very carefully!
================================================================================

WARNING: Frozen-Core approximation turned on, but there are no core electrons.
  ===> : Turning off frozen-core approximation


WARNING: Geometry Optimization
  ===> : Switching off AutoStart
         For restart on a previous wavefunction, please use MOREAD

================================================================================
                                       INPUT FILE
================================================================================
NAME = ./output/10_epi_gamma_eudesmol/10_epi_gamma_eudesmol.inp
|  1> ! wB97X-3c OPT FREQ TightSCF
|  2> %pal
|  3>   nprocs 40
|  4> end
|  5> * xyz 0 1
|  6> C      1.098541     1.832883     2.257020
|  7> C      1.655169     1.008720     1.117559
|  8> C      0.942599    -0.009944     0.541473
|  9> C     -0.523970    -0.247905     0.882251
| 10> C     -1.395657     0.119614    -0.341387
| 11> C     -0.951222    -0.713846    -1.570697
| 12> C      0.548501    -0.531135    -1.878321
| 13> C      1.477756    -0.814651    -0.661676
| 14> C      2.943355    -0.444357    -1.047009
| 15> C      3.254360     1.027151    -0.811596
| 16> C      3.059918     1.338316     0.664605
| 17> C      1.470643    -2.328690    -0.332073
| 18> C     -2.945339     0.028273    -0.077385
| 19> C     -3.375124    -1.361797     0.432390
| 20> C     -3.393448     1.086504     0.957260
| 21> O     -3.643257     0.266049    -1.278422
| 22> H      0.833849     1.173236     3.110200
| 23> H      0.203868     2.396400     1.917317
| 24> H      1.841362     2.569874     2.628396
| 25> H     -0.662922    -1.312742     1.152352
| 26> H     -0.854404     0.321537     1.767566
| 27> H     -1.175407     1.184437    -0.586834
| 28> H     -1.520491    -0.392254    -2.468933
| 29> H     -1.168947    -1.789575    -1.419334
| 30> H      0.819872    -1.196488    -2.727552
| 31> H      0.698313     0.514006    -2.226692
| 32> H      3.144569    -0.693664    -2.112362
| 33> H      3.669221    -1.039896    -0.447269
| 34> H      2.596309     1.673712    -1.431294
| 35> H      4.309032     1.232905    -1.095974
| 36> H      3.782653     0.753465     1.274284
| 37> H      3.276704     2.417113     0.821613
| 38> H      1.917309    -2.909257    -1.168348
| 39> H      0.453786    -2.731329    -0.163017
| 40> H      2.066461    -2.525056     0.585515
| 41> H     -2.930944    -1.588650     1.423868
| 42> H     -4.480288    -1.397822     0.544820
| 43> H     -3.091074    -2.159295    -0.283209
| 44> H     -3.017125     2.093920     0.678454
| 45> H     -3.033557     0.842356     1.978185
| 46> H     -4.503116     1.134714     0.995616
| 47> H     -3.397856     1.173171    -1.601363
| 48> *
| 49> 
| 50>                          ****END OF INPUT****
================================================================================

                       *****************************
                       * Geometry Optimization Run *
                       *****************************

Geometry optimization settings:
Update method            Update   .... BFGS
Choice of coordinates    CoordSys .... (2022) Redundant Internals
Initial Hessian          InHess   .... Almloef's Model
Max. no of cycles        MaxIter  .... 126

Convergence Tolerances:
Energy Change            TolE     ....  5.0000e-06 Eh
Max. Gradient            TolMAXG  ....  3.0000e-04 Eh/bohr
RMS Gradient             TolRMSG  ....  1.0000e-04 Eh/bohr
Max. Displacement        TolMAXD  ....  4.0000e-03 bohr
RMS Displacement         TolRMSD  ....  2.0000e-03 bohr
Strict Convergence                .... False

------------------------------------------------------------------------------
                        ORCA OPTIMIZATION COORDINATE SETUP
------------------------------------------------------------------------------

The optimization will be done in redundant internal coordinates (2022)
Making redundant internal coordinates   ...  (2022 redundants) done
Evaluating the initial hessian          ...  (Almloef) done
Evaluating the coordinates              ...  done
Calculating the B-matrix                .... done
Calculating the G-matrix                .... done
Diagonalizing the G-matrix              .... done
Small eigenvalue found = 1.112e-02
Small eigenvalue found = 1.739e-02
Small eigenvalue found = 2.691e-02
The first mode is                       ....  101
The number of degrees of freedom        ....  120

    -----------------------------------------------------------------
                    Redundant Internal Coordinates


    -----------------------------------------------------------------
         Definition                    Initial Value    Approx d2E/dq
    -----------------------------------------------------------------
      1. B(C   1,C   0)                  1.5124         0.398480   
      2. B(C   2,C   1)                  1.3701         0.672063   
      3. B(C   3,C   2)                  1.5243         0.381439   
      4. B(C   4,C   3)                  1.5467         0.351379   
      5. B(C   5,C   4)                  1.5503         0.346749   
      6. B(C   6,C   5)                  1.5418         0.357711   
      7. B(C   7,C   2)                  1.5432         0.355871   
      8. B(C   7,C   6)                  1.5570         0.338350   
      9. B(C   8,C   7)                  1.5600         0.334599   
     10. B(C   9,C   8)                  1.5223         0.384255   
     11. B(C  10,C   9)                  1.5211         0.385965   
     12. B(C  10,C   1)                  1.5123         0.398639   
     13. B(C  11,C   7)                  1.5495         0.347728   
     14. B(C  12,C   4)                  1.5747         0.317048   
     15. B(C  13,C  12)                  1.5417         0.357840   
     16. B(C  14,C  12)                  1.5463         0.351819   
     17. B(O  15,C  12)                  1.4093         0.521302   
     18. B(H  16,C   0)                  1.1105         0.334031   
     19. B(H  17,C   0)                  1.1106         0.333878   
     20. B(H  18,C   0)                  1.1103         0.334171   
     21. B(H  19,C   3)                  1.1073         0.337911   
     22. B(H  20,C   3)                  1.1033         0.342950   
     23. B(H  21,C   4)                  1.1147         0.328839   
     24. B(H  22,C   5)                  1.1110         0.333367   
     25. B(H  23,C   5)                  1.1079         0.337146   
     26. B(H  24,C   6)                  1.1124         0.331601   
     27. B(H  25,C   6)                  1.1118         0.332371   
     28. B(H  26,C   8)                  1.1125         0.331553   
     29. B(H  27,C   8)                  1.1141         0.329580   
     30. B(H  28,C   9)                  1.1113         0.332936   
     31. B(H  29,C   9)                  1.1115         0.332694   
     32. B(H  30,C  10)                  1.1118         0.332383   
     33. B(H  31,C  10)                  1.1115         0.332742   
     34. B(H  32,C  11)                  1.1117         0.332482   
     35. B(H  33,C  11)                  1.1067         0.338722   
     36. B(H  34,C  11)                  1.1115         0.332701   
     37. B(H  35,C  13)                  1.1099         0.334765   
     38. B(H  36,C  13)                  1.1115         0.332811   
     39. B(H  37,C  13)                  1.1085         0.336442   
     40. B(H  38,C  14)                  1.1110         0.333410   
     41. B(H  39,C  14)                  1.1097         0.334969   
     42. B(H  40,C  14)                  1.1114         0.332903   
     43. B(H  41,O  15)                  0.9937         0.459458   
     44. A(H  17,C   0,H  18)          107.7255         0.284087   
     45. A(H  16,C   0,H  17)          110.1455         0.284069   
     46. A(H  16,C   0,H  18)          107.2641         0.284107   
     47. A(C   1,C   0,H  17)          110.0315         0.323730   
     48. A(C   1,C   0,H  18)          111.5595         0.323777   
     49. A(C   1,C   0,H  16)          110.0517         0.323754   
     50. A(C   2,C   1,C  10)          121.2770         0.406990   
     51. A(C   0,C   1,C   2)          122.0394         0.406962   
     52. A(C   0,C   1,C  10)          116.6631         0.371510   
     53. A(C   1,C   2,C   7)          122.3530         0.398926   
     54. A(C   1,C   2,C   3)          121.4952         0.403832   
     55. A(C   3,C   2,C   7)          115.2477         0.361636   
     56. A(H  19,C   3,H  20)          105.2492         0.285770   
     57. A(C   2,C   3,C   4)          109.1639         0.360853   
     58. A(C   4,C   3,H  20)          110.0843         0.318530   
     59. A(C   4,C   3,H  19)          110.5339         0.317762   
     60. A(C   2,C   3,H  19)          108.9888         0.322052   
     61. A(C   2,C   3,H  20)          112.7662         0.322834   
     62. A(C   3,C   4,C  12)          114.0934         0.349711   
     63. A(C   5,C   4,C  12)          112.5749         0.348929   
     64. A(C  12,C   4,H  21)          106.6650         0.311128   
     65. A(C   3,C   4,C   5)          109.7566         0.355049   
     66. A(C   5,C   4,H  21)          106.3981         0.315676   
     67. A(C   3,C   4,H  21)          106.8476         0.316357   
     68. A(C   6,C   5,H  23)          109.4794         0.318571   
     69. A(H  22,C   5,H  23)          106.9065         0.284411   
     70. A(C   4,C   5,H  23)          110.9359         0.316959   
     71. A(C   6,C   5,H  22)          107.6254         0.317986   
     72. A(C   4,C   5,H  22)          109.7909         0.316378   
     73. A(C   4,C   5,C   6)          111.9227         0.356127   
     74. A(H  24,C   6,H  25)          106.8679         0.283547   
     75. A(C   7,C   6,H  25)          109.6092         0.314967   
     76. A(C   5,C   6,H  25)          107.7571         0.317831   
     77. A(C   7,C   6,H  24)          110.0005         0.314848   
     78. A(C   5,C   6,H  24)          108.5854         0.317711   
     79. A(C   5,C   6,C   7)          113.7694         0.354648   
     80. A(C   6,C   7,C   8)          108.9342         0.350662   
     81. A(C   2,C   7,C   8)          113.2410         0.353670   
     82. A(C   8,C   7,C  11)          106.7855         0.352287   
     83. A(C   2,C   7,C   6)          107.8967         0.354338   
     84. A(C   6,C   7,C  11)          109.9626         0.352952   
     85. A(C   2,C   7,C  11)          110.0035         0.355985   
     86. A(H  26,C   8,H  27)          106.1336         0.283170   
     87. A(C   7,C   8,H  27)          110.6248         0.313968   
     88. A(C   9,C   8,H  26)          109.1327         0.321439   
     89. A(C   7,C   8,H  26)          110.6878         0.314272   
     90. A(C   7,C   8,C   9)          112.5309         0.358307   
     91. A(C   9,C   8,H  27)          107.4787         0.321125   
     92. A(C   8,C   9,C  10)          108.7654         0.367154   
     93. A(H  28,C   9,H  29)          108.1480         0.283767   
     94. A(C  10,C   9,H  29)          109.3724         0.321854   
     95. A(C  10,C   9,H  28)          110.2699         0.321892   
     96. A(C   8,C   9,H  28)          110.8034         0.321658   
     97. A(C   8,C   9,H  29)          109.4635         0.321620   
     98. A(C   9,C  10,H  30)          109.9666         0.321804   
     99. A(C   1,C  10,H  30)          108.9614         0.323513   
    100. A(H  30,C  10,H  31)          107.8370         0.283700   
    101. A(C   1,C  10,C   9)          111.3964         0.369477   
    102. A(C   9,C  10,H  31)          108.1013         0.321861   
    103. A(C   1,C  10,H  31)          110.5107         0.323570   
    104. A(H  33,C  11,H  34)          107.5867         0.284529   
    105. A(H  32,C  11,H  34)          108.2615         0.283708   
    106. A(C   7,C  11,H  34)          110.2277         0.316421   
    107. A(H  32,C  11,H  33)          107.1028         0.284500   
    108. A(C   7,C  11,H  33)          113.0924         0.317346   
    109. A(C   7,C  11,H  32)          110.3902         0.316387   
    110. A(C  14,C  12,O  15)          108.1344         0.378451   
    111. A(C  13,C  12,O  15)          107.2092         0.379565   
    112. A(C   4,C  12,O  15)          109.5544         0.371713   
    113. A(C  13,C  12,C  14)          108.3615         0.357028   
    114. A(C   4,C  12,C  14)          110.9573         0.349785   
    115. A(C   4,C  12,C  13)          112.4630         0.350788   
    116. A(H  36,C  13,H  37)          107.2644         0.284245   
    117. A(H  35,C  13,H  37)          109.0925         0.284504   
    118. A(C  12,C  13,H  37)          111.3328         0.318481   
    119. A(H  35,C  13,H  36)          107.5151         0.284024   
    120. A(C  12,C  13,H  36)          109.8687         0.317918   
    121. A(C  12,C  13,H  35)          111.5992         0.318222   
    122. A(H  39,C  14,H  40)          107.5543         0.284063   
    123. A(H  38,C  14,H  40)          107.9111         0.283857   
    124. A(C  12,C  14,H  40)          110.0061         0.317055   
    125. A(H  38,C  14,H  39)          108.6952         0.284130   
    126. A(C  12,C  14,H  39)          111.7788         0.317375   
    127. A(C  12,C  14,H  38)          110.7620         0.317133   
    128. A(C  12,O  15,H  41)          107.9805         0.351835   
    129. D(C   2,C   1,C   0,H  16)     57.7888         0.011788   
    130. D(C   2,C   1,C   0,H  17)    -63.7657         0.011788   
    131. D(C   2,C   1,C   0,H  18)    176.7297         0.011788   
    132. D(C  10,C   1,C   0,H  16)   -120.5837         0.011788   
    133. D(C  10,C   1,C   0,H  17)    117.8618         0.011788   
    134. D(C   7,C   2,C   1,C  10)     -4.4620         0.031603   
    135. D(C   3,C   2,C   1,C   0)      8.6427         0.031603   
    136. D(C   7,C   2,C   1,C   0)    177.2398         0.031603   
    137. D(C   3,C   2,C   1,C  10)   -173.0591         0.031603   
    138. D(C   4,C   3,C   2,C   7)    -59.1991         0.010852   
    139. D(H  19,C   3,C   2,C   1)   -129.0232         0.010852   
    140. D(H  19,C   3,C   2,C   7)     61.6179         0.010852   
    141. D(H  20,C   3,C   2,C   1)    -12.5315         0.010852   
    142. D(C   4,C   3,C   2,C   1)    110.1598         0.010852   
    143. D(C   5,C   4,C   3,C   2)     57.3105         0.009941   
    144. D(C  12,C   4,C   3,H  20)    -51.0025         0.009941   
    145. D(C  12,C   4,C   3,C   2)   -175.2847         0.009941   
    146. D(C  12,C   4,C   3,H  19)     64.8466         0.009941   
    147. D(C   5,C   4,C   3,H  20)   -178.4072         0.009941   
    148. D(C   5,C   4,C   3,H  19)    -62.5582         0.009941   
    149. D(H  22,C   5,C   4,H  21)    -60.1800         0.009702   
    150. D(H  22,C   5,C   4,C  12)     56.3129         0.009702   
    151. D(H  22,C   5,C   4,C   3)   -175.4387         0.009702   
    152. D(C   6,C   5,C   4,H  21)     59.2727         0.009702   
    153. D(C   6,C   5,C   4,C  12)    175.7656         0.009702   
    154. D(C   6,C   5,C   4,C   3)    -55.9860         0.009702   
    155. D(H  24,C   6,C   5,C   4)    176.6713         0.010275   
    156. D(C   7,C   6,C   5,H  23)    -69.6047         0.010275   
    157. D(C   7,C   6,C   5,H  22)    174.5439         0.010275   
    158. D(H  24,C   6,C   5,H  22)    -62.6101         0.010275   
    159. D(C   7,C   6,C   5,C   4)     53.8253         0.010275   
    160. D(H  24,C   6,C   5,H  23)     53.2413         0.010275   
    161. D(C   8,C   7,C   6,H  24)     64.2069         0.009277   
    162. D(C   8,C   7,C   6,C   5)   -173.7260         0.009277   
    163. D(C   2,C   7,C   6,H  25)     70.2922         0.009277   
    164. D(C   2,C   7,C   6,C   5)    -50.4164         0.009277   
    165. D(C   2,C   7,C   6,H  24)   -172.4836         0.009277   
    166. D(C  11,C   7,C   2,C   1)    125.0911         0.009541   
    167. D(C   8,C   7,C   2,C   3)    174.9555         0.009541   
    168. D(C   8,C   7,C   2,C   1)      5.6975         0.009541   
    169. D(C   6,C   7,C   2,C   3)     54.3066         0.009541   
    170. D(C   8,C   7,C   6,H  25)    -53.0174         0.009277   
    171. D(C   6,C   7,C   2,C   1)   -114.9514         0.009541   
    172. D(H  26,C   8,C   7,C  11)     82.5289         0.009092   
    173. D(H  26,C   8,C   7,C   6)    -36.1875         0.009092   
    174. D(H  26,C   8,C   7,C   2)   -156.2464         0.009092   
    175. D(C   9,C   8,C   7,C  11)   -155.0624         0.009092   
    176. D(C   9,C   8,C   7,C   2)    -33.8378         0.009092   
    177. D(C   9,C   8,C   7,C   6)     86.2212         0.009092   
    178. D(H  28,C   9,C   8,H  26)     62.1250         0.011755   
    179. D(H  28,C   9,C   8,C   7)    -61.1562         0.011755   
    180. D(C  10,C   9,C   8,H  27)    -61.8263         0.011755   
    181. D(C  10,C   9,C   8,H  26)   -176.5096         0.011755   
    182. D(H  28,C   9,C   8,H  27)    176.8084         0.011755   
    183. D(C  10,C   9,C   8,C   7)     60.2092         0.011755   
    184. D(C   1,C  10,C   9,H  28)     64.0215         0.011854   
    185. D(C   1,C  10,C   9,C   8)    -57.6697         0.011854   
    186. D(H  31,C  10,C   1,C   0)    -30.5577         0.011797   
    187. D(H  30,C  10,C   1,C   2)    -90.6272         0.011797   
    188. D(H  30,C  10,C   1,C   0)     87.7586         0.011797   
    189. D(C   9,C  10,C   1,C   2)     30.8670         0.011797   
    190. D(C   1,C  10,C   9,H  29)   -177.1743         0.011854   
    191. D(C   9,C  10,C   1,C   0)   -150.7472         0.011797   
    192. D(H  30,C  10,C   9,H  29)    -56.2667         0.011854   
    193. D(H  30,C  10,C   9,H  28)   -175.0709         0.011854   
    194. D(H  30,C  10,C   9,C   8)     63.2379         0.011854   
    195. D(H  33,C  11,C   7,C   8)   -172.9819         0.009752   
    196. D(H  33,C  11,C   7,C   6)    -54.9376         0.009752   
    197. D(H  33,C  11,C   7,C   2)     63.7587         0.009752   
    198. D(H  32,C  11,C   7,C   8)    -53.0110         0.009752   
    199. D(H  32,C  11,C   7,C   6)     65.0333         0.009752   
    200. D(H  32,C  11,C   7,C   2)   -176.2704         0.009752   
    201. D(C  14,C  12,C   4,H  21)    -51.9253         0.008258   
    202. D(C  14,C  12,C   4,C   5)   -168.2587         0.008258   
    203. D(C  14,C  12,C   4,C   3)     65.8023         0.008258   
    204. D(C  13,C  12,C   4,H  21)   -173.4846         0.008258   
    205. D(C  13,C  12,C   4,C   5)     70.1820         0.008258   
    206. D(C  13,C  12,C   4,C   3)    -55.7570         0.008258   
    207. D(H  36,C  13,C  12,O  15)    -56.0817         0.010282   
    208. D(H  36,C  13,C  12,C  14)     60.4130         0.010282   
    209. D(H  36,C  13,C  12,C   4)   -176.5602         0.010282   
    210. D(H  35,C  13,C  12,O  15)   -175.2415         0.010282   
    211. D(H  35,C  13,C  12,C  14)    -58.7468         0.010282   
    212. D(H  35,C  13,C  12,C   4)     64.2800         0.010282   
    213. D(H  39,C  14,C  12,O  15)    169.0063         0.009964   
    214. D(H  39,C  14,C  12,C  13)     53.1108         0.009964   
    215. D(H  39,C  14,C  12,C   4)    -70.8225         0.009964   
    216. D(H  38,C  14,C  12,O  15)    -69.6204         0.009964   
    217. D(H  38,C  14,C  12,C  13)    174.4841         0.009964   
    218. D(H  38,C  14,C  12,C   4)     50.5508         0.009964   
    219. D(H  41,O  15,C  12,C  14)     61.4648         0.021550   
    220. D(H  41,O  15,C  12,C  13)    178.1093         0.021550   
    221. D(H  41,O  15,C  12,C   4)    -59.5815         0.021550   
    -----------------------------------------------------------------

Number of atoms                         .... 42
Number of degrees of freedom            .... 221


         *************************************************************
         *                GEOMETRY OPTIMIZATION CYCLE   1            *
         *************************************************************
---------------------------------
CARTESIAN COORDINATES (ANGSTROEM)
---------------------------------
  C      1.098541    1.832883    2.257020
  C      1.655169    1.008720    1.117559
  C      0.942599   -0.009944    0.541473
  C     -0.523970   -0.247905    0.882251
  C     -1.395657    0.119614   -0.341387
  C     -0.951222   -0.713846   -1.570697
  C      0.548501   -0.531135   -1.878321
  C      1.477756   -0.814651   -0.661676
  C      2.943355   -0.444357   -1.047009
  C      3.254360    1.027151   -0.811596
  C      3.059918    1.338316    0.664605
  C      1.470643   -2.328690   -0.332073
  C     -2.945339    0.028273   -0.077385
  C     -3.375124   -1.361797    0.432390
  C     -3.393448    1.086504    0.957260
  O     -3.643257    0.266049   -1.278422
  H      0.833849    1.173236    3.110200
  H      0.203868    2.396400    1.917317
  H      1.841362    2.569874    2.628396
  H     -0.662922   -1.312742    1.152352
  H     -0.854404    0.321537    1.767566
  H     -1.175407    1.184437   -0.586834
  H     -1.520491   -0.392254   -2.468933
  H     -1.168947   -1.789575   -1.419334
  H      0.819872   -1.196488   -2.727552
  H      0.698313    0.514006   -2.226692
  H      3.144569   -0.693664   -2.112362
  H      3.669221   -1.039896   -0.447269
  H      2.596309    1.673712   -1.431294
  H      4.309032    1.232905   -1.095974
  H      3.782653    0.753465    1.274284
  H      3.276704    2.417113    0.821613
  H      1.917309   -2.909257   -1.168348
  H      0.453786   -2.731329   -0.163017
  H      2.066461   -2.525056    0.585515
  H     -2.930944   -1.588650    1.423868
  H     -4.480288   -1.397822    0.544820
  H     -3.091074   -2.159295   -0.283209
  H     -3.017125    2.093920    0.678454
  H     -3.033557    0.842356    1.978185
  H     -4.503116    1.134714    0.995616
  H     -3.397856    1.173171   -1.601363

----------------------------
CARTESIAN COORDINATES (A.U.)
----------------------------
  NO LB      ZA    FRAG     MASS         X           Y           Z
   0 C     4.0000*   0    12.011    2.075942    3.463647    4.265150
   1 C     4.0000*   0    12.011    3.127816    1.906205    2.111880
   2 C     4.0000*   0    12.011    1.781254   -0.018791    1.023236
   3 C     4.0000*   0    12.011   -0.990160   -0.468473    1.667213
   4 C     4.0000*   0    12.011   -2.637410    0.226038   -0.645128
   5 C     4.0000*   0    12.011   -1.797549   -1.348973   -2.968187
   6 C     4.0000*   0    12.011    1.036517   -1.003700   -3.549512
   7 C     4.0000*   0    12.011    2.792554   -1.539467   -1.250386
   8 C     4.0000*   0    12.011    5.562135   -0.839713   -1.978560
   9 C     4.0000*   0    12.011    6.149849    1.941034   -1.533694
  10 C     4.0000*   0    12.011    5.782407    2.529051    1.255921
  11 C     4.0000*   0    12.011    2.779113   -4.400586   -0.627527
  12 C     4.0000*   0    12.011   -5.565884    0.053428   -0.146236
  13 C     4.0000*   0    12.011   -6.378060   -2.573423    0.817099
  14 C     4.0000*   0    12.011   -6.412687    2.053195    1.808959
  15 O     6.0000*   0    15.999   -6.884758    0.502760   -2.415867
  16 H     1.0000    0     1.008    1.575746    2.217095    5.877426
  17 H     1.0000    0     1.008    0.385255    4.528540    3.623204
  18 H     1.0000    0     1.008    3.479670    4.856358    4.966949
  19 H     1.0000    0     1.008   -1.252741   -2.480723    2.177630
  20 H     1.0000    0     1.008   -1.614590    0.607617    3.340216
  21 H     1.0000    0     1.008   -2.221197    2.238262   -1.108956
  22 H     1.0000    0     1.008   -2.873312   -0.741253   -4.665607
  23 H     1.0000    0     1.008   -2.208990   -3.381807   -2.682153
  24 H     1.0000    0     1.008    1.549334   -2.261035   -5.154326
  25 H     1.0000    0     1.008    1.319620    0.971331   -4.207838
  26 H     1.0000    0     1.008    5.942374   -1.310835   -3.991786
  27 H     1.0000    0     1.008    6.933823   -1.965119   -0.845216
  28 H     1.0000    0     1.008    4.906313    3.162857   -2.704754
  29 H     1.0000    0     1.008    8.142890    2.329853   -2.071091
  30 H     1.0000    0     1.008    7.148178    1.423843    2.408048
  31 H     1.0000    0     1.008    6.192073    4.567682    1.552624
  32 H     1.0000    0     1.008    3.623189   -5.497699   -2.207858
  33 H     1.0000    0     1.008    0.857531   -5.161464   -0.308057
  34 H     1.0000    0     1.008    3.905045   -4.771664    1.106463
  35 H     1.0000    0     1.008   -5.538681   -3.002113    2.690721
  36 H     1.0000    0     1.008   -8.466517   -2.641501    1.029561
  37 H     1.0000    0     1.008   -5.841283   -4.080476   -0.535187
  38 H     1.0000    0     1.008   -5.701540    3.956935    1.282092
  39 H     1.0000    0     1.008   -5.732592    1.591822    3.738228
  40 H     1.0000    0     1.008   -8.509656    2.144299    1.881442
  41 H     1.0000    0     1.008   -6.421017    2.216972   -3.026138
* core charge reduced due to ECP

--------------------------------
INTERNAL COORDINATES (ANGSTROEM)
--------------------------------
 C      0   0   0     0.000000000000     0.00000000     0.00000000
 C      1   0   0     1.512432065077     0.00000000     0.00000000
 C      2   1   0     1.370148688717   122.03937633     0.00000000
 C      3   2   1     1.524329267109   121.49515842     8.64272569
 C      4   3   2     1.546673332147   109.16387557   110.15979422
 C      5   4   3     1.550284205210   109.75657050    57.31052890
 C      6   5   4     1.541812216720   111.92272021   304.01401666
 C      3   2   1     1.543215437552   122.35302101   177.23980353
 C      8   3   2     1.559993460283   113.24097762     5.69748245
 C      9   8   3     1.522326898093   112.53088431   326.16220895
 C      2   1   3     1.512322916025   116.66311465   181.62751088
 C      8   3   2     1.549516965347   110.00351768   125.09110789
 C      5   4   3     1.574660133301   114.09336591   184.71525801
 C     13   5   4     1.541713430489   112.46299453   304.24296972
 C     13   5   4     1.546332694237   110.95734569    65.80226481
 O     13   5   4     1.409296574987   109.55435625   185.12541696
 H      1   2   3     1.110455821666   110.05172775    57.78883817
 H      1   2   3     1.110580620409   110.03151048   296.23429866
 H      1   2   3     1.110341796700   111.55951470   176.72970280
 H      4   3   2     1.107312081156   108.98878820   230.97680944
 H      4   3   2     1.103283041175   112.76616562   347.46846229
 H      5   4   3     1.114720733475   106.84755073   302.33801580
 H      6   5   4     1.110997984031   109.79094299   184.56127302
 H      6   5   4     1.107929517088   110.93589858    66.61897371
 H      7   6   5     1.112443313437   108.58539622   176.67128196
 H      7   6   5     1.111811899049   107.75710973   292.08344831
 H      9   8   3     1.112482839712   110.68779833   203.75357094
 H      9   8   3     1.114107812591   110.62476932    86.39888157
 H     10   9   8     1.111349565405   110.80341806   298.84382748
 H     10   9   8     1.111547832072   109.46347263   179.65705051
 H     11   2   1     1.111802615336   108.96138415    87.75856068
 H     11   2   1     1.111508276653   110.51074581   329.44230052
 H     12   8   3     1.111721382663   110.39021078   183.72961104
 H     12   8   3     1.106659954054   113.09238250    63.75869680
 H     12   8   3     1.111542366635   110.22771558   303.28328250
 H     14  13   5     1.109858901164   111.59921403    64.28004570
 H     14  13   5     1.111452100822   109.86870973   183.43984974
 H     14  13   5     1.108498710556   111.33279885   302.11941542
 H     15  13   5     1.110962998043   110.76201214    50.55080683
 H     15  13   5     1.109692585093   111.77876516   289.17751039
 H     15  13   5     1.111376829460   110.00613136   169.76329167
 H     16  13   5     0.993671406032   107.98045469   300.41845032

---------------------------
INTERNAL COORDINATES (A.U.)
---------------------------
 C      0   0   0     0.000000000000     0.00000000     0.00000000
 C      1   0   0     2.858082399157     0.00000000     0.00000000
 C      2   1   0     2.589205784426   122.03937633     0.00000000
 C      3   2   1     2.880564852757   121.49515842     8.64272569
 C      4   3   2     2.922789016397   109.16387557   110.15979422
 C      5   4   3     2.929612577592   109.75657050    57.31052890
 C      6   5   4     2.913602839534   111.92272021   304.01401666
 C      3   2   1     2.916254542613   122.35302101   177.23980353
 C      8   3   2     2.947960410643   113.24097762     5.69748245
 C      9   8   3     2.876780923698   112.53088431   326.16220895
 C      2   1   3     2.857876137340   116.66311465   181.62751088
 C      8   3   2     2.928162704371   110.00351768   125.09110789
 C      5   4   3     2.975676405944   114.09336591   184.71525801
 C     13   5   4     2.913416160612   112.46299453   304.24296972
 C     13   5   4     2.922145304037   110.95734569    65.80226481
 O     13   5   4     2.663184568198   109.55435625   185.12541696
 H      1   2   3     2.098457386768   110.05172775    57.78883817
 H      1   2   3     2.098693222212   110.03151048   296.23429866
 H      1   2   3     2.098241910808   111.55951470   176.72970280
 H      4   3   2     2.092516578167   108.98878820   230.97680944
 H      4   3   2     2.084902796021   112.76616562   347.46846229
 H      5   4   3     2.106516902071   106.84755073   302.33801580
 H      6   5   4     2.099481925157   109.79094299   184.56127302
 H      6   5   4     2.093683362984   110.93589858    66.61897371
 H      7   6   5     2.102213201908   108.58539622   176.67128196
 H      7   6   5     2.101020001637   107.75710973   292.08344831
 H      9   8   3     2.102287895743   110.68779833   203.75357094
 H      9   8   3     2.105358649460   110.62476932    86.39888157
 H     10   9   8     2.100146317668   110.80341806   298.84382748
 H     10   9   8     2.100520987370   109.46347263   179.65705051
 H     11   2   1     2.101002457962   108.96138415    87.75856068
 H     11   2   1     2.100446238462   110.51074581   329.44230052
 H     12   8   3     2.100848950457   110.39021078   183.72961104
 H     12   8   3     2.091284236539   113.09238250    63.75869680
 H     12   8   3     2.100510659190   110.22771558   303.28328250
 H     14  13   5     2.097329370495   111.59921403    64.28004570
 H     14  13   5     2.100340081524   109.86870973   183.43984974
 H     14  13   5     2.094758982756   111.33279885   302.11941542
 H     15  13   5     2.099415811222   110.76201214    50.55080683
 H     15  13   5     2.097015078669   111.77876516   289.17751039
 H     15  13   5     2.100197839265   110.00613136   169.76329167
 H     16  13   5     1.877766824509   107.98045469   300.41845032

---------------------
BASIS SET INFORMATION
---------------------
There are 3 groups of distinct atoms

 Group   1 Type C   : 6s6p2d contracted to 2s2p1d pattern {42/42/2}
 Group   2 Type O   : 6s6p2d contracted to 2s2p1d pattern {42/42/2}
 Group   3 Type H   : 8s2p contracted to 2s1p pattern {53/2}

Atom   0C    basis set group =>   1
Atom   1C    basis set group =>   1
Atom   2C    basis set group =>   1
Atom   3C    basis set group =>   1
Atom   4C    basis set group =>   1
Atom   5C    basis set group =>   1
Atom   6C    basis set group =>   1
Atom   7C    basis set group =>   1
Atom   8C    basis set group =>   1
Atom   9C    basis set group =>   1
Atom  10C    basis set group =>   1
Atom  11C    basis set group =>   1
Atom  12C    basis set group =>   1
Atom  13C    basis set group =>   1
Atom  14C    basis set group =>   1
Atom  15O    basis set group =>   2
Atom  16H    basis set group =>   3
Atom  17H    basis set group =>   3
Atom  18H    basis set group =>   3
Atom  19H    basis set group =>   3
Atom  20H    basis set group =>   3
Atom  21H    basis set group =>   3
Atom  22H    basis set group =>   3
Atom  23H    basis set group =>   3
Atom  24H    basis set group =>   3
Atom  25H    basis set group =>   3
Atom  26H    basis set group =>   3
Atom  27H    basis set group =>   3
Atom  28H    basis set group =>   3
Atom  29H    basis set group =>   3
Atom  30H    basis set group =>   3
Atom  31H    basis set group =>   3
Atom  32H    basis set group =>   3
Atom  33H    basis set group =>   3
Atom  34H    basis set group =>   3
Atom  35H    basis set group =>   3
Atom  36H    basis set group =>   3
Atom  37H    basis set group =>   3
Atom  38H    basis set group =>   3
Atom  39H    basis set group =>   3
Atom  40H    basis set group =>   3
Atom  41H    basis set group =>   3
---------------------------------
AUXILIARY/J BASIS SET INFORMATION
---------------------------------
There are 3 groups of distinct atoms

 Group   1 Type C   : 12s5p4d2f1g contracted to 6s4p3d1f1g pattern {711111/2111/211/2/1}
 Group   2 Type O   : 12s5p4d2f1g contracted to 6s4p3d1f1g pattern {711111/2111/211/2/1}
 Group   3 Type H   : 5s2p1d contracted to 3s1p1d pattern {311/2/1}

Atom   0C    basis set group =>   1
Atom   1C    basis set group =>   1
Atom   2C    basis set group =>   1
Atom   3C    basis set group =>   1
Atom   4C    basis set group =>   1
Atom   5C    basis set group =>   1
Atom   6C    basis set group =>   1
Atom   7C    basis set group =>   1
Atom   8C    basis set group =>   1
Atom   9C    basis set group =>   1
Atom  10C    basis set group =>   1
Atom  11C    basis set group =>   1
Atom  12C    basis set group =>   1
Atom  13C    basis set group =>   1
Atom  14C    basis set group =>   1
Atom  15O    basis set group =>   2
Atom  16H    basis set group =>   3
Atom  17H    basis set group =>   3
Atom  18H    basis set group =>   3
Atom  19H    basis set group =>   3
Atom  20H    basis set group =>   3
Atom  21H    basis set group =>   3
Atom  22H    basis set group =>   3
Atom  23H    basis set group =>   3
Atom  24H    basis set group =>   3
Atom  25H    basis set group =>   3
Atom  26H    basis set group =>   3
Atom  27H    basis set group =>   3
Atom  28H    basis set group =>   3
Atom  29H    basis set group =>   3
Atom  30H    basis set group =>   3
Atom  31H    basis set group =>   3
Atom  32H    basis set group =>   3
Atom  33H    basis set group =>   3
Atom  34H    basis set group =>   3
Atom  35H    basis set group =>   3
Atom  36H    basis set group =>   3
Atom  37H    basis set group =>   3
Atom  38H    basis set group =>   3
Atom  39H    basis set group =>   3
Atom  40H    basis set group =>   3
Atom  41H    basis set group =>   3
-------------------------
ECP PARAMETER INFORMATION
-------------------------

 Group 1, Type C  ECP vDZP-ECP (replacing 2 core electrons, lmax=3)
 Group 2, Type O  ECP vDZP-ECP (replacing 2 core electrons, lmax=3)

Atom   0C    ECP group =>   1
Atom   1C    ECP group =>   1
Atom   2C    ECP group =>   1
Atom   3C    ECP group =>   1
Atom   4C    ECP group =>   1
Atom   5C    ECP group =>   1
Atom   6C    ECP group =>   1
Atom   7C    ECP group =>   1
Atom   8C    ECP group =>   1
Atom   9C    ECP group =>   1
Atom  10C    ECP group =>   1
Atom  11C    ECP group =>   1
Atom  12C    ECP group =>   1
Atom  13C    ECP group =>   1
Atom  14C    ECP group =>   1
Atom  15O    ECP group =>   2



           ************************************************************
           *        Program running with 40 parallel MPI-processes    *
           *              working on a common directory               *
           ************************************************************
------------------------------------------------------------------------------
                             ORCA STARTUP CALCULATIONS
                           -- RI-GTO INTEGRALS CHOSEN --
------------------------------------------------------------------------------
------------------------------------------------------------------------------
                   ___                                                        
                  /   \      - P O W E R E D   B Y -                         
                 /     \                                                     
                 |  |  |   _    _      __       _____    __    __             
                 |  |  |  | |  | |    /  \     |  _  \  |  |  /  |          
                  \  \/   | |  | |   /    \    | | | |  |  | /  /          
                 / \  \   | |__| |  /  /\  \   | |_| |  |  |/  /          
                |  |  |   |  __  | /  /__\  \  |    /   |      \           
                |  |  |   | |  | | |   __   |  |    \   |  |\   \          
                \     /   | |  | | |  |  |  |  | |\  \  |  | \   \       
                 \___/    |_|  |_| |__|  |__|  |_| \__\ |__|  \__/        
                                                                              
                      - O R C A' S   B I G   F R I E N D -                    
                                      &                                       
                       - I N T E G R A L  F E E D E R -                       
                                                                              
 v1 FN, 2020, v2 2021, v3 2022-2024                                           
------------------------------------------------------------------------------


----------------------
SHARK INTEGRAL PACKAGE
----------------------

Number of atoms                             ...     42
Number of basis functions                   ...    338
Number of shells                            ...    158
Maximum angular momentum                    ...      2
Integral batch strategy                     ... SHARK/LIBINT Hybrid
RI-J (if used) integral strategy            ... SPLIT-RIJ (Revised 2003 algorithm where possible)
Printlevel                                  ...      1
Contraction scheme used                     ... SEGMENTED contraction
Prescreening option                         ... SCHWARTZ
   Thresh                                   ... 2.500e-11
   Tcut                                     ... 2.500e-12
   Tpresel                                  ... 2.500e-12 
Coulomb Range Separation                    ... NOT USED
Exchange Range Separation                   ... Long Range
   Mu parameter                             ... 3.000e-01
   Scaling (regular/separated)              ... 1.670e-01 8.330e-01
Multipole approximations                    ... NOT USED
Finite Nucleus Model                        ... NOT USED
CABS basis                                  ... NOT available
Auxiliary Coulomb fitting basis             ... AVAILABLE
   # of basis functions in Aux-J            ...   1070
   # of shells in Aux-J                     ...    370
   Maximum angular momentum in Aux-J        ...      4
Auxiliary J/K fitting basis                 ... NOT available
Auxiliary Correlation fitting basis         ... NOT available
Auxiliary 'external' fitting basis          ... NOT available

Checking pre-screening integrals            ... done (  0.0 sec) Dimension = 158
Check shell pair data                       ... done (  0.0 sec)
Shell pair information
Shell pair cut-off parameter TPreSel        ...   2.5e-12
Total number of shell pairs                 ...     12561
Shell pairs after pre-screening             ...     12425
Total number of primitive shell pairs       ...    117974
Primitive shell pairs kept                  ...     88772
          la=0 lb=0:   3555 shell pairs
          la=1 lb=0:   4818 shell pairs
          la=1 lb=1:   1663 shell pairs
          la=2 lb=0:   1338 shell pairs
          la=2 lb=1:    915 shell pairs
          la=2 lb=2:    136 shell pairs

Calculating one electron integrals          ... done (  0.2 sec)
Calculating ECP integrals                   ... done (  0.2 sec)
Calculating RI/J V-Matrix + Cholesky decomp.... done (  0.3 sec)
Calculating Nuclear repulsion               ... done (  0.0 sec) ENN=    666.666907741055 Eh

Diagonalization of the overlap matrix:
Smallest eigenvalue                        ... 7.378e-04
Time for diagonalization                   ...    0.017 sec
Threshold for overlap eigenvalues          ... 1.000e-07
Number of eigenvalues below threshold      ... 0
Time for construction of square roots      ...    0.012 sec
Total time needed                          ...    0.033 sec

-------------------
DFT GRID GENERATION
-------------------

General Integration Accuracy     IntAcc      ... 4.388
Radial Grid Type                 RadialGrid  ... OptM3 with GC (2021)
Angular Grid (max. ang.)         AngularGrid ... 4 (Lebedev-302)
Angular grid pruning method      GridPruning ... 4 (adaptive)
Weight generation scheme         WeightScheme... mBecke (2022)
Basis function cutoff            BFCut       ... 1.0000e-11
Integration weight cutoff        WCut        ... 1.0000e-14
Partially contracted basis set               ... off
Rotationally invariant grid construction     ... off
Angular grids for H and He will be reduced by one unit

Total number of grid points                  ...   176692
Total number of batches                      ...     2782
Average number of points per batch           ...       63
Average number of grid points per atom       ...     4207

--------------------
COSX GRID GENERATION
--------------------

GRIDX 1
-------
General Integration Accuracy     IntAcc      ... 3.816
Radial Grid Type                 RadialGrid  ... OptM3 with GC (2021)
Angular Grid (max. ang.)         AngularGrid ... 1 (Lebedev-50)
Angular grid pruning method      GridPruning ... 4 (adaptive)
Weight generation scheme         WeightScheme... mBecke (2022)
Basis function cutoff            BFCut       ... 1.0000e-11
Integration weight cutoff        WCut        ... 1.0000e-14
Partially contracted basis set               ... on
Rotationally invariant grid construction     ... off
Angular grids for H and He will be reduced by one unit

Total number of grid points                  ...    22538
Total number of batches                      ...      201
Average number of points per batch           ...      112
Average number of grid points per atom       ...      537
UseSFitting                                  ... on

GRIDX 2
-------
General Integration Accuracy     IntAcc      ... 4.020
Radial Grid Type                 RadialGrid  ... OptM3 with GC (2021)
Angular Grid (max. ang.)         AngularGrid ... 2 (Lebedev-110)
Angular grid pruning method      GridPruning ... 4 (adaptive)
Weight generation scheme         WeightScheme... mBecke (2022)
Basis function cutoff            BFCut       ... 1.0000e-11
Integration weight cutoff        WCut        ... 1.0000e-14
Partially contracted basis set               ... on
Rotationally invariant grid construction     ... off
Angular grids for H and He will be reduced by one unit

Total number of grid points                  ...    46421
Total number of batches                      ...      386
Average number of points per batch           ...      120
Average number of grid points per atom       ...     1105
UseSFitting                                  ... on

GRIDX 3
-------
General Integration Accuracy     IntAcc      ... 4.338
Radial Grid Type                 RadialGrid  ... OptM3 with GC (2021)
Angular Grid (max. ang.)         AngularGrid ... 3 (Lebedev-194)
Angular grid pruning method      GridPruning ... 4 (adaptive)
Weight generation scheme         WeightScheme... mBecke (2022)
Basis function cutoff            BFCut       ... 1.0000e-11
Integration weight cutoff        WCut        ... 1.0000e-14
Partially contracted basis set               ... on
Rotationally invariant grid construction     ... off
Angular grids for H and He will be reduced by one unit

Total number of grid points                  ...   100719
Total number of batches                      ...      808
Average number of points per batch           ...      124
Average number of grid points per atom       ...     2398
UseSFitting                                  ... on
Initializing property integral containers    ... done (  0.0 sec)

SHARK setup successfully completed in   7.1 seconds

Maximum memory used throughout the entire STARTUP-calculation: 58.9 MB


           ************************************************************
           *        Program running with 40 parallel MPI-processes    *
           *              working on a common directory               *
           ************************************************************
-------------------------------------------------------------------------------
                                 ORCA GUESS
                   Start orbitals & Density for SCF / CASSCF
-------------------------------------------------------------------------------

------------
SCF SETTINGS
------------
Hamiltonian:
 Density Functional     Method          .... DFT(GTOs)
 Exchange Functional    Exchange        .... WB97X-V
 Correlation Functional Correlation     .... WB97X-V
 Gradients option       PostSCFGGA      .... off
 Hybrid DFT is turned on
   Fraction HF Exchange ScalHFX         ....  0.167000
   Scaling of DF-GGA-X  ScalDFX         ....  0.000000
   Scaling of DF-GGA-C  ScalDFC         ....  1.000000
   Scaling of DF-LDA-C  ScalLDAC        ....  1.000000
   Perturbative correction              ....  0.000000
 Long-range corrected/Screened/Range-Separated Hybrid DFT is turned on
   Amount of maximum screened exact exchange              ....  0.833000
   Range separation parameter mu (erf(mu*r12)/r12)        ....  0.300000
   NL short-range parameter             ....  6.000000
   NL long-range parameter              ....  0.010000
 RI-approximation to the Coulomb term is turned on
   Number of AuxJ basis functions       .... 1070
   RIJ-COSX (HFX calculated with COS-X)).... on


General Settings:
 Integral files         IntName         .... ./output/10_epi_gamma_eudesmol/10_epi_gamma_eudesmol
 Hartree-Fock type      HFTyp           .... RHF
 Total Charge           Charge          ....    0
 Multiplicity           Mult            ....    1
 Number of Electrons    NEL             ....   92
 Basis Dimension        Dim             ....  338
 Nuclear Repulsion      ENuc            ....    666.6669077411 Eh

Convergence Acceleration:
 AO-DIIS                CNVDIIS         .... on
   Start iteration      DIISMaxIt       ....    12
   Startup error        DIISStart       ....  0.200000
   # of expansion vecs  DIISMaxEq       ....     5
   Bias factor          DIISBfac        ....   1.050
   Max. coefficient     DIISMaxC        ....  10.000
 MO-DIIS                CNVKDIIS        .... off
 Trust-Rad. Augm. Hess. CNVTRAH         .... auto
   Auto Start mean grad. ratio tolernc. ....  1.125000
   Auto Start start iteration           ....    50
   Auto Start num. interpolation iter.  ....    10
   Max. Number of Micro iterations      ....    24
   Max. Number of Macro iterations      .... Maxiter - #DIIS iter
   Number of Davidson start vectors     ....     2
   Converg. threshold    (grad. norm)   ....   1.000e-05
   Grad. Scal. Fac. for Micro threshold ....   0.100
   Minimum threshold for Micro iter.    ....   1.000e-02
   NR start threshold (gradient norm)   ....   1.000e-04
   Initial trust radius                 ....   0.400
   Minimum AH scaling param. (alpha)    ....   1.000
   Maximum AH scaling param. (alpha)    .... 1000.000
   Quad. conv. algorithm                .... NR
   White noise on init. David. guess    .... on
   Maximum white noise                  ....   0.010
   Pseudo random numbers                .... off
   Inactive MOs                         .... canonical
   Orbital update algorithm             .... Taylor
   Preconditioner                       .... Diag
   Full preconditioner red. dimension   ....   250
 SOSCF                  CNVSOSCF        .... on
   Start iteration      SOSCFMaxIt      ....   150
   Startup grad/error   SOSCFStart      ....  0.003300
   Hessian update       SOSCFHessUp     .... L-BFGS
 Level Shifting         CNVShift        .... on
   Level shift para.    LevelShift      ....    0.2500
   Turn off err/grad.   ShiftErr        ....    0.0010
 Zerner damping         CNVZerner       .... off
 Static damping         CNVDamp         .... on
   Fraction old density DampFac         ....    0.7000
   Max. Damping (<1)    DampMax         ....    0.9800
   Min. Damping (>=0)   DampMin         ....    0.0000
   Turn off err/grad.   DampErr         ....    0.1000

SCF Procedure:
 Maximum # iterations   MaxIter         ....   125
 SCF integral mode      SCFMode         .... Direct
   Integral package                     .... SHARK and LIBINT hybrid scheme
 Reset frequency        DirectResetFreq ....    20
 Integral Threshold     Thresh          ....  2.500e-11 Eh
 Primitive CutOff       TCut            ....  2.500e-12 Eh

Convergence Tolerance:
 Convergence Check Mode ConvCheckMode   .... Total+1el-Energy
 Convergence forced     ConvForced      .... 0
 Energy Change          TolE            ....  1.000e-08 Eh
 1-El. energy change                    ....  1.000e-05 Eh
 Orbital Gradient       TolG            ....  1.000e-05
 Orbital Rotation angle TolX            ....  1.000e-05
 DIIS Error             TolErr          ....  5.000e-07

------------------------------
INITIAL GUESS: MODEL POTENTIAL
------------------------------
Loading Hartree-Fock densities                     ... done
Atomic calculation to generate a density for atom 0 (C  with ECP)
  Multiplicity assumed   :    1
  Atomic configuration   : 1s2 2s2 2p2 
  Number of open shells  : 1
  Command: /home/aspe232/Project/Software/ORCA/6_0_1/build/orca ./output/10_epi_gamma_eudesmol/10_epi_gamma_eudesmol_atom6.inp "" > ./output/10_epi_gamma_eudesmol/10_epi_gamma_eudesmol_atom6.out
Returned from the atomic calculation with res=0
Atomic calculation to generate a density for atom 15 (O  with ECP)
  Multiplicity assumed   :    3
  Atomic configuration   : 1s2 2s2 2p4 
  Number of open shells  : 1
  Command: /home/aspe232/Project/Software/ORCA/6_0_1/build/orca ./output/10_epi_gamma_eudesmol/10_epi_gamma_eudesmol_atom8.inp "" > ./output/10_epi_gamma_eudesmol/10_epi_gamma_eudesmol_atom8.out
Returned from the atomic calculation with res=0
Calculating cut-offs                               ... done
Initializing the effective Hamiltonian             ... done
Setting up the integral package (SHARK)            ... done
Starting the Coulomb interaction                   ... done (   0.3 sec)
Making the grid                                    ... done (   1.1 sec)
Mapping shells                                     ... done
Starting the XC term evaluation                    ... done (   0.1 sec)
  promolecular density results
     # of electrons  =    123.985420529
     EX              =    -61.367969483
     EC              =     -4.997633445
     EX+EC           =    -66.365602928
Transforming the Hamiltonian                       ... done (   0.1 sec)
Diagonalizing the Hamiltonian                      ... done (   0.0 sec)
Back transforming the eigenvectors                 ... done (   0.0 sec)
Now organizing SCF variables                       ... done
                      ------------------
                      INITIAL GUESS DONE (   4.2 sec)
                      ------------------
             **** ENERGY FILE WAS UPDATED (./output/10_epi_gamma_eudesmol/10_epi_gamma_eudesmol.en.tmp) ****
Finished Guess after   5.2 sec
Maximum memory used throughout the entire GUESS-calculation: 39.1 MB


           ************************************************************
           *        Program running with 40 parallel MPI-processes    *
           *              working on a common directory               *
           ************************************************************

-------------------------------------------------------------------------------------------
                                      ORCA LEAN-SCF
                              memory conserving SCF solver
-------------------------------------------------------------------------------------------

----------------------------------------D-I-I-S--------------------------------------------
Iteration    Energy (Eh)           Delta-E    RMSDP     MaxDP     DIISErr   Damp  Time(sec)
-------------------------------------------------------------------------------------------
               ***  Starting incremental Fock matrix formation  ***
    1    -116.4452487276499824     0.00e+00  3.35e-03  7.95e-02  2.18e-01  0.700  10.5
    2    -116.7410211797860029    -2.96e-01  2.43e-03  5.68e-02  1.25e-01  0.700   7.1
                               ***Turning on AO-DIIS***
    3    -116.8922355476616985    -1.51e-01  1.27e-03  3.00e-02  6.21e-02  0.700   6.9
    4    -116.9811128578605803    -8.89e-02  2.75e-03  6.31e-02  4.22e-02  0.000   6.6
    5    -117.1682891651631735    -1.87e-01  2.06e-04  4.28e-03  4.97e-03  0.000   7.0
                              *** Initializing SOSCF ***
---------------------------------------S-O-S-C-F--------------------------------------
Iteration    Energy (Eh)           Delta-E    RMSDP     MaxDP     MaxGrad    Time(sec)
--------------------------------------------------------------------------------------
    6    -117.1687938695852154    -5.05e-04  1.00e-04  2.92e-03  2.42e-03     7.2
               *** Restarting incremental Fock matrix formation ***
    7    -117.1689484844697517    -1.55e-04  5.98e-05  1.44e-03  3.16e-04     9.9
    8    -117.1689610913199431    -1.26e-05  3.22e-05  8.19e-04  2.66e-04     8.9
    9    -117.1689664974356901    -5.41e-06  8.41e-06  1.40e-04  5.97e-05     8.1
   10    -117.1689666667130041    -1.69e-07  2.20e-06  7.24e-05  1.07e-05     7.8
   11    -117.1689666801801195    -1.35e-08  9.69e-07  4.29e-05  5.34e-06     6.6
   12    -117.1689666994437857    -1.93e-08  2.64e-07  1.33e-05  1.72e-06     6.5
                  *** Gradient check signals convergence ***

               *****************************************************
               *                     SUCCESS                       *
               *           SCF CONVERGED AFTER  12 CYCLES          *
               *****************************************************

Recomputing exchange energy using gridx3       ... done (   11.570 sec)
Old exchange energy                            :    -17.590674206 Eh
New exchange energy                            :    -17.590690498 Eh
Exchange energy change after final integration :     -0.000016292 Eh
Total energy after final integration           :   -117.168982991 Eh
             **** ENERGY FILE WAS UPDATED (./output/10_epi_gamma_eudesmol/10_epi_gamma_eudesmol.en.tmp) ****

----------------
TOTAL SCF ENERGY
----------------

Total Energy       :       -117.16898299144830 Eh           -3188.33012 eV

Components:
Nuclear Repulsion  :        666.66690774105530 Eh           18140.92883 eV
Electronic Energy  :       -783.83587444049908 Eh          -21329.25850 eV
One Electron Energy:      -1499.81473967777470 Eh          -40812.03391 eV
Two Electron Energy:        715.97886523727561 Eh           19482.77541 eV

Virial components:
Potential Energy   :       -208.73377831698761 Eh           -5679.93487 eV
Kinetic Energy     :         91.56479532553931 Eh            2491.60475 eV
Virial Ratio       :          2.27962916943001

DFT components:
N(Alpha)           :       45.999881182887 electrons
N(Beta)            :       45.999881182887 electrons
N(Total)           :       91.999762365775 electrons
E(X)               :      -18.340726897336 Eh       
E(C)               :       -3.465485031127 Eh       
E(XC)              :      -21.806211928463 Eh       

---------------
SCF CONVERGENCE
---------------

  Last Energy change         ...    1.9264e-08  Tolerance :   1.0000e-08
  Last MAX-Density change    ...    1.3269e-05  Tolerance :   1.0000e-07
  Last RMS-Density change    ...    2.6358e-07  Tolerance :   5.0000e-09
  Last DIIS Error            ...    2.4238e-03  Tolerance :   5.0000e-07
  Last Orbital Gradient      ...    1.7203e-06  Tolerance :   1.0000e-05
  Last Orbital Rotation      ...    3.2152e-06  Tolerance :   1.0000e-05


----------------
ORBITAL ENERGIES
----------------

  NO   OCC          E(Eh)            E(eV) 
   0   2.0000      -1.146454       -31.1966 
   1   2.0000      -0.994968       -27.0745 
   2   2.0000      -0.946745       -25.7622 
   3   2.0000      -0.923252       -25.1230 
   4   2.0000      -0.900631       -24.5074 
   5   2.0000      -0.873343       -23.7649 
   6   2.0000      -0.852600       -23.2004 
   7   2.0000      -0.819077       -22.2882 
   8   2.0000      -0.805998       -21.9323 
   9   2.0000      -0.804696       -21.8969 
  10   2.0000      -0.757507       -20.6128 
  11   2.0000      -0.730122       -19.8676 
  12   2.0000      -0.705218       -19.1899 
  13   2.0000      -0.685557       -18.6550 
  14   2.0000      -0.674774       -18.3615 
  15   2.0000      -0.617484       -16.8026 
  16   2.0000      -0.601825       -16.3765 
  17   2.0000      -0.581699       -15.8288 
  18   2.0000      -0.578314       -15.7367 
  19   2.0000      -0.566906       -15.4263 
  20   2.0000      -0.562018       -15.2933 
  21   2.0000      -0.552584       -15.0366 
  22   2.0000      -0.540817       -14.7164 
  23   2.0000      -0.532844       -14.4994 
  24   2.0000      -0.524456       -14.2712 
  25   2.0000      -0.517374       -14.0785 
  26   2.0000      -0.506934       -13.7944 
  27   2.0000      -0.499871       -13.6022 
  28   2.0000      -0.498236       -13.5577 
  29   2.0000      -0.491544       -13.3756 
  30   2.0000      -0.482702       -13.1350 
  31   2.0000      -0.480630       -13.0786 
  32   2.0000      -0.478557       -13.0222 
  33   2.0000      -0.474121       -12.9015 
  34   2.0000      -0.457318       -12.4443 
  35   2.0000      -0.451850       -12.2955 
  36   2.0000      -0.445856       -12.1324 
  37   2.0000      -0.442478       -12.0404 
  38   2.0000      -0.435277       -11.8445 
  39   2.0000      -0.422436       -11.4951 
  40   2.0000      -0.416914       -11.3448 
  41   2.0000      -0.408613       -11.1189 
  42   2.0000      -0.393591       -10.7102 
  43   2.0000      -0.389055       -10.5867 
  44   2.0000      -0.367823       -10.0090 
  45   2.0000      -0.313160        -8.5215 
  46   0.0000       0.075563         2.0562 
  47   0.0000       0.082487         2.2446 
  48   0.0000       0.091520         2.4904 
  49   0.0000       0.096967         2.6386 
  50   0.0000       0.099534         2.7085 
  51   0.0000       0.113490         3.0882 
  52   0.0000       0.117058         3.1853 
  53   0.0000       0.118854         3.2342 
  54   0.0000       0.121833         3.3153 
  55   0.0000       0.127192         3.4611 
  56   0.0000       0.136110         3.7037 
*Only the first 10 virtual orbitals were printed.

                    ********************************
                    * MULLIKEN POPULATION ANALYSIS *
                    ********************************

-----------------------
MULLIKEN ATOMIC CHARGES
-----------------------
   0 C :   -0.093926
   1 C :   -0.050058
   2 C :   -0.019994
   3 C :   -0.014281
   4 C :   -0.066390
   5 C :   -0.017653
   6 C :   -0.000904
   7 C :   -0.222116
   8 C :   -0.026934
   9 C :   -0.052792
  10 C :   -0.058950
  11 C :   -0.030746
  12 C :   -0.037689
  13 C :   -0.038221
  14 C :   -0.052353
  15 O :   -0.307610
  16 H :    0.059454
  17 H :    0.048113
  18 H :    0.033828
  19 H :    0.038886
  20 H :    0.015115
  21 H :    0.025148
  22 H :    0.046928
  23 H :    0.018349
  24 H :    0.036674
  25 H :    0.024280
  26 H :    0.038312
  27 H :    0.029292
  28 H :    0.032295
  29 H :    0.039193
  30 H :    0.050380
  31 H :    0.041331
  32 H :    0.036595
  33 H :    0.020711
  34 H :    0.043082
  35 H :    0.040427
  36 H :    0.045686
  37 H :    0.042774
  38 H :    0.025663
  39 H :    0.036458
  40 H :    0.048816
  41 H :    0.172826
Sum of atomic charges:    0.0000000

--------------------------------
MULLIKEN REDUCED ORBITAL CHARGES
--------------------------------
  0 C s       :     0.953648  s :     0.953648
      pz      :     1.003157  p :     3.065744
      px      :     1.035841
      py      :     1.026747
      dz2     :     0.016315  d :     0.074534
      dxz     :     0.012111
      dyz     :     0.019542
      dx2y2   :     0.006164
      dxy     :     0.020401

  1 C s       :     1.084205  s :     1.084205
      pz      :     0.961157  p :     2.849825
      px      :     0.934365
      py      :     0.954303
      dz2     :     0.023119  d :     0.116028
      dxz     :     0.024226
      dyz     :     0.017279
      dx2y2   :     0.028392
      dxy     :     0.023013

  2 C s       :     1.043667  s :     1.043667
      pz      :     0.970054  p :     2.863946
      px      :     0.927550
      py      :     0.966342
      dz2     :     0.021398  d :     0.112380
      dxz     :     0.024610
      dyz     :     0.015431
      dx2y2   :     0.030370
      dxy     :     0.020572

  3 C s       :     0.966048  s :     0.966048
      pz      :     0.967794  p :     2.949772
      px      :     0.937871
      py      :     1.044106
      dz2     :     0.018647  d :     0.098462
      dxz     :     0.022171
      dyz     :     0.017572
      dx2y2   :     0.026224
      dxy     :     0.013847

  4 C s       :     1.037145  s :     1.037145
      pz      :     0.959101  p :     2.912118
      px      :     0.931391
      py      :     1.021626
      dz2     :     0.026845  d :     0.117127
      dxz     :     0.024653
      dyz     :     0.020186
      dx2y2   :     0.030766
      dxy     :     0.014677

  5 C s       :     0.991889  s :     0.991889
      pz      :     0.980708  p :     2.929241
      px      :     0.940864
      py      :     1.007669
      dz2     :     0.020341  d :     0.096523
      dxz     :     0.023913
      dyz     :     0.012938
      dx2y2   :     0.025202
      dxy     :     0.014129

  6 C s       :     0.989708  s :     0.989708
      pz      :     0.969501  p :     2.912875
      px      :     0.916885
      py      :     1.026490
      dz2     :     0.016318  d :     0.098321
      dxz     :     0.022041
      dyz     :     0.020564
      dx2y2   :     0.026361
      dxy     :     0.013035

  7 C s       :     1.082737  s :     1.082737
      pz      :     0.994464  p :     2.996495
      px      :     0.995192
      py      :     1.006839
      dz2     :     0.028797  d :     0.142885
      dxz     :     0.029543
      dyz     :     0.027945
      dx2y2   :     0.033087
      dxy     :     0.023512

  8 C s       :     0.987294  s :     0.987294
      pz      :     1.041260  p :     2.941247
      px      :     0.944745
      py      :     0.955242
      dz2     :     0.020002  d :     0.098392
      dxz     :     0.016536
      dyz     :     0.016481
      dx2y2   :     0.021302
      dxy     :     0.024072

  9 C s       :     0.995924  s :     0.995924
      pz      :     0.948495  p :     2.955059
      px      :     1.043310
      py      :     0.963254
      dz2     :     0.021356  d :     0.101809
      dxz     :     0.017717
      dyz     :     0.024562
      dx2y2   :     0.021012
      dxy     :     0.017161

 10 C s       :     0.988733  s :     0.988733
      pz      :     0.958854  p :     2.967797
      px      :     0.965251
      py      :     1.043693
      dz2     :     0.021306  d :     0.102420
      dxz     :     0.026534
      dyz     :     0.016388
      dx2y2   :     0.022491
      dxy     :     0.015702

 11 C s       :     0.948988  s :     0.948988
      pz      :     1.033467  p :     3.007668
      px      :     1.030569
      py      :     0.943632
      dz2     :     0.011791  d :     0.074090
      dxz     :     0.013436
      dyz     :     0.017354
      dx2y2   :     0.015493
      dxy     :     0.016017

 12 C s       :     1.106956  s :     1.106956
      pz      :     0.811197  p :     2.739069
      px      :     0.912352
      py      :     1.015521
      dz2     :     0.044744  d :     0.191664
      dxz     :     0.037582
      dyz     :     0.041531
      dx2y2   :     0.040437
      dxy     :     0.027370

 13 C s       :     0.949064  s :     0.949064
      pz      :     1.020282  p :     3.020528
      px      :     1.041758
      py      :     0.958488
      dz2     :     0.013088  d :     0.068629
      dxz     :     0.008496
      dyz     :     0.017118
      dx2y2   :     0.021322
      dxy     :     0.008605

 14 C s       :     0.953846  s :     0.953846
      pz      :     1.000224  p :     3.028474
      px      :     1.045013
      py      :     0.983237
      dz2     :     0.019314  d :     0.070033
      dxz     :     0.008914
      dyz     :     0.011601
      dx2y2   :     0.021928
      dxy     :     0.008276

 15 O s       :     1.658550  s :     1.658550
      pz      :     1.456187  p :     4.617428
      px      :     1.724564
      py      :     1.436677
      dz2     :     0.007472  d :     0.031631
      dxz     :     0.008074
      dyz     :     0.004522
      dx2y2   :     0.007172
      dxy     :     0.004391

 16 H s       :     0.896128  s :     0.896128
      pz      :     0.018364  p :     0.044418
      px      :     0.011231
      py      :     0.014822

 17 H s       :     0.907434  s :     0.907434
      pz      :     0.011454  p :     0.044453
      px      :     0.019072
      py      :     0.013927

 18 H s       :     0.922014  s :     0.922014
      pz      :     0.011858  p :     0.044159
      px      :     0.015913
      py      :     0.016388

 19 H s       :     0.916657  s :     0.916657
      pz      :     0.010470  p :     0.044456
      px      :     0.010828
      py      :     0.023158

 20 H s       :     0.938335  s :     0.938335
      pz      :     0.019404  p :     0.046549
      px      :     0.012179
      py      :     0.014966

 21 H s       :     0.936391  s :     0.936391
      pz      :     0.009274  p :     0.038461
      px      :     0.008198
      py      :     0.020988

[...]
 95:   1535.34   0.000834    4.21  0.000169  (-0.008135 -0.004315  0.009200)
 96:   1541.26   0.000739    3.73  0.000150  (-0.007692  0.004908 -0.008142)
 97:   1546.52   0.001570    7.94  0.000317  (-0.013503 -0.006893  0.009328)
 98:   1547.44   0.001805    9.12  0.000364  (-0.017916 -0.005891  0.002885)
 99:   1792.55   0.000036    0.18  0.000006  (-0.001913  0.001452 -0.000762)
100:   3034.62   0.004827   24.39  0.000496  ( 0.001056 -0.021625  0.005252)
101:   3074.24   0.008161   41.24  0.000828  ( 0.020246  0.011470  0.016939)
102:   3083.35   0.004234   21.40  0.000428  (-0.009499  0.014675 -0.011087)
103:   3085.97   0.007179   36.28  0.000726  (-0.016204  0.005284  0.020868)
104:   3093.33   0.009126   46.12  0.000921  ( 0.004237  0.022681  0.019703)
105:   3095.92   0.004856   24.54  0.000490  (-0.004875  0.019299  0.009657)
106:   3097.52   0.005817   29.40  0.000586  ( 0.008510 -0.022609  0.001555)
107:   3101.86   0.006594   33.32  0.000663  ( 0.018117  0.007144 -0.016857)
108:   3115.78   0.000503    2.54  0.000050  ( 0.000231 -0.007074  0.000490)
109:   3116.50   0.002548   12.87  0.000255  (-0.000771 -0.000567  0.015943)
110:   3121.70   0.009402   47.51  0.000940  ( 0.015860  0.025639 -0.005567)
111:   3126.44   0.004543   22.96  0.000454  (-0.003553 -0.020951  0.001384)
112:   3138.28   0.005418   27.38  0.000539  (-0.008111 -0.017976  0.012241)
113:   3139.90   0.009188   46.43  0.000913  ( 0.000107 -0.019485 -0.023098)
114:   3156.91   0.007587   38.34  0.000750  (-0.025699  0.007864 -0.005266)
115:   3162.49   0.002422   12.24  0.000239  ( 0.010087 -0.005668  0.010255)
116:   3174.22   0.003589   18.14  0.000353  ( 0.005815 -0.013377  0.011838)
117:   3180.02   0.004174   21.09  0.000410  (-0.000379 -0.003220 -0.019976)
118:   3186.25   0.004205   21.25  0.000412  ( 0.012020  0.014031 -0.008396)
119:   3204.69   0.000525    2.65  0.000051  ( 0.002515 -0.006622  0.000964)
120:   3209.30   0.007059   35.67  0.000686  (-0.025442  0.006248  0.000217)
121:   3211.36   0.001976    9.99  0.000192  (-0.006259 -0.011272  0.005078)
122:   3215.15   0.003427   17.32  0.000333  ( 0.015338  0.008079  0.005666)
123:   3224.66   0.002229   11.27  0.000216  ( 0.002026  0.003861  0.014025)
124:   3231.68   0.004059   20.51  0.000392  ( 0.011676 -0.001216 -0.015943)
125:   3944.12   0.005541   28.00  0.000438  (-0.003346  0.018484 -0.009250)

* The epsilon (eps) is given for a Dirac delta lineshape.
** The dipole moment derivative (T) already includes vibrational overlap.

The first frequency considered to be a vibration is 6
The total number of vibrations considered is 120


--------------------------
THERMOCHEMISTRY AT 298.15K
--------------------------

Temperature         ...   298.15 K
Pressure            ...     1.00 atm
Total Mass          ...   222.37 AMU
Quasi RRHO          ...     True
Cut-Off Frequency   ...     1.00 cm^-1

Throughout the following assumptions are being made:
  (1) The electronic state is orbitally nondegenerate
  (2) There are no thermally accessible electronically excited states
  (3) Hindered rotations indicated by low frequency modes are not
      treated as such but are treated as vibrations and this may
      cause some error
  (4) All equations used are the standard statistical mechanics
      equations for an ideal gas
  (5) All vibrations are strictly harmonic

freq.      49.07  E(vib)   ...       0.53 
freq.      57.36  E(vib)   ...       0.51 
freq.      86.50  E(vib)   ...       0.48 
freq.     112.87  E(vib)   ...       0.45 
freq.     136.80  E(vib)   ...       0.42 
freq.     164.26  E(vib)   ...       0.39 
freq.     206.74  E(vib)   ...       0.35 
freq.     222.51  E(vib)   ...       0.33 
freq.     238.36  E(vib)   ...       0.32 
freq.     245.40  E(vib)   ...       0.31 
freq.     269.73  E(vib)   ...       0.29 
freq.     279.67  E(vib)   ...       0.28 
freq.     292.84  E(vib)   ...       0.27 
freq.     297.39  E(vib)   ...       0.27 
freq.     330.85  E(vib)   ...       0.24 
freq.     348.26  E(vib)   ...       0.23 
freq.     370.48  E(vib)   ...       0.21 
freq.     378.47  E(vib)   ...       0.21 
freq.     390.93  E(vib)   ...       0.20 
freq.     410.26  E(vib)   ...       0.19 
freq.     423.08  E(vib)   ...       0.18 
freq.     440.85  E(vib)   ...       0.17 
freq.     456.61  E(vib)   ...       0.16 
freq.     475.28  E(vib)   ...       0.15 
freq.     496.50  E(vib)   ...       0.14 
freq.     523.02  E(vib)   ...       0.13 
freq.     538.06  E(vib)   ...       0.12 
freq.     576.58  E(vib)   ...       0.11 
freq.     614.23  E(vib)   ...       0.10 
freq.     673.14  E(vib)   ...       0.08 
freq.     692.56  E(vib)   ...       0.07 
freq.     806.07  E(vib)   ...       0.05 
freq.     814.46  E(vib)   ...       0.05 
freq.     857.92  E(vib)   ...       0.04 
freq.     885.83  E(vib)   ...       0.04 
freq.     892.46  E(vib)   ...       0.03 
freq.     913.78  E(vib)   ...       0.03 
freq.     929.28  E(vib)   ...       0.03 
freq.     961.44  E(vib)   ...       0.03 
freq.     963.81  E(vib)   ...       0.03 
freq.     977.98  E(vib)   ...       0.03 
freq.     988.41  E(vib)   ...       0.02 
freq.    1015.16  E(vib)   ...       0.02 
freq.    1018.24  E(vib)   ...       0.02 
freq.    1034.40  E(vib)   ...       0.02 
freq.    1043.24  E(vib)   ...       0.02 
freq.    1056.61  E(vib)   ...       0.02 
freq.    1066.64  E(vib)   ...       0.02 
freq.    1072.67  E(vib)   ...       0.02 
freq.    1091.24  E(vib)   ...       0.02 
freq.    1107.71  E(vib)   ...       0.02 
freq.    1146.59  E(vib)   ...       0.01 
freq.    1151.86  E(vib)   ...       0.01 
freq.    1179.72  E(vib)   ...       0.01 
freq.    1181.98  E(vib)   ...       0.01 
freq.    1204.59  E(vib)   ...       0.01 
freq.    1222.35  E(vib)   ...       0.01 
freq.    1233.63  E(vib)   ...       0.01 
freq.    1244.80  E(vib)   ...       0.01 
freq.    1264.91  E(vib)   ...       0.01 
freq.    1269.41  E(vib)   ...       0.01 
freq.    1272.00  E(vib)   ...       0.01 
freq.    1292.44  E(vib)   ...       0.01 
freq.    1316.60  E(vib)   ...       0.01 
freq.    1331.12  E(vib)   ...       0.01 
freq.    1338.26  E(vib)   ...       0.01 
freq.    1365.76  E(vib)   ...       0.01 
freq.    1379.09  E(vib)   ...       0.01 
freq.    1393.93  E(vib)   ...       0.00 
freq.    1407.98  E(vib)   ...       0.00 
freq.    1411.36  E(vib)   ...       0.00 
freq.    1414.66  E(vib)   ...       0.00 
freq.    1431.48  E(vib)   ...       0.00 
freq.    1434.67  E(vib)   ...       0.00 
freq.    1439.02  E(vib)   ...       0.00 
freq.    1440.67  E(vib)   ...       0.00 
freq.    1452.32  E(vib)   ...       0.00 
freq.    1452.72  E(vib)   ...       0.00 
freq.    1466.60  E(vib)   ...       0.00 
freq.    1506.17  E(vib)   ...       0.00 
freq.    1507.42  E(vib)   ...       0.00 
freq.    1508.78  E(vib)   ...       0.00 
freq.    1511.77  E(vib)   ...       0.00 
freq.    1515.62  E(vib)   ...       0.00 
freq.    1519.60  E(vib)   ...       0.00 
freq.    1521.68  E(vib)   ...       0.00 
freq.    1526.12  E(vib)   ...       0.00 
freq.    1530.06  E(vib)   ...       0.00 
freq.    1532.18  E(vib)   ...       0.00 
freq.    1535.34  E(vib)   ...       0.00 
freq.    1541.26  E(vib)   ...       0.00 
freq.    1546.52  E(vib)   ...       0.00 
freq.    1547.44  E(vib)   ...       0.00 
freq.    1792.55  E(vib)   ...       0.00 
freq.    3034.62  E(vib)   ...       0.00 
freq.    3074.24  E(vib)   ...       0.00 
freq.    3083.35  E(vib)   ...       0.00 
freq.    3085.97  E(vib)   ...       0.00 
freq.    3093.33  E(vib)   ...       0.00 
freq.    3095.92  E(vib)   ...       0.00 
freq.    3097.52  E(vib)   ...       0.00 
freq.    3101.86  E(vib)   ...       0.00 
freq.    3115.78  E(vib)   ...       0.00 
freq.    3116.50  E(vib)   ...       0.00 
freq.    3121.70  E(vib)   ...       0.00 
freq.    3126.44  E(vib)   ...       0.00 
freq.    3138.28  E(vib)   ...       0.00 
freq.    3139.90  E(vib)   ...       0.00 
freq.    3156.91  E(vib)   ...       0.00 
freq.    3162.49  E(vib)   ...       0.00 
freq.    3174.22  E(vib)   ...       0.00 
freq.    3180.02  E(vib)   ...       0.00 
freq.    3186.25  E(vib)   ...       0.00 
freq.    3204.69  E(vib)   ...       0.00 
freq.    3209.30  E(vib)   ...       0.00 
freq.    3211.36  E(vib)   ...       0.00 
freq.    3215.15  E(vib)   ...       0.00 
freq.    3224.66  E(vib)   ...       0.00 
freq.    3231.68  E(vib)   ...       0.00 
freq.    3944.12  E(vib)   ...       0.00 

------------
INNER ENERGY
------------

The inner energy is: U= E(el) + E(ZPE) + E(vib) + E(rot) + E(trans)
    E(el)   - is the total energy from the electronic structure calculation
              = E(kin-el) + E(nuc-el) + E(el-el) + E(nuc-nuc)
    E(ZPE)  - the the zero temperature vibrational energy from the frequency calculation
    E(vib)  - the the finite temperature correction to E(ZPE) due to population
              of excited vibrational states
    E(rot)  - is the rotational thermal energy
    E(trans)- is the translational thermal energy

Summary of contributions to the inner energy U:
Electronic energy                ...   -117.24300785 Eh
Zero point energy                ...      0.39436297 Eh     247.47 kcal/mol
Thermal vibrational correction   ...      0.01376381 Eh       8.64 kcal/mol
Thermal rotational correction    ...      0.00141627 Eh       0.89 kcal/mol
Thermal translational correction ...      0.00141627 Eh       0.89 kcal/mol
-----------------------------------------------------------------------
Total thermal energy                   -116.83204853 Eh


Summary of corrections to the electronic energy:
(perhaps to be used in another calculation)
Total thermal correction                  0.01659635 Eh      10.41 kcal/mol
Non-thermal (ZPE) correction              0.39436297 Eh     247.47 kcal/mol
-----------------------------------------------------------------------
Total correction                          0.41095933 Eh     257.88 kcal/mol


--------
ENTHALPY
--------

The enthalpy is H = U + kB*T
                kB is Boltzmann's constant
Total thermal energy              ...   -116.83204853 Eh 
Thermal Enthalpy correction       ...      0.00094421 Eh       0.59 kcal/mol
-----------------------------------------------------------------------
Total Enthalpy                    ...   -116.83110432 Eh


Note: Only C1 symmetry has been detected, increase convergence thresholds 
      if your molecule has a higher symmetry. Symmetry factor of 1.0 is   
      used for the rotational entropy correction. 
 

Note: Rotational entropy computed according to Herzberg 
Infrared and Raman Spectra, Chapter V,1, Van Nostrand Reinhold, 1945 
Point Group:  C1, Symmetry Number:   1  
Rotational constants in cm-1:     0.029645     0.012006     0.010158 

Vibrational entropy computed according to the QRRHO of S. Grimme
Chem.Eur.J. 2012 18 9955 using a reference frequency of 100.0 cm-1


-------
ENTROPY
-------

The entropy contributions are T*S = T*(S(el)+S(vib)+S(rot)+S(trans))
     S(el)   - electronic entropy
     S(vib)  - vibrational entropy
     S(rot)  - rotational entropy
     S(trans)- translational entropy
The entropies will be listed as multiplied by the temperature to get
units of energy

Electronic entropy                ...      0.00000000 Eh      0.00 kcal/mol
Vibrational entropy               ...      0.02308526 Eh     14.49 kcal/mol
Rotational entropy                ...      0.01542623 Eh      9.68 kcal/mol
Translational entropy             ...      0.02000310 Eh     12.55 kcal/mol
-----------------------------------------------------------------------
Final entropy term                ...      0.05851459 Eh     36.72 kcal/mol

In case the symmetry of your molecule has not been determined correctly
or in case you have a reason to use a different symmetry number we print 
out the resulting rotational entropy values for sn=1,12:

 non-linear molecules -----------------------------------
|  sn= 1 | S(rot)=       0.01542623 Eh      9.68 kcal/mol|
|  sn= 2 | S(rot)=       0.01477178 Eh      9.27 kcal/mol|
|  sn= 3 | S(rot)=       0.01438894 Eh      9.03 kcal/mol|
|  sn= 4 | S(rot)=       0.01411732 Eh      8.86 kcal/mol|
|  sn= 5 | S(rot)=       0.01390663 Eh      8.73 kcal/mol|
|  sn= 6 | S(rot)=       0.01373449 Eh      8.62 kcal/mol|
|  sn= 7 | S(rot)=       0.01358894 Eh      8.53 kcal/mol|
|  sn= 8 | S(rot)=       0.01346286 Eh      8.45 kcal/mol|
|  sn= 9 | S(rot)=       0.01335166 Eh      8.38 kcal/mol|
|  sn=10 | S(rot)=       0.01325218 Eh      8.32 kcal/mol|
|  sn=11 | S(rot)=       0.01316219 Eh      8.26 kcal/mol|
|  sn=12 | S(rot)=       0.01308003 Eh      8.21 kcal/mol|
 linear molecules ---------------------------------------
|  Dinfh | S(rot)=       0.00965913 Eh      6.06 kcal/mol|
|  Cinfv | S(rot)=       0.01031358 Eh      6.47 kcal/mol|
 --------------------------------------------------------


-------------------
GIBBS FREE ENERGY
-------------------

The Gibbs free energy is G = H - T*S

Total enthalpy                    ...   -116.83110432 Eh 
Total entropy correction          ...     -0.05851459 Eh    -36.72 kcal/mol
-----------------------------------------------------------------------
Final Gibbs free energy         ...   -116.88961891 Eh

For completeness - the Gibbs free energy minus the electronic energy
G-E(el)                           ...      0.35338894 Eh    221.75 kcal/mol


Maximum memory used throughout the entire PROP-calculation: 280.3 MB

--------------------------------
SUGGESTED CITATIONS FOR THIS RUN
--------------------------------

Below you find a list of papers that are relevant to this ORCA run
We neither can nor want to force you to cite these papers, but we appreciate if you do
You receive ORCA, which is the product of decades of hard work by many enthusiastic individuals, for free
The only thing we kindly ask in return is that you cite our papers,
We deeply appreciate it, if you show your appreciation for ORCA by not just citing the generic ORCA reference.

Please note that relegating all ORCA citations to the supporting information does *not* help us.
SI sections are not indexed - citations you put there will not count into any citation statistics
But we need these citations in order to attract the funding resources that allow us to do what we are doing

Therefore, if you are a happy ORCA user, please consider citing a few of the papers listed below in the main body of your paper

In addition to the list printed below, the program has created the file ./output/10_epi_gamma_eudesmol/10_epi_gamma_eudesmol.bibtex that contains the list in bibtex format
You can import this file easily into all common literature databanks and citation aid programs


List of essential papers. We consider these as the minimum necessary citations

  1. Neese,F.
     Software update: the ORCA program system, version 5.0
     WIRES Comput. Molec. Sci., 2022 12(1)e1606
     doi.org/10.1002/wcms.1606
  2. Mueller,M.; Hansen,A.; Grimme,S.
     wB97X-3c: A composite range-separated hybrid DFT method with a molecule-optimized polarized valence double-zeta basis set
     J. Chem. Phys., 2023 158 014103
     doi.org/10.1063/5.0133026

List of papers to cite with high priority. The work reported in these papers was absolutely
necessary for this run to complete.
Our perspective: the developers of density functionals and basis sets usually get cited in chemistry papers
Good! But without the algorithms to do something with them, the functionals or basis sets would not do anything.
Hence, in our opinion, the algorithm design and method developments papers are equally worthy of getting cited

  1. Neese,F.
     An improvement of the resolution of the identity approximation for the formation of the Coulomb matrix
     J. Comp. Chem., 2003 24(14)1740-1747
     doi.org/10.1002/jcc.10318
  2. Neese,F.; Wennmohs,F.; Hansen,A.; Becker,U.
     Efficient, approximate and parallel Hartree-Fock and hybrid DFT calculations. A 'chain-of-spheres' algorithm for the Hartree-Fock exchange
     Chem. Phys., 2009 356(1-3)98-109
     doi.org/10.1016/j.chemphys.2008.10.036
  3. Bykov,D.; Petrenko,T.; Izsak,R.; Kossmann,S.; Becker,U.; Valeev,E.; Neese,F.
     Efficient implementation of the analytic second derivatives of Hartree-Fock and hybrid DFT energies: a detailed analysis of different approximations
     Molec. Phys., 2015 113 1961-1977
     doi.org/10.1080/00268976.2015.1025114
  4. Helmich-Paris,B.; de Souza,B.; Neese,F.; Izsák,R.
     An improved chain of spheres for exchange algorithm
     J. Chem. Phys., 2021 155 104109
     doi.org/doi: 10.1063/5.0058766.
  5. Neese,F.
     The SHARK Integral Generation and Digestion System
     J. Comp. Chem., 2022  1-16
     doi.org/10.1002/jcc.26942
  6. Caldeweyher,E.; Bannwarth,C.; Grimme,S.
     Extension of the D3 dispersion coefficient model
     J. Chem. Phys., 2017 147 034112
     doi.org/10.1063/1.4993215
  7. Caldeweyher,E.; Ehlert,S.; Hansen,A.; Neugebauer,H.; Spicher,S.; Bannwarth,C.; Grimme,S.
     A generally applicable atomic-charge dependent London dispersion correction
     J. Chem. Phys., 2019 150 154122
     doi.org/10.1063/1.5090222
  8. Caldeweyher,E.; Mewes,J.; Ehlert,S.; Grimme,S.
     Extension and evaluation of the D4 London-dispersion model for periodic systems
     Phys. Chem. Chem. Phys., 2020 22(16)8499-8512
     doi.org/10.1039/D0CP00502A
  9. Wittmann,L.; Gordiy,I.; Friede,M.; Helmich-Paris,B.; Grimme,S.; Hansen,A.; Bursch,M.
     Extension of the D3 and D4 London Dispersion Corrections to the full Actinides Series
     Phys. Chem. Chem. Phys., 2024 26(32)21379-21394
     doi.org/https://doi.org/10.1039/D4CP01514B 

List of suggested additional citations. These are papers that are important in the 'surrounding' of 
of this run, or papers that preceded the highly important papers. If you like your results we are grateful for a citation.

  1. Izsak,R.; Neese,F.
     An overlap fitted chain of spheres exchange method
     J. Chem. Phys., 2011 135 144105
     doi.org/10.1063/1.3646921
  2. Izsak,R.; Hansen,A.; Neese,F.
     The resolution of identity and chain of spheres approximations for the LPNO-CCSD singles Fock term
     Molec. Phys., 2012 110 2413-2417
     doi.org/10.1080/00268976.2012.687466
  3. Neese,F.
     The ORCA program system
     WIRES Comput. Molec. Sci., 2012 2(1)73-78
     doi.org/10.1002/wcms.81
  4. Izsak,R.; Neese,F.; Klopper,W.
     Robust fitting techniques in the chain of spheres approximation to the Fock exchange: The role of the complementary space
     J. Chem. Phys., 2013 139 
     doi.org/10.1063/1.4819264
  5. Neese,F.
     Software update: the ORCA program system, version 4.0
     WIRES Comput. Molec. Sci., 2018 8(1)1-6
     doi.org/10.1002/wcms.1327
  6. Neese,F.; Wennmohs,F.; Becker,U.; Riplinger,C.
     The ORCA quantum chemistry program package
     J. Chem. Phys., 2020 152 Art. No. L224108
     doi.org/10.1063/5.0004608

List of optional additional citations

  1. Neese,F.
     Approximate second-order SCF convergence for spin unrestricted wavefunctions
     Chem. Phys. Lett., 2000 325(1-3)93-98
     doi.org/10.1016/s0009-2614(00)00662-x

Timings for individual modules:

Sum of individual times          ...     2223.221 sec (=  37.054 min)
Startup calculation              ...       99.191 sec (=   1.653 min)   4.5 %
SCF iterations                   ...     1288.602 sec (=  21.477 min)  58.0 %
Property integrals               ...      167.032 sec (=   2.784 min)   7.5 %
SCF Response                     ...      107.276 sec (=   1.788 min)   4.8 %
Property calculations            ...      277.822 sec (=   4.630 min)  12.5 %
SCF Gradient evaluation          ...      282.930 sec (=   4.716 min)  12.7 %
Geometry relaxation              ...        0.367 sec (=   0.006 min)   0.0 %
                             ****ORCA TERMINATED NORMALLY****
TOTAL RUN TIME: 0 days 0 hours 37 minutes 11 seconds 593 msec
