
                                 *****************
                                 * O   R   C   A *
                                 *****************

                                            #,                                       
                                            ###                                      
                                            ####                                     
                                            #####                                    
                                            ######                                   
                                           ########,                                 
                                     ,,################,,,,,                         
                               ,,#################################,,                 
                          ,,##########################################,,             
                       ,#########################################, ''#####,          
                    ,#############################################,,   '####,        
                  ,##################################################,,,,####,       
                ,###########''''           ''''###############################       
              ,#####''   ,,,,##########,,,,          '''####'''          '####       
            ,##' ,,,,###########################,,,                        '##       
           ' ,,###''''                  '''############,,,                           
         ,,##''                                '''############,,,,        ,,,,,,###''
      ,#''                                            '''#######################'''  
     '                                                          ''''####''''         
             ,#######,   #######,   ,#######,      ##                                
            ,#'     '#,  ##    ##  ,#'     '#,    #''#        ,####,   ,####,        
            ##       ##  ##   ,#'  ##            #'  '#       #'       #'  '#        
            ##       ##  #######   ##           ,######,      #####,   #    #        
            '#,     ,#'  ##    ##  '#,     ,#' ,#      #,     #,   #   #,  ,#        
             '#######'   ##     ##  '#######'  #'      '#     '####' # '####'        



                #########################################################
                #                        -***-                          #
                #          Department of theory and spectroscopy        #
                #                                                       #
                #                      Frank Neese                      #
                #                                                       #
                #     Directorship, Architecture, Infrastructure        #
                #                    SHARK, DRIVERS                     #
                #        Core code/Algorithms in most modules           #
                #                                                       #
                #        Max Planck Institute fuer Kohlenforschung      #
                #                Kaiser Wilhelm Platz 1                 #
                #                 D-45470 Muelheim/Ruhr                 #
                #                      Germany                          #
                #                                                       #
                #                  All rights reserved                  #
                #                        -***-                          #
                #########################################################


                         Program Version 6.0.1  -  RELEASE   -


 With contributions from (in alphabetic order):
[Max-Planck-Institut fuer Kohlenforschung]                               
  Daniel Aravena         : Magnetic Suceptibility                        
  Michael Atanasov       : Ab Initio Ligand Field Theory (pilot matlab implementation)
  Alexander A. Auer      : GIAO ZORA, VPT2 properties, NMR spectrum      
  Ute Becker             : All parallelization in ORCA, NUMFREQ, NUMCALC 
  Giovanni Bistoni       : ED, misc. LED, open-shell LED, HFLD           
  Martin Brehm           : Molecular dynamics                            
  Dmytro Bykov           : pre 5.0 version of the SCF Hessian            
  Marcos Casanova-Páez   : Triplet and SCS-CIS(D). UHF-(DLPNO)-IP/EA/STEOM-CCSD. UHF-CVS-IP/STEOM-CCSD   
  Vijay G. Chilkuri      : MRCI spin determinant printing, contributions to CSF-ICE 
  Pauline Colinet        : FMM embedding                                 
  Dipayan Datta          : RHF DLPNO-CCSD density                        
  Achintya Kumar Dutta   : EOM-CC, STEOM-CC                              
  Nicolas Foglia         : Exact transition moments, OPA infrastructure, MCD improvements    
  Dmitry Ganyushin       : Spin-Orbit,Spin-Spin,Magnetic field MRCI      
  Miquel Garcia-Rates    : C-PCM and meta-GGA Hessian, CCSD/C-PCM, Gaussian charge scheme 
  Tiago L. C. Gouveia    : GS-ROHF, GS-ROCIS                             
  Yang Guo               : DLPNO-NEVPT2, F12-NEVPT2, CIM, IAO-localization        
  Andreas Hansen         : Spin unrestricted coupled pair/coupled cluster methods 
  Ingolf Harden          : AUTO-CI MPn and infrastructure                
  Benjamin Helmich-Paris : MC-RPA, TRAH-(SCF,CASSCF), AVAS, COSX integrals, SCF dyn. polar. 
  Lee Huntington         : MR-EOM, pCC                                   
  Robert Izsak           : Overlap fitted RIJCOSX, COSX-SCS-MP3, EOM     
  Riya Kayal             : Wick's Theorem for AUTO-CI, AUTO-CI UHF-CCSDT 
  Emily Kempfer          : AUTO-CI, RHF CISDT and CCSDT                  
  Christian Kollmar      : KDIIS, OOCD, Brueckner-CCSD(T), CCSD density, CASPT2, CASPT2-K, improved NEVPT2 
  Axel Koslowski         : Symmetry handling                             
  Simone Kossmann        : meta-GGA functionals, TD-DFT gradient, OOMP2, (MP2 Hessian; deprecated post 5.0) 
  Lucas Lang             : DCDCAS                                        
  Marvin Lechner         : AUTO-CI (C++ implementation), FIC-MRCC        
  Spencer Leger          : CASSCF response                               
  Dagmar Lenk            : GEPOL surface, SMD, ORCA-2-JSON               
  Dimitrios Liakos       : Extrapolation schemes; Compound Job, initial MDCI parallelization 
  Dimitrios Manganas     : Further ROCIS development; embedding schemes. LFT, Crystal Embedding 
  Dimitrios Pantazis     : SARC Basis sets                               
  Anastasios Papadopoulos: AUTO-CI, single reference methods and gradients 
  Taras Petrenko         : pre 6.0 DFT Hessian and TD-DFT gradient, (ASA, deprecated), ECA, 1-Electron XAS/XES, NRVS 
  Peter Pinski           : DLPNO-MP2, DLPNO-MP2 Gradient                 
  Christoph Reimann      : Effective Core Potentials                     
  Marius Retegan         : Local ZFS, SOC                                
  Christoph Riplinger    : Optimizer, TS searches, QM/MM, DLPNO-CCSD(T), (RO)-DLPNO pert. Triples 
  Michael Roemelt        : Original ROCIS implementation                 
  Masaaki Saitow         : Open-shell DLPNO-CCSD energy and density      
  Barbara Sandhoefer     : DKH picture change effects                    
  Kantharuban Sivalingam : CASSCF convergence/infrastructure, NEVPT2 and variants, FIC-MRCI 
  Bernardo de Souza      : ESD, SOC TD-DFT                               
  Georgi L. Stoychev     : AutoAux, RI-MP2 NMR, DLPNO-MP2 response, X2C  
  Van Anh Tran           : RI-MP2 g-tensors                              
  Willem Van den Heuvel  : Paramagnetic NMR                              
  Zikuan Wang            : NOTCH, Electric field optimization            
  Frank Wennmohs         : Technical directorship and infrastructure     
  Hang Xu                : AUTO-CI-Response properties                   
                                                                         
[FACCTs GmbH]                                                            
  Markus Bursch, Miquel Garcia-Rates, Christoph Riplinger, Bernardo de Souza, Georgi L. Stoychev 
                                                                 
  APM, Basis sets (HGBS, AHGBS, def-TZVP (Ac-Lr), def2-XVPD (La-Lu)), CI-OPT, improved COSX, DLPNO-Multilevel,           
  DOCKER, DRACO, updates on ESD, GOAT, IRC, LR-CPCM, MBIS, meta-GGA TD-DFT gradient, ML-optimized integration grids, 
  MM, NACMEs, nearIR, NEB, NEB-TS, NL-DFT gradient (VV10), 2- and 3-layer-ONIOM, interface openCOSMO-RS, QMMM,   
  Crystal-QMMM, SF, symmetry and pop. for TD-DFT, r2SCAN hybrids, SOLVATOR                                   
                                                                         
[Other institutions]                                                     
  V. Asgeirsson          : NEB                                           
  Christoph Bannwarth    : sTDA-DFT, sTD-DFT, PBEh-3c, B97-3c, D3        
  Sebastian Ehlert       : rSCAN, r2SCAN, r2SCAN-3c, D4, dhf basis sets  
  Marvin Friede          : D4 for Fr, Ra, Ac-Lr                          
  Lars Goerigk           : TD-DFT with DH, B97 family of functionals     
  Stefan Grimme          : VdW corrections, initial TS optimization, DFT functionals, gCP, sTDA/sTD-DF 
  Waldemar Hujo          : DFT-NL                                        
  H. Jonsson             : NEB                                           
  Holger Kruse           : gCP                                           
  Marcel Mueller         : wB97X-3c, vDZP basis set                      
  Hagen Neugebauer       : wr2SCAN                                       
  Tobias Risthaus        : range-separated hybrid DFT                    
  Lukas Wittmann         : regularized MP2, r2SCAN double-hybrids, wr2SCAN        
                                                                         
We gratefully acknowledge several colleagues who have allowed us to      
interface, adapt or use parts of their codes:                            
  Ed Valeev, F. Pavosevic, A. Kumar             : LibInt (2-el integral package), F12 methods 
  Garnet Chan, S. Sharma, J. Yang, R. Olivares  : DMRG                   
  Ulf Ekstrom                                   : XCFun DFT Library      
  Mihaly Kallay                                 : mrcc  (arbitrary order and MRCC methods)
  Frank Weinhold                                : gennbo (NPA and NBO analysis)           
  Simon Mueller                                 : openCOSMO-RS                            
  Christopher J. Cramer and Donald G. Truhlar   : smd solvation model                     
  S Lehtola, MJT Oliveira, MAL Marques          : LibXC Library                           
  Liviu Ungur et al                             : ANISO software                          


 Your calculation uses the libint2 library for the computation of 2-el integrals
 For citations please refer to: http://libint.valeyev.net

 Your ORCA version has been built with support for libXC version: 6.2.2
 For citations please refer to: https://libxc.gitlab.io

 This ORCA versions uses:
   CBLAS   interface :  Fast vector & matrix operations
   LAPACKE interface :  Fast linear algebra routines
   SCALAPACK package :  Parallel linear algebra routines
   Shared memory     :  Shared parallel matrices
   BLAS/LAPACK       :  OpenBLAS 0.3.27  USE64BITINT DYNAMIC_ARCH NO_AFFINITY SkylakeX SINGLE_THREADED
        Core in use  :  SkylakeX
   Copyright (c) 2011-2014, The OpenBLAS Project


Your calculation utilizes the atom-pairwise dispersion correction
based on EEQ partial charges (D4)


================================================================================

cite the ECPs for C  [vDZP-ECP], O  [vDZP-ECP] as follows:
   B-Ne (ecp-2-mwb), Al-Ar (ecp-10-mwb), Ga-Kr (ecp-28-mwb), Y-Cd (ecp-28-mwb), In-Xe (ecp-46-mwb):
     A. Bergner, M. Dolg, W. Küchle, H. Stoll, and H. Preuß, Mol. Phys. 80, 1431 (1993)., T. Leininger, A. Berning, A. Nicklass, H. Stoll, H.-J. Werner, and H.-J.Flad, Chem. Phys. 217, 19 (1997).
   Na-Mg, K-Ca, Rb-Sr, Cs-Ba (CRENBL):
     L. Fernandez Pacios and P. A. Christiansen, J. Chem. Phys. 82, 2664 (1985)., M. M. Hurley, L. F. Pacios, P. A. Christiansen, R. B. Ross, and W. C. Ermler, J. Chem. Phys. 84, 6840 (1986)., L. A. LaJohn, P. A. Christiansen, R. B. Ross, T. Atashroo, and W. C. Ermler, J. Chem. Phys. 87, 2812 (1987)., R. B. Ross, J. M. Powers, T. Atashroo, W. C. Ermler, L. A. LaJohn, and P. A. Christiansen, J. Chem. Phys. 93, 6654 (1990). 
   Sc-Zn (ecp-10-mdf):
     M. Dolg, U. Wedig, H. Stoll, and H. Preuss, J. Chem. Phys. 86, 866 (1986). 
   Y-Cd (ecp-28-mwb), Hf-Hg (ecp-60-mwb):
     D. Andrae, U. Häußermann, M. Dolg, H. Stoll, and H. Preuß, Theor. Chim. Acta 77, 123 (1990). 
   La (ecp-46-mwb):
     M. Dolg, H. Stoll, and H. Preuss, J. Chem. Phys. 90, 1730 (1989)., M. Dolg, H. Stoll, and H. Preuss, Theor. Chim. Acta 85, 441 (1993).
   Ce-Lu (SBKJC-ecp):
     T. R. Cundari and W. J. Stevens, J. Chem. Phys. 98, 5555 (1993).
   Tl-Rn (ecp-78-mwb):
     W. Küchle, M. Dolg, H. Stoll, and H. Preuss, Mol. Phys. 74, 1245 (1991).

ECP parameters for C  [vDZP-ECP], O  [vDZP-ECP] have been obtained from:
MM, AH, SG, J. Chem. Phys. 158, 014103 (2023), 10.1063/5.0133026

----- Orbital basis set information -----
Your calculation utilizes the basis: vDZP
   Marcel Mueller, Andreas Hansen, Stefan Grimme 
   J. Chem. Phys. 158, 014103 (2023). DOI: 10.1063/5.0133026

----- AuxJ basis set information -----
Your calculation utilizes the auxiliary basis: def2/J
   F. Weigend, Phys. Chem. Chem. Phys. 8, 1057 (2006).

================================================================================
                                        WARNINGS
                       Please study these warnings very carefully!
================================================================================

WARNING: Frozen-Core approximation turned on, but there are no core electrons.
  ===> : Turning off frozen-core approximation


WARNING: Geometry Optimization
  ===> : Switching off AutoStart
         For restart on a previous wavefunction, please use MOREAD

================================================================================
                                       INPUT FILE
================================================================================
NAME = ./output/_z_alpha_santalol/_z_alpha_santalol.inp
|  1> ! wB97X-3c OPT FREQ TightSCF
|  2> %pal
|  3>   nprocs 40
|  4> end
|  5> * xyz 0 1
|  6> C      4.678144     0.385865     1.477795
|  7> C      3.516713    -0.047019     0.621814
|  8> C      2.503583     0.827334     0.425007
|  9> C      1.272349     0.553418    -0.403164
| 10> C      0.194686    -0.161519     0.435572
| 11> C     -1.220239    -0.291834    -0.234785
| 12> C     -2.131327    -1.317940     0.513233
| 13> C     -3.532139    -1.085403    -0.071765
| 14> C     -3.565030     0.421358     0.115385
| 15> C     -2.124877     0.909291     0.047870
| 16> C     -2.789296     0.685120     1.399621
| 17> C     -2.338397    -0.680354     1.893719
| 18> C     -1.854788     2.350569    -0.377184
| 19> C     -1.094905    -0.594442    -1.754021
| 20> C      3.580150    -1.404308    -0.047665
| 21> O      4.322373    -1.321520    -1.233123
| 22> H      4.328327     0.581069     2.513573
| 23> H      5.466634    -0.395233     1.514179
| 24> H      5.127949     1.313260     1.063720
| 25> H      2.554739     1.801424     0.905925
| 26> H      0.876567     1.528537    -0.754188
| 27> H      1.542040    -0.036196    -1.302925
| 28> H      0.559652    -1.178830     0.690719
| 29> H      0.111377     0.405302     1.387307
| 30> H     -1.785243    -2.373406     0.520981
| 31> H     -3.652008    -1.399037    -1.125896
| 32> H     -4.332238    -1.583328     0.521481
| 33> H     -4.411559     1.101792    -0.114784
| 34> H     -3.110177     1.545908     2.023218
| 35> H     -1.423277    -0.638081     2.517002
| 36> H     -3.136799    -1.182652     2.485298
| 37> H     -0.984984     2.746967     0.185734
| 38> H     -2.732495     2.999678    -0.171478
| 39> H     -1.634454     2.384081    -1.463872
| 40> H     -0.525901     0.201786    -2.274189
| 41> H     -2.064187    -0.619107    -2.283674
| 42> H     -0.579397    -1.566376    -1.905527
| 43> H      4.084877    -2.123340     0.631341
| 44> H      2.575020    -1.832855    -0.245100
| 45> H      3.728535    -0.909976    -1.913399
| 46> *
| 47> 
| 48>                          ****END OF INPUT****
================================================================================

                       *****************************
                       * Geometry Optimization Run *
                       *****************************

Geometry optimization settings:
Update method            Update   .... BFGS
Choice of coordinates    CoordSys .... (2022) Redundant Internals
Initial Hessian          InHess   .... Almloef's Model
Max. no of cycles        MaxIter  .... 120

Convergence Tolerances:
Energy Change            TolE     ....  5.0000e-06 Eh
Max. Gradient            TolMAXG  ....  3.0000e-04 Eh/bohr
RMS Gradient             TolRMSG  ....  1.0000e-04 Eh/bohr
Max. Displacement        TolMAXD  ....  4.0000e-03 bohr
RMS Displacement         TolRMSD  ....  2.0000e-03 bohr
Strict Convergence                .... False

------------------------------------------------------------------------------
                        ORCA OPTIMIZATION COORDINATE SETUP
------------------------------------------------------------------------------

The optimization will be done in redundant internal coordinates (2022)
Making redundant internal coordinates   ...  (2022 redundants) done
Evaluating the initial hessian          ...  (Almloef) done
Evaluating the coordinates              ...  done
Calculating the B-matrix                .... done
Calculating the G-matrix                .... done
Diagonalizing the G-matrix              .... done
Small eigenvalue found = 4.921e-03
Small eigenvalue found = 5.868e-03
Small eigenvalue found = 1.258e-02
Small eigenvalue found = 1.635e-02
The first mode is                       ....  113
The number of degrees of freedom        ....  114

    -----------------------------------------------------------------
                    Redundant Internal Coordinates


    -----------------------------------------------------------------
         Definition                    Initial Value    Approx d2E/dq
    -----------------------------------------------------------------
      1. B(C   1,C   0)                  1.5063         0.407521   
      2. B(C   2,C   1)                  1.3526         0.716688   
      3. B(C   3,C   2)                  1.5089         0.403657   
      4. B(C   4,C   3)                  1.5414         0.358229   
      5. B(C   5,C   4)                  1.5711         0.321215   
      6. B(C   6,C   5)                  1.5629         0.331104   
      7. B(C   7,C   6)                  1.5358         0.365748   
      8. B(C   8,C   7)                  1.5187         0.389416   
      9. B(C   9,C   8)                  1.5221         0.384627   
     10. B(C   9,C   5)                  1.5300         0.373546   
     11. B(C  10,C   9)                  1.5228         0.383580   
     12. B(C  10,C   8)                  1.5234         0.382813   
     13. B(C  11,C  10)                  1.5205         0.386823   
     14. B(C  11,C   6)                  1.5346         0.367254   
     15. B(C  12,C   9)                  1.5267         0.378091   
     16. B(C  13,C   5)                  1.5541         0.341869   
     17. B(C  14,C   1)                  1.5147         0.395104   
     18. B(O  15,C  14)                  1.4011         0.537253   
     19. B(H  16,C   0)                  1.1105         0.333921   
     20. B(H  17,C   0)                  1.1105         0.334008   
     21. B(H  18,C   0)                  1.1108         0.333627   
     22. B(H  19,C   2)                  1.0875         0.363365   
     23. B(H  20,C   3)                  1.1094         0.335357   
     24. B(H  21,C   3)                  1.1090         0.335785   
     25. B(H  22,C   4)                  1.1105         0.333971   
     26. B(H  23,C   4)                  1.1109         0.333527   
     27. B(H  24,C   6)                  1.1108         0.333628   
     28. B(H  25,C   7)                  1.1063         0.339155   
     29. B(H  26,C   7)                  1.1136         0.330237   
     30. B(H  27,C   8)                  1.1102         0.334326   
     31. B(H  28,C  10)                  1.1103         0.334207   
     32. B(H  29,C  11)                  1.1080         0.337031   
     33. B(H  30,C  11)                  1.1134         0.330408   
     34. B(H  31,C  12)                  1.1093         0.335441   
     35. B(H  32,C  12)                  1.1109         0.333526   
     36. B(H  33,C  12)                  1.1093         0.335445   
     37. B(H  34,C  13)                  1.1083         0.336693   
     38. B(H  35,C  13)                  1.1048         0.341007   
     39. B(H  36,C  13)                  1.1106         0.333895   
     40. B(H  37,C  14)                  1.1103         0.334201   
     41. B(H  38,C  14)                  1.1104         0.334138   
     42. B(H  39,O  15)                  0.9924         0.461669   
     43. A(C   1,C   0,H  16)          109.7332         0.324932   
     44. A(H  16,C   0,H  18)          109.1767         0.284021   
     45. A(C   1,C   0,H  18)          109.8966         0.324885   
     46. A(C   1,C   0,H  17)          111.3431         0.324946   
     47. A(H  17,C   0,H  18)          108.1766         0.284032   
     48. A(H  16,C   0,H  17)          108.4659         0.284071   
     49. A(C   2,C   1,C  14)          123.1114         0.411001   
     50. A(C   0,C   1,C   2)          118.3218         0.413264   
     51. A(C   0,C   1,C  14)          118.4485         0.372377   
     52. A(C   1,C   2,C   3)          125.0069         0.412566   
     53. A(C   1,C   2,H  19)          118.6460         0.362267   
     54. A(C   3,C   2,H  19)          116.3390         0.328970   
     55. A(C   2,C   3,H  21)          110.0823         0.324721   
     56. A(C   2,C   3,H  20)          107.7707         0.324653   
     57. A(H  20,C   3,H  21)          107.2988         0.284495   
     58. A(C   4,C   3,H  20)          109.2951         0.318370   
     59. A(C   4,C   3,H  21)          111.4004         0.318436   
     60. A(C   2,C   3,C   4)          110.8563         0.365565   
     61. A(C   5,C   4,H  22)          108.5436         0.312567   
     62. A(C   5,C   4,H  23)          109.8976         0.312500   
     63. A(C   3,C   4,H  23)          106.3768         0.318086   
     64. A(C   3,C   4,H  22)          108.6715         0.318155   
     65. A(H  22,C   4,H  23)          107.1715         0.284014   
     66. A(C   3,C   4,C   5)          115.8451         0.351628   
     67. A(C   6,C   5,C  13)          112.7709         0.350653   
     68. A(C   4,C   5,C  13)          111.1381         0.348864   
     69. A(C   4,C   5,C   6)          112.0400         0.346989   
     70. A(C   9,C   5,C  13)          112.4035         0.357894   
     71. A(C   6,C   5,C   9)           94.7220         0.355954   
     72. A(C   4,C   5,C   9)          112.8639         0.354128   
     73. A(C  11,C   6,H  24)          115.5016         0.319395   
     74. A(C   7,C   6,H  24)          115.5132         0.319181   
     75. A(C   5,C   6,H  24)          116.4597         0.314055   
     76. A(C   5,C   6,C   7)          104.4781         0.354682   
     77. A(C   7,C   6,C  11)           99.0138         0.360987   
     78. A(C   5,C   6,C  11)          103.6759         0.354930   
     79. A(C   6,C   7,C   8)           97.0675         0.364618   
     80. A(H  25,C   7,H  26)          107.6381         0.284257   
     81. A(C   6,C   7,H  26)          112.6270         0.318650   
     82. A(C   6,C   7,H  25)          114.7622         0.320039   
     83. A(C   8,C   7,H  26)          111.2489         0.321932   
     84. A(C   8,C   7,H  25)          113.3495         0.323341   
     85. A(C   9,C   8,H  27)          121.0500         0.321928   
     86. A(C   7,C   8,H  27)          126.8007         0.322582   
     87. A(C   9,C   8,C  10)           60.0043         0.366699   
     88. A(C   7,C   8,C  10)          105.3458         0.367478   
     89. A(C  10,C   8,H  27)          117.1899         0.321679   
     90. A(C   7,C   8,C   9)          106.9835         0.367776   
     91. A(C   8,C   9,C  10)           60.0398         0.366825   
     92. A(C   5,C   9,C  10)          107.8422         0.364993   
     93. A(C  10,C   9,C  12)          117.5997         0.365749   
     94. A(C   8,C   9,C  12)          118.8401         0.365920   
     95. A(C   5,C   9,C  12)          125.8079         0.364094   
     96. A(C   5,C   9,C   8)          108.4195         0.365163   
     97. A(C  11,C  10,H  28)          126.8276         0.322210   
     98. A(C   9,C  10,H  28)          120.6985         0.321766   
     99. A(C   8,C  10,H  28)          117.4226         0.321661   
    100. A(C   9,C  10,C  11)          106.9338         0.367183   
    101. A(C   8,C  10,C  11)          105.6325         0.367057   
    102. A(C   8,C  10,C   9)           59.9559         0.366528   
    103. A(C   6,C  11,H  29)          114.2314         0.319925   
    104. A(C   6,C  11,C  10)           96.9382         0.364458   
    105. A(H  29,C  11,H  30)          108.0934         0.284002   
    106. A(C  10,C  11,H  30)          111.4162         0.321607   
    107. A(C   6,C  11,H  30)          112.7848         0.318890   
    108. A(C  10,C  11,H  29)          113.1692         0.322655   
    109. A(H  32,C  12,H  33)          108.7042         0.284209   
    110. A(H  31,C  12,H  33)          109.3032         0.284462   
    111. A(C   9,C  12,H  33)          109.6570         0.321202   
    112. A(H  31,C  12,H  32)          108.4666         0.284208   
    113. A(C   9,C  12,H  32)          111.1181         0.320901   
    114. A(C   9,C  12,H  31)          109.5586         0.321202   
    115. A(H  34,C  13,H  36)          109.0505         0.284422   
    116. A(C   5,C  13,H  36)          109.9498         0.315732   
    117. A(H  34,C  13,H  35)          103.9724         0.285356   
    118. A(C   5,C  13,H  35)          113.7174         0.316816   
    119. A(C   5,C  13,H  34)          111.1197         0.316160   
    120. A(H  35,C  13,H  36)          108.8019         0.284986   
    121. A(C   1,C  14,O  15)          110.0715         0.388187   
    122. A(H  37,C  14,H  38)          105.6818         0.284125   
    123. A(O  15,C  14,H  38)          110.6035         0.338132   
    124. A(C   1,C  14,H  38)          112.7374         0.323320   
    125. A(O  15,C  14,H  37)          108.3534         0.338142   
    126. A(C   1,C  14,H  37)          109.2097         0.323330   
    127. A(C  14,O  15,H  39)          106.7088         0.353922   
    128. D(C  14,C   1,C   0,H  16)   -120.6628         0.012306   
    129. D(C   2,C   1,C   0,H  16)     63.1663         0.012306   
    130. D(C   2,C   1,C   0,H  17)   -176.7382         0.012306   
    131. D(C  14,C   1,C   0,H  17)     -0.5673         0.012306   
    132. D(C   2,C   1,C   0,H  18)    -56.8968         0.012306   
    133. D(C   3,C   2,C   1,C   0)    179.9251         0.036324   
    134. D(C   3,C   2,C   1,C  14)      3.9449         0.036324   
    135. D(H  19,C   2,C   1,C  14)   -177.1366         0.036324   
    136. D(H  19,C   2,C   1,C   0)     -1.1564         0.036324   
    137. D(H  20,C   3,C   2,C   1)   -154.8978         0.012083   
    138. D(C   4,C   3,C   2,H  19)    -93.4048         0.012083   
    139. D(H  20,C   3,C   2,H  19)     26.1613         0.012083   
    140. D(H  21,C   3,C   2,C   1)    -38.1771         0.012083   
    141. D(C   4,C   3,C   2,C   1)     85.5361         0.012083   
    142. D(C   5,C   4,C   3,C   2)    170.2631         0.010303   
    143. D(H  22,C   4,C   3,H  21)     55.6761         0.010303   
    144. D(H  22,C   4,C   3,H  20)    174.0736         0.010303   
    145. D(H  22,C   4,C   3,C   2)    -67.2781         0.010303   
    146. D(C   5,C   4,C   3,H  21)    -66.7827         0.010303   
    147. D(C   5,C   4,C   3,H  20)     51.6149         0.010303   
    148. D(C   9,C   5,C   4,H  22)    148.8282         0.008451   
    149. D(C   9,C   5,C   4,C   3)    -88.6455         0.008451   
    150. D(C   9,C   5,C   4,H  23)     31.9187         0.008451   
    151. D(C   6,C   5,C   4,H  22)     43.3368         0.008451   
    152. D(C   6,C   5,C   4,H  23)    -73.5727         0.008451   
    153. D(C   6,C   5,C   4,C   3)    165.8631         0.008451   
    154. D(C  11,C   6,C   5,C   9)    -52.3446         0.008922   
    155. D(C  11,C   6,C   5,C   4)     64.6588         0.008922   
    156. D(C   7,C   6,C   5,C  13)    -65.7918         0.008922   
    157. D(C   7,C   6,C   5,C   9)     50.9149         0.008922   
    158. D(C   7,C   6,C   5,C   4)    167.9183         0.008922   
    159. D(C  11,C   6,C   5,C  13)   -169.0513         0.008922   
    160. D(H  25,C   7,C   6,H  24)    -60.0300         0.010709   
    161. D(H  25,C   7,C   6,C  11)    176.0020         0.010709   
    162. D(H  25,C   7,C   6,C   5)     69.2520         0.010709   
    163. D(C   8,C   7,C   6,H  24)   -179.8318         0.010709   
    164. D(C   8,C   7,C   6,C  11)     56.2003         0.010709   
    165. D(C   8,C   7,C   6,C   5)    -50.5498         0.010709   
    166. D(C  10,C   8,C   7,H  26)     83.5009         0.012058   
    167. D(C  10,C   8,C   7,C   6)    -34.1552         0.012058   
    168. D(C  10,C   8,C   7,H  25)   -155.0345         0.012058   
    169. D(C   9,C   8,C   7,H  26)    146.2271         0.012058   
    170. D(C   9,C   8,C   7,H  25)    -92.3083         0.012058   
    171. D(C   9,C   8,C   7,C   6)     28.5709         0.012058   
    172. D(C  12,C   9,C   8,C   7)    154.7262         0.011776   
    173. D(C  10,C   9,C   8,C   7)    -98.2333         0.011776   
    174. D(C   5,C   9,C   8,H  27)   -154.0207         0.011776   
    175. D(C   5,C   9,C   8,C  10)    100.4153         0.011776   
    176. D(C   5,C   9,C   8,C   7)      2.1820         0.011776   
    177. D(C  10,C   9,C   5,C  13)    149.3974         0.011142   
    178. D(C  10,C   9,C   5,C   6)     32.3888         0.011142   
    179. D(C  10,C   9,C   5,C   4)    -83.9366         0.011142   
    180. D(C   8,C   9,C   5,C  13)     85.8696         0.011142   
    181. D(C  10,C   9,C   8,H  27)    105.5639         0.011776   
    182. D(C   8,C   9,C   5,C   6)    -31.1389         0.011142   
    183. D(C   8,C   9,C   5,C   4)   -147.4643         0.011142   
    184. D(H  28,C  10,C   8,C   7)   -147.6037         0.011671   
    185. D(C  11,C  10,C   8,H  27)    147.2887         0.011671   
    186. D(C  11,C  10,C   8,C   9)   -100.8104         0.011671   
    187. D(C  11,C  10,C   8,C   7)      0.2196         0.011671   
    188. D(C   9,C  10,C   8,H  27)   -111.9008         0.011671   
    189. D(C   8,C  10,C   9,C   5)   -101.3964         0.011715   
    190. D(C   9,C  10,C   8,C   7)    101.0301         0.011671   
    191. D(H  28,C  10,C   9,C   5)    152.6210         0.011715   
    192. D(C  11,C  10,C   9,C  12)   -152.3319         0.011715   
    193. D(C  11,C  10,C   9,C   8)     98.5865         0.011715   
    194. D(C  11,C  10,C   9,C   5)     -2.8099         0.011715   
    195. D(C   8,C  10,C   9,C  12)    109.0816         0.011715   
    196. D(H  29,C  11,C  10,H  28)    -62.2480         0.011905   
    197. D(H  29,C  11,C  10,C   8)    153.9474         0.011905   
    198. D(C   6,C  11,C  10,H  28)    177.6327         0.011905   
    199. D(C   6,C  11,C  10,C   9)    -28.8967         0.011905   
    200. D(C   6,C  11,C  10,C   8)     33.8281         0.011905   
    201. D(H  29,C  11,C   6,H  24)     60.7869         0.010792   
    202. D(H  29,C  11,C   6,C   7)   -175.2369         0.010792   
    203. D(H  29,C  11,C   6,C   5)    -67.8321         0.010792   
    204. D(C  10,C  11,C   6,H  24)   -179.9110         0.010792   
    205. D(H  29,C  11,C  10,C   9)     91.2226         0.011905   
    206. D(C  10,C  11,C   6,C   7)    -55.9348         0.010792   
    207. D(C  10,C  11,C   6,C   5)     51.4701         0.010792   
    208. D(H  32,C  12,C   9,C  10)    -44.4628         0.011399   
    209. D(H  32,C  12,C   9,C   8)     24.7170         0.011399   
    210. D(H  32,C  12,C   9,C   5)    172.0742         0.011399   
    211. D(H  31,C  12,C   9,C  10)     75.3762         0.011399   
    212. D(H  31,C  12,C   9,C   8)    144.5560         0.011399   
    213. D(H  31,C  12,C   9,C   5)    -68.0867         0.011399   
    214. D(H  35,C  13,C   5,C   9)    -48.0408         0.009454   
    215. D(H  35,C  13,C   5,C   6)     57.6004         0.009454   
    216. D(H  35,C  13,C   5,C   4)   -175.6280         0.009454   
    217. D(H  34,C  13,C   5,C   9)     68.8581         0.009454   
    218. D(H  34,C  13,C   5,C   6)    174.4993         0.009454   
    219. D(H  34,C  13,C   5,C   4)    -58.7291         0.009454   
    220. D(H  38,C  14,C   1,C   0)    153.5123         0.011599   
    221. D(H  37,C  14,C   1,C   2)   -147.6653         0.011599   
    222. D(H  37,C  14,C   1,C   0)     36.3593         0.011599   
    223. D(O  15,C  14,C   1,C   2)     93.4981         0.011599   
    224. D(O  15,C  14,C   1,C   0)    -82.4772         0.011599   
    225. D(H  39,O  15,C  14,H  38)     47.5849         0.022951   
    226. D(H  39,O  15,C  14,H  37)    162.9866         0.022951   
    227. D(H  39,O  15,C  14,C   1)    -77.6536         0.022951   
    -----------------------------------------------------------------

Number of atoms                         .... 40
Number of degrees of freedom            .... 227


         *************************************************************
         *                GEOMETRY OPTIMIZATION CYCLE   1            *
         *************************************************************
---------------------------------
CARTESIAN COORDINATES (ANGSTROEM)
---------------------------------
  C      4.678144    0.385865    1.477795
  C      3.516713   -0.047019    0.621814
  C      2.503583    0.827334    0.425007
  C      1.272349    0.553418   -0.403164
  C      0.194686   -0.161519    0.435572
  C     -1.220239   -0.291834   -0.234785
  C     -2.131327   -1.317940    0.513233
  C     -3.532139   -1.085403   -0.071765
  C     -3.565030    0.421358    0.115385
  C     -2.124877    0.909291    0.047870
  C     -2.789296    0.685120    1.399621
  C     -2.338397   -0.680354    1.893719
  C     -1.854788    2.350569   -0.377184
  C     -1.094905   -0.594442   -1.754021
  C      3.580150   -1.404308   -0.047665
  O      4.322373   -1.321520   -1.233123
  H      4.328327    0.581069    2.513573
  H      5.466634   -0.395233    1.514179
  H      5.127949    1.313260    1.063720
  H      2.554739    1.801424    0.905925
  H      0.876567    1.528537   -0.754188
  H      1.542040   -0.036196   -1.302925
  H      0.559652   -1.178830    0.690719
  H      0.111377    0.405302    1.387307
  H     -1.785243   -2.373406    0.520981
  H     -3.652008   -1.399037   -1.125896
  H     -4.332238   -1.583328    0.521481
  H     -4.411559    1.101792   -0.114784
  H     -3.110177    1.545908    2.023218
  H     -1.423277   -0.638081    2.517002
  H     -3.136799   -1.182652    2.485298
  H     -0.984984    2.746967    0.185734
  H     -2.732495    2.999678   -0.171478
  H     -1.634454    2.384081   -1.463872
  H     -0.525901    0.201786   -2.274189
  H     -2.064187   -0.619107   -2.283674
  H     -0.579397   -1.566376   -1.905527
  H      4.084877   -2.123340    0.631341
  H      2.575020   -1.832855   -0.245100
  H      3.728535   -0.909976   -1.913399

----------------------------
CARTESIAN COORDINATES (A.U.)
----------------------------
  NO LB      ZA    FRAG     MASS         X           Y           Z
   0 C     4.0000*   0    12.011    8.840411    0.729179    2.792628
   1 C     4.0000*   0    12.011    6.645624   -0.088853    1.175058
   2 C     4.0000*   0    12.011    4.731086    1.563435    0.803147
   3 C     4.0000*   0    12.011    2.404391    1.045808   -0.761870
   4 C     4.0000*   0    12.011    0.367903   -0.305227    0.823112
   5 C     4.0000*   0    12.011   -2.305918   -0.551486   -0.443679
   6 C     4.0000*   0    12.011   -4.027624   -2.490546    0.969870
   7 C     4.0000*   0    12.011   -6.674775   -2.051114   -0.135616
   8 C     4.0000*   0    12.011   -6.736930    0.796251    0.218046
   9 C     4.0000*   0    12.011   -4.015436    1.718311    0.090461
  10 C     4.0000*   0    12.011   -5.271006    1.294689    2.644900
  11 C     4.0000*   0    12.011   -4.418930   -1.285683    3.578610
  12 C     4.0000*   0    12.011   -3.505041    4.441932   -0.712774
  13 C     4.0000*   0    12.011   -2.069071   -1.123333   -3.314619
  14 C     4.0000*   0    12.011    6.765503   -2.653758   -0.090074
  15 O     6.0000*   0    15.999    8.168101   -2.497311   -2.330265
  16 H     1.0000    0     1.008    8.179353    1.098061    4.749965
  17 H     1.0000    0     1.008   10.330441   -0.746882    2.861384
  18 H     1.0000    0     1.008    9.690419    2.481702    2.010139
  19 H     1.0000    0     1.008    4.827757    3.404198    1.711950
  20 H     1.0000    0     1.008    1.656472    2.888516   -1.425209
  21 H     1.0000    0     1.008    2.914033   -0.068401   -2.462171
  22 H     1.0000    0     1.008    1.057589   -2.227666    1.305270
  23 H     1.0000    0     1.008    0.210472    0.765910    2.621630
  24 H     1.0000    0     1.008   -3.373620   -4.485087    0.984511
  25 H     1.0000    0     1.008   -6.901295   -2.643797   -2.127635
  26 H     1.0000    0     1.008   -8.186743   -2.992056    0.985456
  27 H     1.0000    0     1.008   -8.336638    2.082085   -0.216910
  28 H     1.0000    0     1.008   -5.877383    2.921343    3.823328
  29 H     1.0000    0     1.008   -2.689604   -1.205798    4.756444
  30 H     1.0000    0     1.008   -5.927691   -2.234888    4.696533
  31 H     1.0000    0     1.008   -1.861350    5.191015    0.350986
  32 H     1.0000    0     1.008   -5.163667    5.668570   -0.324046
  33 H     1.0000    0     1.008   -3.088670    4.505260   -2.766317
  34 H     1.0000    0     1.008   -0.993809    0.381320   -4.297594
  35 H     1.0000    0     1.008   -3.900748   -1.169943   -4.315518
  36 H     1.0000    0     1.008   -1.094902   -2.960022   -3.600924
  37 H     1.0000    0     1.008    7.719299   -4.012531    1.193062
  38 H     1.0000    0     1.008    4.866083   -3.463594   -0.463172
  39 H     1.0000    0     1.008    7.045910   -1.719605   -3.615800
* core charge reduced due to ECP

--------------------------------
INTERNAL COORDINATES (ANGSTROEM)
--------------------------------
 C      0   0   0     0.000000000000     0.00000000     0.00000000
 C      1   0   0     1.506324665395     0.00000000     0.00000000
 C      2   1   0     1.352648720385   118.32178855     0.00000000
 C      3   2   1     1.508918269176   125.00686483   179.92513463
 C      4   3   2     1.541418351141   110.85632416    85.53608598
 C      5   4   3     1.571105745104   115.84505101   170.26312499
 C      6   5   4     1.562851814890   112.03997134   165.86308910
 C      7   6   5     1.535763776014   104.47809298   167.91833893
 C      8   7   6     1.518695378113    97.06748740   309.45022810
 C      9   8   7     1.522063583141   106.98348561    28.57091562
 C     10   9   8     1.522805309553    60.03979205   261.76667630
 C     11  10   9     1.520513724529   106.93377700    98.58649248
 C     10   9   8     1.526728936033   118.84010986   154.72617028
 C      6   5   4     1.554142283356   111.13809855    38.69116849
 C      2   1   3     1.514747442292   118.44853629   176.17085488
 O     15   2   1     1.401092254078   110.07145916   277.52275083
 H      1   2   3     1.110546082065   109.73315420    63.16630450
 H      1   2   3     1.110474835897   111.34311723   183.26181576
 H      1   2   3     1.110785366160   109.89662690   303.10316717
 H      3   2   1     1.087543280592   118.64598772   358.84363036
 H      4   3   2     1.109377439946   107.77073229   205.10220715
 H      4   3   2     1.109030099500   110.08233730   321.82294423
 H      5   4   3     1.110505219927   108.67150648   292.72186612
 H      5   4   3     1.110867204371   106.37683113    47.81690968
 H      7   6   5     1.110784697282   116.45969343   296.63058942
 H      8   7   6     1.106312355656   114.76224122    69.25197537
 H      8   7   6     1.113565683712   112.62695722   192.87810140
 H      9   8   7     1.110215990138   126.80071409   182.99427669
 H     11  10   9     1.110312485526   120.69853644   254.01741146
 H     12  11  10     1.108022255651   113.16922388    91.22257424
 H     12  11  10     1.113424783112   111.41621088   213.27701993
 H     13  10   9     1.109309265960   109.55863556   144.55600946
 H     13  10   9     1.110867692467   111.11806974    24.71697165
 H     13  10   9     1.109306510863   109.65699169   264.51786745
 H     14   6   5     1.108295686279   111.11969431   301.27088791
 H     14   6   5     1.104829515427   113.71743429   184.37201700
 H     14   6   5     1.110566642060   109.94983058    62.09786221
 H     15   2   1     1.110317751632   109.20965513    36.35929191
 H     15   2   1     1.110369050061   112.73736831   153.51225656
 H     16  15   2     0.992364585400   106.70881433   282.34635900

---------------------------
INTERNAL COORDINATES (A.U.)
---------------------------
 C      0   0   0     0.000000000000     0.00000000     0.00000000
 C      1   0   0     2.846541086368     0.00000000     0.00000000
 C      2   1   0     2.556135636926   118.32178855     0.00000000
 C      3   2   1     2.851442287213   125.00686483   179.92513463
 C      4   3   2     2.912858541457   110.85632416    85.53608598
 C      5   4   3     2.968959585677   115.84505101   170.26312499
 C      6   5   4     2.953361918043   112.03997134   165.86308910
 C      7   6   5     2.902172943063   104.47809298   167.91833893
 C      8   7   6     2.869918345486    97.06748740   309.45022810
 C      9   8   7     2.876283330551   106.98348561    28.57091562
 C     10   9   8     2.877684990336    60.03979205   261.76667630
 C     11  10   9     2.873354522228   106.93377700    98.58649248
 C     10   9   8     2.885099569836   118.84010986   154.72617028
 C      6   5   4     2.936903288690   111.13809855    38.69116849
 C      2   1   3     2.862457827990   118.44853629   176.17085488
 O     15   2   1     2.647680648566   110.07145916   277.52275083
 H      1   2   3     2.098627954201   109.73315420    63.16630450
 H      1   2   3     2.098493318456   111.34311723   183.26181576
 H      1   2   3     2.099080135610   109.89662690   303.10316717
 H      3   2   1     2.055158959104   118.64598772   358.84363036
 H      4   3   2     2.096419540648   107.77073229   205.10220715
 H      4   3   2     2.095763162331   110.08233730   321.82294423
 H      5   4   3     2.098550735953   108.67150648   292.72186612
 H      5   4   3     2.099234787416   106.37683113    47.81690968
 H      7   6   5     2.099078871614   116.45969343   296.63058942
 H      8   7   6     2.090627370764   114.76224122    69.25197537
 H      8   7   6     2.104334174349   112.62695722   192.87810140
 H      9   8   7     2.098004170861   126.80071409   182.99427669
 H     11  10   9     2.098186520717   120.69853644   254.01741146
 H     12  11  10     2.093858613470   113.16922388    91.22257424
 H     12  11  10     2.104067910803   111.41621088   213.27701993
 H     13  10   9     2.096290710485   109.55863556   144.55600946
 H     13  10   9     2.099235709783   111.11806974    24.71697165
 H     13  10   9     2.096285504108   109.65699169   264.51786745
 H     14   6   5     2.094375322473   111.11969431   301.27088791
 H     14   6   5     2.087825208829   113.71743429   184.37201700
 H     14   6   5     2.098666806962   109.94983058    62.09786221
 H     15   2   1     2.098196472216   109.20965513    36.35929191
 H     15   2   1     2.098293412198   112.73736831   153.51225656
 H     16  15   2     1.875297291408   106.70881433   282.34635900

---------------------
BASIS SET INFORMATION
---------------------
There are 3 groups of distinct atoms

 Group   1 Type C   : 6s6p2d contracted to 2s2p1d pattern {42/42/2}
 Group   2 Type O   : 6s6p2d contracted to 2s2p1d pattern {42/42/2}
 Group   3 Type H   : 8s2p contracted to 2s1p pattern {53/2}

Atom   0C    basis set group =>   1
Atom   1C    basis set group =>   1
Atom   2C    basis set group =>   1
Atom   3C    basis set group =>   1
Atom   4C    basis set group =>   1
Atom   5C    basis set group =>   1
Atom   6C    basis set group =>   1
Atom   7C    basis set group =>   1
Atom   8C    basis set group =>   1
Atom   9C    basis set group =>   1
Atom  10C    basis set group =>   1
Atom  11C    basis set group =>   1
Atom  12C    basis set group =>   1
Atom  13C    basis set group =>   1
Atom  14C    basis set group =>   1
Atom  15O    basis set group =>   2
Atom  16H    basis set group =>   3
Atom  17H    basis set group =>   3
Atom  18H    basis set group =>   3
Atom  19H    basis set group =>   3
Atom  20H    basis set group =>   3
Atom  21H    basis set group =>   3
Atom  22H    basis set group =>   3
Atom  23H    basis set group =>   3
Atom  24H    basis set group =>   3
Atom  25H    basis set group =>   3
Atom  26H    basis set group =>   3
Atom  27H    basis set group =>   3
Atom  28H    basis set group =>   3
Atom  29H    basis set group =>   3
Atom  30H    basis set group =>   3
Atom  31H    basis set group =>   3
Atom  32H    basis set group =>   3
Atom  33H    basis set group =>   3
Atom  34H    basis set group =>   3
Atom  35H    basis set group =>   3
Atom  36H    basis set group =>   3
Atom  37H    basis set group =>   3
Atom  38H    basis set group =>   3
Atom  39H    basis set group =>   3
---------------------------------
AUXILIARY/J BASIS SET INFORMATION
---------------------------------
There are 3 groups of distinct atoms

 Group   1 Type C   : 12s5p4d2f1g contracted to 6s4p3d1f1g pattern {711111/2111/211/2/1}
 Group   2 Type O   : 12s5p4d2f1g contracted to 6s4p3d1f1g pattern {711111/2111/211/2/1}
 Group   3 Type H   : 5s2p1d contracted to 3s1p1d pattern {311/2/1}

Atom   0C    basis set group =>   1
Atom   1C    basis set group =>   1
Atom   2C    basis set group =>   1
Atom   3C    basis set group =>   1
Atom   4C    basis set group =>   1
Atom   5C    basis set group =>   1
Atom   6C    basis set group =>   1
Atom   7C    basis set group =>   1
Atom   8C    basis set group =>   1
Atom   9C    basis set group =>   1
Atom  10C    basis set group =>   1
Atom  11C    basis set group =>   1
Atom  12C    basis set group =>   1
Atom  13C    basis set group =>   1
Atom  14C    basis set group =>   1
Atom  15O    basis set group =>   2
Atom  16H    basis set group =>   3
Atom  17H    basis set group =>   3
Atom  18H    basis set group =>   3
Atom  19H    basis set group =>   3
Atom  20H    basis set group =>   3
Atom  21H    basis set group =>   3
Atom  22H    basis set group =>   3
Atom  23H    basis set group =>   3
Atom  24H    basis set group =>   3
Atom  25H    basis set group =>   3
Atom  26H    basis set group =>   3
Atom  27H    basis set group =>   3
Atom  28H    basis set group =>   3
Atom  29H    basis set group =>   3
Atom  30H    basis set group =>   3
Atom  31H    basis set group =>   3
Atom  32H    basis set group =>   3
Atom  33H    basis set group =>   3
Atom  34H    basis set group =>   3
Atom  35H    basis set group =>   3
Atom  36H    basis set group =>   3
Atom  37H    basis set group =>   3
Atom  38H    basis set group =>   3
Atom  39H    basis set group =>   3
-------------------------
ECP PARAMETER INFORMATION
-------------------------

 Group 1, Type C  ECP vDZP-ECP (replacing 2 core electrons, lmax=3)
 Group 2, Type O  ECP vDZP-ECP (replacing 2 core electrons, lmax=3)

Atom   0C    ECP group =>   1
Atom   1C    ECP group =>   1
Atom   2C    ECP group =>   1
Atom   3C    ECP group =>   1
Atom   4C    ECP group =>   1
Atom   5C    ECP group =>   1
Atom   6C    ECP group =>   1
Atom   7C    ECP group =>   1
Atom   8C    ECP group =>   1
Atom   9C    ECP group =>   1
Atom  10C    ECP group =>   1
Atom  11C    ECP group =>   1
Atom  12C    ECP group =>   1
Atom  13C    ECP group =>   1
Atom  14C    ECP group =>   1
Atom  15O    ECP group =>   2



           ************************************************************
           *        Program running with 40 parallel MPI-processes    *
           *              working on a common directory               *
           ************************************************************
------------------------------------------------------------------------------
                             ORCA STARTUP CALCULATIONS
                           -- RI-GTO INTEGRALS CHOSEN --
------------------------------------------------------------------------------
------------------------------------------------------------------------------
                   ___                                                        
                  /   \      - P O W E R E D   B Y -                         
                 /     \                                                     
                 |  |  |   _    _      __       _____    __    __             
                 |  |  |  | |  | |    /  \     |  _  \  |  |  /  |          
                  \  \/   | |  | |   /    \    | | | |  |  | /  /          
                 / \  \   | |__| |  /  /\  \   | |_| |  |  |/  /          
                |  |  |   |  __  | /  /__\  \  |    /   |      \           
                |  |  |   | |  | | |   __   |  |    \   |  |\   \          
                \     /   | |  | | |  |  |  |  | |\  \  |  | \   \       
                 \___/    |_|  |_| |__|  |__|  |_| \__\ |__|  \__/        
                                                                              
                      - O R C A' S   B I G   F R I E N D -                    
                                      &                                       
                       - I N T E G R A L  F E E D E R -                       
                                                                              
 v1 FN, 2020, v2 2021, v3 2022-2024                                           
------------------------------------------------------------------------------


----------------------
SHARK INTEGRAL PACKAGE
----------------------

Number of atoms                             ...     40
Number of basis functions                   ...    328
Number of shells                            ...    152
Maximum angular momentum                    ...      2
Integral batch strategy                     ... SHARK/LIBINT Hybrid
RI-J (if used) integral strategy            ... SPLIT-RIJ (Revised 2003 algorithm where possible)
Printlevel                                  ...      1
Contraction scheme used                     ... SEGMENTED contraction
Prescreening option                         ... SCHWARTZ
   Thresh                                   ... 2.500e-11
   Tcut                                     ... 2.500e-12
   Tpresel                                  ... 2.500e-12 
Coulomb Range Separation                    ... NOT USED
Exchange Range Separation                   ... Long Range
   Mu parameter                             ... 3.000e-01
   Scaling (regular/separated)              ... 1.670e-01 8.330e-01
Multipole approximations                    ... NOT USED
Finite Nucleus Model                        ... NOT USED
CABS basis                                  ... NOT available
Auxiliary Coulomb fitting basis             ... AVAILABLE
   # of basis functions in Aux-J            ...   1048
   # of shells in Aux-J                     ...    360
   Maximum angular momentum in Aux-J        ...      4
Auxiliary J/K fitting basis                 ... NOT available
Auxiliary Correlation fitting basis         ... NOT available
Auxiliary 'external' fitting basis          ... NOT available

Checking pre-screening integrals            ... done (  0.0 sec) Dimension = 152
Check shell pair data                       ... done (  0.0 sec)
Shell pair information
Shell pair cut-off parameter TPreSel        ...   2.5e-12
Total number of shell pairs                 ...     11628
Shell pairs after pre-screening             ...     11285
Total number of primitive shell pairs       ...    108456
Primitive shell pairs kept                  ...     79039
          la=0 lb=0:   3198 shell pairs
          la=1 lb=0:   4349 shell pairs
          la=1 lb=1:   1491 shell pairs
          la=2 lb=0:   1257 shell pairs
          la=2 lb=1:    858 shell pairs
          la=2 lb=2:    132 shell pairs

Calculating one electron integrals          ... done (  0.0 sec)
Calculating ECP integrals                   ... done (  0.2 sec)
Calculating RI/J V-Matrix + Cholesky decomp.... done (  0.1 sec)
Calculating Nuclear repulsion               ... done (  0.0 sec) ENN=    622.072405561204 Eh

Diagonalization of the overlap matrix:
Smallest eigenvalue                        ... 9.536e-04
Time for diagonalization                   ...    0.015 sec
Threshold for overlap eigenvalues          ... 1.000e-07
Number of eigenvalues below threshold      ... 0
Time for construction of square roots      ...    0.009 sec
Total time needed                          ...    0.028 sec

-------------------
DFT GRID GENERATION
-------------------

General Integration Accuracy     IntAcc      ... 4.388
Radial Grid Type                 RadialGrid  ... OptM3 with GC (2021)
Angular Grid (max. ang.)         AngularGrid ... 4 (Lebedev-302)
Angular grid pruning method      GridPruning ... 4 (adaptive)
Weight generation scheme         WeightScheme... mBecke (2022)
Basis function cutoff            BFCut       ... 1.0000e-11
Integration weight cutoff        WCut        ... 1.0000e-14
Partially contracted basis set               ... off
Rotationally invariant grid construction     ... off
Angular grids for H and He will be reduced by one unit

Total number of grid points                  ...   170829
Total number of batches                      ...     2692
Average number of points per batch           ...       63
Average number of grid points per atom       ...     4271

--------------------
COSX GRID GENERATION
--------------------

GRIDX 1
-------
General Integration Accuracy     IntAcc      ... 3.816
Radial Grid Type                 RadialGrid  ... OptM3 with GC (2021)
Angular Grid (max. ang.)         AngularGrid ... 1 (Lebedev-50)
Angular grid pruning method      GridPruning ... 4 (adaptive)
Weight generation scheme         WeightScheme... mBecke (2022)
Basis function cutoff            BFCut       ... 1.0000e-11
Integration weight cutoff        WCut        ... 1.0000e-14
Partially contracted basis set               ... on
Rotationally invariant grid construction     ... off
Angular grids for H and He will be reduced by one unit

Total number of grid points                  ...    21777
Total number of batches                      ...      195
Average number of points per batch           ...      111
Average number of grid points per atom       ...      544
UseSFitting                                  ... on

GRIDX 2
-------
General Integration Accuracy     IntAcc      ... 4.020
Radial Grid Type                 RadialGrid  ... OptM3 with GC (2021)
Angular Grid (max. ang.)         AngularGrid ... 2 (Lebedev-110)
Angular grid pruning method      GridPruning ... 4 (adaptive)
Weight generation scheme         WeightScheme... mBecke (2022)
Basis function cutoff            BFCut       ... 1.0000e-11
Integration weight cutoff        WCut        ... 1.0000e-14
Partially contracted basis set               ... on
Rotationally invariant grid construction     ... off
Angular grids for H and He will be reduced by one unit

Total number of grid points                  ...    45280
Total number of batches                      ...      372
Average number of points per batch           ...      121
Average number of grid points per atom       ...     1132
UseSFitting                                  ... on

GRIDX 3
-------
General Integration Accuracy     IntAcc      ... 4.338
Radial Grid Type                 RadialGrid  ... OptM3 with GC (2021)
Angular Grid (max. ang.)         AngularGrid ... 3 (Lebedev-194)
Angular grid pruning method      GridPruning ... 4 (adaptive)
Weight generation scheme         WeightScheme... mBecke (2022)
Basis function cutoff            BFCut       ... 1.0000e-11
Integration weight cutoff        WCut        ... 1.0000e-14
Partially contracted basis set               ... on
Rotationally invariant grid construction     ... off
Angular grids for H and He will be reduced by one unit

Total number of grid points                  ...    98298
Total number of batches                      ...      793
Average number of points per batch           ...      123
Average number of grid points per atom       ...     2457
UseSFitting                                  ... on
Initializing property integral containers    ... done (  0.0 sec)

SHARK setup successfully completed in   5.7 seconds

Maximum memory used throughout the entire STARTUP-calculation: 54.6 MB


           ************************************************************
           *        Program running with 40 parallel MPI-processes    *
           *              working on a common directory               *
           ************************************************************
-------------------------------------------------------------------------------
                                 ORCA GUESS
                   Start orbitals & Density for SCF / CASSCF
-------------------------------------------------------------------------------

------------
SCF SETTINGS
------------
Hamiltonian:
 Density Functional     Method          .... DFT(GTOs)
 Exchange Functional    Exchange        .... WB97X-V
 Correlation Functional Correlation     .... WB97X-V
 Gradients option       PostSCFGGA      .... off
 Hybrid DFT is turned on
   Fraction HF Exchange ScalHFX         ....  0.167000
   Scaling of DF-GGA-X  ScalDFX         ....  0.000000
   Scaling of DF-GGA-C  ScalDFC         ....  1.000000
   Scaling of DF-LDA-C  ScalLDAC        ....  1.000000
   Perturbative correction              ....  0.000000
 Long-range corrected/Screened/Range-Separated Hybrid DFT is turned on
   Amount of maximum screened exact exchange              ....  0.833000
   Range separation parameter mu (erf(mu*r12)/r12)        ....  0.300000
   NL short-range parameter             ....  6.000000
   NL long-range parameter              ....  0.010000
 RI-approximation to the Coulomb term is turned on
   Number of AuxJ basis functions       .... 1048
   RIJ-COSX (HFX calculated with COS-X)).... on


General Settings:
 Integral files         IntName         .... ./output/_z_alpha_santalol/_z_alpha_santalol
 Hartree-Fock type      HFTyp           .... RHF
 Total Charge           Charge          ....    0
 Multiplicity           Mult            ....    1
 Number of Electrons    NEL             ....   90
 Basis Dimension        Dim             ....  328
 Nuclear Repulsion      ENuc            ....    622.0724055612 Eh

Convergence Acceleration:
 AO-DIIS                CNVDIIS         .... on
   Start iteration      DIISMaxIt       ....    12
   Startup error        DIISStart       ....  0.200000
   # of expansion vecs  DIISMaxEq       ....     5
   Bias factor          DIISBfac        ....   1.050
   Max. coefficient     DIISMaxC        ....  10.000
 MO-DIIS                CNVKDIIS        .... off
 Trust-Rad. Augm. Hess. CNVTRAH         .... auto
   Auto Start mean grad. ratio tolernc. ....  1.125000
   Auto Start start iteration           ....    50
   Auto Start num. interpolation iter.  ....    10
   Max. Number of Micro iterations      ....    24
   Max. Number of Macro iterations      .... Maxiter - #DIIS iter
   Number of Davidson start vectors     ....     2
   Converg. threshold    (grad. norm)   ....   1.000e-05
   Grad. Scal. Fac. for Micro threshold ....   0.100
   Minimum threshold for Micro iter.    ....   1.000e-02
   NR start threshold (gradient norm)   ....   1.000e-04
   Initial trust radius                 ....   0.400
   Minimum AH scaling param. (alpha)    ....   1.000
   Maximum AH scaling param. (alpha)    .... 1000.000
   Quad. conv. algorithm                .... NR
   White noise on init. David. guess    .... on
   Maximum white noise                  ....   0.010
   Pseudo random numbers                .... off
   Inactive MOs                         .... canonical
   Orbital update algorithm             .... Taylor
   Preconditioner                       .... Diag
   Full preconditioner red. dimension   ....   250
 SOSCF                  CNVSOSCF        .... on
   Start iteration      SOSCFMaxIt      ....   150
   Startup grad/error   SOSCFStart      ....  0.003300
   Hessian update       SOSCFHessUp     .... L-BFGS
 Level Shifting         CNVShift        .... on
   Level shift para.    LevelShift      ....    0.2500
   Turn off err/grad.   ShiftErr        ....    0.0010
 Zerner damping         CNVZerner       .... off
 Static damping         CNVDamp         .... on
   Fraction old density DampFac         ....    0.7000
   Max. Damping (<1)    DampMax         ....    0.9800
   Min. Damping (>=0)   DampMin         ....    0.0000
   Turn off err/grad.   DampErr         ....    0.1000

SCF Procedure:
 Maximum # iterations   MaxIter         ....   125
 SCF integral mode      SCFMode         .... Direct
   Integral package                     .... SHARK and LIBINT hybrid scheme
 Reset frequency        DirectResetFreq ....    20
 Integral Threshold     Thresh          ....  2.500e-11 Eh
 Primitive CutOff       TCut            ....  2.500e-12 Eh

Convergence Tolerance:
 Convergence Check Mode ConvCheckMode   .... Total+1el-Energy
 Convergence forced     ConvForced      .... 0
 Energy Change          TolE            ....  1.000e-08 Eh
 1-El. energy change                    ....  1.000e-05 Eh
 Orbital Gradient       TolG            ....  1.000e-05
 Orbital Rotation angle TolX            ....  1.000e-05
 DIIS Error             TolErr          ....  5.000e-07

------------------------------
INITIAL GUESS: MODEL POTENTIAL
------------------------------
Loading Hartree-Fock densities                     ... done
Atomic calculation to generate a density for atom 0 (C  with ECP)
  Multiplicity assumed   :    1
  Atomic configuration   : 1s2 2s2 2p2 
  Number of open shells  : 1
  Command: /home/aspe232/Project/Software/ORCA/6_0_1/build/orca ./output/_z_alpha_santalol/_z_alpha_santalol_atom6.inp "" > ./output/_z_alpha_santalol/_z_alpha_santalol_atom6.out
Returned from the atomic calculation with res=0
Atomic calculation to generate a density for atom 15 (O  with ECP)
  Multiplicity assumed   :    3
  Atomic configuration   : 1s2 2s2 2p4 
  Number of open shells  : 1
  Command: /home/aspe232/Project/Software/ORCA/6_0_1/build/orca ./output/_z_alpha_santalol/_z_alpha_santalol_atom8.inp "" > ./output/_z_alpha_santalol/_z_alpha_santalol_atom8.out
Returned from the atomic calculation with res=0
Calculating cut-offs                               ... done
Initializing the effective Hamiltonian             ... done
Setting up the integral package (SHARK)            ... done
Starting the Coulomb interaction                   ... done (   0.1 sec)
Making the grid                                    ... done (   1.2 sec)
Mapping shells                                     ... done
Starting the XC term evaluation                    ... done (   0.1 sec)
  promolecular density results
     # of electrons  =    121.980275473
     EX              =    -61.147205821
     EC              =     -4.934038026
     EX+EC           =    -66.081243846
Transforming the Hamiltonian                       ... done (   0.0 sec)
Diagonalizing the Hamiltonian                      ... done (   0.0 sec)
Back transforming the eigenvectors                 ... done (   0.0 sec)
Now organizing SCF variables                       ... done
                      ------------------
                      INITIAL GUESS DONE (   2.5 sec)
                      ------------------
             **** ENERGY FILE WAS UPDATED (./output/_z_alpha_santalol/_z_alpha_santalol.en.tmp) ****
Finished Guess after   3.5 sec
Maximum memory used throughout the entire GUESS-calculation: 36.1 MB


           ************************************************************
           *        Program running with 40 parallel MPI-processes    *
           *              working on a common directory               *
           ************************************************************

-------------------------------------------------------------------------------------------
                                      ORCA LEAN-SCF
                              memory conserving SCF solver
-------------------------------------------------------------------------------------------

----------------------------------------D-I-I-S--------------------------------------------
Iteration    Energy (Eh)           Delta-E    RMSDP     MaxDP     DIISErr   Damp  Time(sec)
-------------------------------------------------------------------------------------------
               ***  Starting incremental Fock matrix formation  ***
    1    -115.1930264617757302     0.00e+00  3.32e-03  7.90e-02  1.90e-01  0.700   9.1
    2    -115.4811677388645421    -2.88e-01  2.41e-03  5.49e-02  1.11e-01  0.700   6.4
                               ***Turning on AO-DIIS***
    3    -115.6265266772829818    -1.45e-01  1.24e-03  2.85e-02  5.80e-02  0.700   6.1
    4    -115.7122321172522561    -8.57e-02  2.67e-03  6.05e-02  3.58e-02  0.000   5.9
    5    -115.8934442871253623    -1.81e-01  2.26e-04  5.25e-03  5.02e-03  0.000   5.8
                              *** Initializing SOSCF ***
---------------------------------------S-O-S-C-F--------------------------------------
Iteration    Energy (Eh)           Delta-E    RMSDP     MaxDP     MaxGrad    Time(sec)
--------------------------------------------------------------------------------------
    6    -115.8939900023992777    -5.46e-04  1.00e-04  2.73e-03  2.25e-03     5.7
               *** Restarting incremental Fock matrix formation ***
    7    -115.8939872397984345     2.76e-06  5.84e-05  1.15e-03  1.79e-04     8.3
    8    -115.8940003390280253    -1.31e-05  3.37e-05  8.36e-04  1.19e-04     7.4
    9    -115.8940027739398602    -2.43e-06  1.15e-05  3.08e-04  5.55e-05     7.3
   10    -115.8940032485371603    -4.75e-07  1.95e-06  6.62e-05  9.40e-06     6.7
   11    -115.8940032402184670     8.32e-09  6.69e-07  2.42e-05  4.41e-06     6.1
                 **** Energy Check signals convergence ****

               *****************************************************
               *                     SUCCESS                       *
               *           SCF CONVERGED AFTER  11 CYCLES          *
               *****************************************************

Recomputing exchange energy using gridx3       ... done (   10.010 sec)
Old exchange energy                            :    -17.228107087 Eh
New exchange energy                            :    -17.228111315 Eh
Exchange energy change after final integration :     -0.000004228 Eh
Total energy after final integration           :   -115.894007468 Eh
             **** ENERGY FILE WAS UPDATED (./output/_z_alpha_santalol/_z_alpha_santalol.en.tmp) ****

----------------
TOTAL SCF ENERGY
----------------

Total Energy       :       -115.89400746795286 Eh           -3153.63627 eV

Components:
Nuclear Repulsion  :        622.07240556120405 Eh           16927.45073 eV
Electronic Energy  :       -737.96640880142252 Eh          -20081.08689 eV
One Electron Energy:      -1409.01238081028259 Eh          -38341.17611 eV
Two Electron Energy:        671.04597200886008 Eh           18260.08922 eV

Virial components:
Potential Energy   :       -206.46603772809959 Eh           -5618.22651 eV
Kinetic Energy     :         90.57203026014672 Eh            2464.59024 eV
Virial Ratio       :          2.27957833268256

DFT components:
N(Alpha)           :       44.999686789379 electrons
N(Beta)            :       44.999686789379 electrons
N(Total)           :       89.999373578758 electrons
E(X)               :      -18.047483682127 Eh       
E(C)               :       -3.404091017932 Eh       
E(XC)              :      -21.451574700058 Eh       

---------------
SCF CONVERGENCE
---------------

  Last Energy change         ...   -8.3187e-09  Tolerance :   1.0000e-08
  Last MAX-Density change    ...    2.4179e-05  Tolerance :   1.0000e-07
  Last RMS-Density change    ...    6.6935e-07  Tolerance :   5.0000e-09
  Last DIIS Error            ...    2.2537e-03  Tolerance :   5.0000e-07
  Last Orbital Gradient      ...    4.4127e-06  Tolerance :   1.0000e-05
  Last Orbital Rotation      ...    5.6062e-06  Tolerance :   1.0000e-05


----------------
ORBITAL ENERGIES
----------------

  NO   OCC          E(Eh)            E(eV) 
   0   2.0000      -1.147856       -31.2348 
   1   2.0000      -1.062830       -28.9211 
   2   2.0000      -0.957309       -26.0497 
   3   2.0000      -0.924345       -25.1527 
   4   2.0000      -0.903736       -24.5919 
   5   2.0000      -0.874761       -23.8034 
   6   2.0000      -0.843678       -22.9576 
   7   2.0000      -0.820405       -22.3244 
   8   2.0000      -0.810346       -22.0506 
   9   2.0000      -0.801697       -21.8153 
  10   2.0000      -0.774754       -21.0821 
  11   2.0000      -0.726740       -19.7756 
  12   2.0000      -0.681734       -18.5509 
  13   2.0000      -0.660270       -17.9669 
  14   2.0000      -0.657438       -17.8898 
  15   2.0000      -0.629472       -17.1288 
  16   2.0000      -0.620439       -16.8830 
  17   2.0000      -0.616271       -16.7696 
  18   2.0000      -0.588426       -16.0119 
  19   2.0000      -0.585185       -15.9237 
  20   2.0000      -0.563244       -15.3266 
  21   2.0000      -0.557616       -15.1735 
  22   2.0000      -0.548430       -14.9235 
  23   2.0000      -0.537717       -14.6320 
  24   2.0000      -0.522882       -14.2283 
  25   2.0000      -0.514823       -14.0090 
  26   2.0000      -0.509343       -13.8599 
  27   2.0000      -0.500944       -13.6314 
  28   2.0000      -0.498237       -13.5577 
  29   2.0000      -0.491386       -13.3713 
  30   2.0000      -0.481876       -13.1125 
  31   2.0000      -0.480282       -13.0691 
  32   2.0000      -0.473142       -12.8749 
  33   2.0000      -0.460247       -12.5239 
  34   2.0000      -0.453138       -12.3305 
  35   2.0000      -0.448247       -12.1974 
  36   2.0000      -0.445027       -12.1098 
  37   2.0000      -0.439465       -11.9585 
  38   2.0000      -0.426261       -11.5991 
  39   2.0000      -0.410580       -11.1724 
  40   2.0000      -0.404725       -11.0131 
  41   2.0000      -0.384495       -10.4626 
  42   2.0000      -0.358005        -9.7418 
  43   2.0000      -0.354236        -9.6393 
  44   2.0000      -0.332314        -9.0427 
  45   0.0000       0.064807         1.7635 
  46   0.0000       0.085970         2.3394 
  47   0.0000       0.088082         2.3968 
  48   0.0000       0.090597         2.4653 
  49   0.0000       0.094287         2.5657 
  50   0.0000       0.105022         2.8578 
  51   0.0000       0.111895         3.0448 
  52   0.0000       0.113664         3.0930 
  53   0.0000       0.125636         3.4187 
  54   0.0000       0.130062         3.5392 
  55   0.0000       0.134352         3.6559 
*Only the first 10 virtual orbitals were printed.

                    ********************************
                    * MULLIKEN POPULATION ANALYSIS *
                    ********************************

-----------------------
MULLIKEN ATOMIC CHARGES
-----------------------
   0 C :   -0.092280
   1 C :   -0.051799
   2 C :   -0.014065
   3 C :   -0.078187
   4 C :   -0.019838
   5 C :   -0.204474
   6 C :   -0.054647
   7 C :   -0.042620
   8 C :   -0.046493
   9 C :   -0.033275
  10 C :   -0.052901
  11 C :   -0.046200
  12 C :   -0.049667
  13 C :   -0.021154
  14 C :    0.067811
  15 O :   -0.317554
  16 H :    0.054539
  17 H :    0.040453
  18 H :    0.057713
  19 H :    0.012374
  20 H :    0.044879
  21 H :    0.021532
  22 H :    0.031956
  23 H :    0.048366
  24 H :    0.048636
  25 H :    0.036028
  26 H :    0.041854
  27 H :    0.045052
  28 H :    0.044791
  29 H :    0.036893
  30 H :    0.041251
  31 H :    0.034212
  32 H :    0.035696
  33 H :    0.036594
  34 H :    0.026086
  35 H :    0.031381
  36 H :    0.037740
  37 H :    0.049864
  38 H :    0.024143
  39 H :    0.175311
Sum of atomic charges:   -0.0000000

--------------------------------
MULLIKEN REDUCED ORBITAL CHARGES
--------------------------------
  0 C s       :     0.959260  s :     0.959260
      pz      :     1.012214  p :     3.059664
      px      :     0.997513
      py      :     1.049937
      dz2     :     0.020483  d :     0.073356
      dxz     :     0.013896
      dyz     :     0.007582
      dx2y2   :     0.009622
      dxy     :     0.021774

  1 C s       :     1.088042  s :     1.088042
      pz      :     0.948185  p :     2.849826
      px      :     0.965179
      py      :     0.936462
      dz2     :     0.014554  d :     0.113931
      dxz     :     0.020635
      dyz     :     0.019659
      dx2y2   :     0.033171
      dxy     :     0.025912

  2 C s       :     1.032687  s :     1.032687
      pz      :     0.971901  p :     2.889011
      px      :     0.939819
      py      :     0.977290
      dz2     :     0.009422  d :     0.092367
      dxz     :     0.018257
      dyz     :     0.017387
      dx2y2   :     0.030480
      dxy     :     0.016822

  3 C s       :     0.989938  s :     0.989938
      pz      :     0.996355  p :     2.986430
      px      :     0.951020
      py      :     1.039055
      dz2     :     0.018484  d :     0.101819
      dxz     :     0.023607
      dyz     :     0.020123
      dx2y2   :     0.020896
      dxy     :     0.018708

  4 C s       :     0.998207  s :     0.998207
      pz      :     0.993285  p :     2.925756
      px      :     0.909080
      py      :     1.023391
      dz2     :     0.018529  d :     0.095876
      dxz     :     0.018460
      dyz     :     0.017421
      dx2y2   :     0.022358
      dxy     :     0.019108

  5 C s       :     1.079698  s :     1.079698
      pz      :     1.007207  p :     2.981307
      px      :     0.985057
      py      :     0.989043
      dz2     :     0.033130  d :     0.143468
      dxz     :     0.028986
      dyz     :     0.025991
      dx2y2   :     0.024198
      dxy     :     0.031163

  6 C s       :     1.037498  s :     1.037498
      pz      :     0.949064  p :     2.894577
      px      :     0.946499
      py      :     0.999014
      dz2     :     0.027611  d :     0.122572
      dxz     :     0.024063
      dyz     :     0.019528
      dx2y2   :     0.028194
      dxy     :     0.023176

  7 C s       :     0.985448  s :     0.985448
      pz      :     1.033950  p :     2.953760
      px      :     0.965164
      py      :     0.954645
      dz2     :     0.022709  d :     0.103412
      dxz     :     0.017709
      dyz     :     0.020584
      dx2y2   :     0.022506
      dxy     :     0.019904

  8 C s       :     1.052235  s :     1.052235
      pz      :     1.018428  p :     2.876795
      px      :     0.911540
      py      :     0.946827
      dz2     :     0.024228  d :     0.117463
      dxz     :     0.019856
      dyz     :     0.018004
      dx2y2   :     0.024345
      dxy     :     0.031030

  9 C s       :     1.055027  s :     1.055027
      pz      :     0.991519  p :     2.831238
      px      :     0.900612
      py      :     0.939107
      dz2     :     0.032105  d :     0.147010
      dxz     :     0.025563
      dyz     :     0.022811
      dx2y2   :     0.034580
      dxy     :     0.031952

 10 C s       :     1.052147  s :     1.052147
      pz      :     0.859066  p :     2.884139
      px      :     1.050433
      py      :     0.974640
      dz2     :     0.024740  d :     0.116615
      dxz     :     0.027012
      dyz     :     0.029262
      dx2y2   :     0.018883
      dxy     :     0.016717

 11 C s       :     0.987947  s :     0.987947
      pz      :     0.967181  p :     2.954933
      px      :     1.033433
      py      :     0.954318
      dz2     :     0.014472  d :     0.103321
      dxz     :     0.029682
      dyz     :     0.020339
      dx2y2   :     0.019868
      dxy     :     0.018960

 12 C s       :     0.949396  s :     0.949396
      pz      :     1.028795  p :     3.024571
      px      :     1.033174
      py      :     0.962602
      dz2     :     0.020907  d :     0.075700
      dxz     :     0.009399
      dyz     :     0.011868
      dx2y2   :     0.012206
      dxy     :     0.021319

 13 C s       :     0.938243  s :     0.938243
      pz      :     0.952051  p :     3.011042
      px      :     1.037683
      py      :     1.021308
      dz2     :     0.016004  d :     0.071869
      dxz     :     0.018472
      dyz     :     0.014222
      dx2y2   :     0.009869
      dxy     :     0.013303

 14 C s       :     1.015487  s :     1.015487
      pz      :     0.824005  p :     2.765666
      px      :     0.950944
      py      :     0.990718
      dz2     :     0.030851  d :     0.151036
      dxz     :     0.028635
      dyz     :     0.043799
      dx2y2   :     0.023117
      dxy     :     0.024633

 15 O s       :     1.658657  s :     1.658657
      pz      :     1.258640  p :     4.627020
      px      :     1.565333
      py      :     1.803047
      dz2     :     0.003840  d :     0.031877
      dxz     :     0.014380
      dyz     :     0.004643
      dx2y2   :     0.003977
      dxy     :     0.005037

 16 H s       :     0.901566  s :     0.901566
      pz      :     0.022097  p :     0.043895
      px      :     0.011154
      py      :     0.010645

 17 H s       :     0.915551  s :     0.915551
      pz      :     0.010195  p :     0.043996
      px      :     0.017476
      py      :     0.016325

 18 H s       :     0.898370  s :     0.898370
      pz      :     0.011938  p :     0.043917
      px      :     0.012449
      py      :     0.019530

 19 H s       :     0.939594  s :     0.939594
      pz      :     0.015220  p :     0.048032
      px      :     0.010429
      py      :     0.022384

 20 H s       :     0.911524  s :     0.911524
      pz      :     0.010977  p :     0.043598
      px      :     0.012117
      py      :     0.020504

 21 H s       :     0.934451  s :     0.934451
      pz      :     0.018696  p :     0.044016
      px      :     0.011343
      py      :     0.013978

 22 H s       :     0.926077  s :     0.926077
      pz      :     0.010410  p :     0.041966
      px      :     0.010624
      py      :     0.020932

 23 H s       :     0.909027  s :     0.909027
      pz      :     0.019678  p :     0.042607
      px      :     0.009416
      py      :     0.013513

 24 H s       :     0.910849  s :     0.910849
      pz      :     0.009114  p :     0.040516
      px      :     0.009963
      py      :     0.021439

 25 H s       :     0.919581  s :     0.919581
[...]
 86:   1516.69   0.002401   12.14  0.000494  (-0.012651 -0.002180 -0.018147)
 87:   1522.21   0.002104   10.63  0.000431  (-0.007589 -0.015773  0.011179)
 88:   1526.54   0.002713   13.71  0.000555  ( 0.010693 -0.013250 -0.016267)
 89:   1528.30   0.000867    4.38  0.000177  ( 0.012298 -0.004971 -0.001022)
 90:   1532.32   0.001598    8.07  0.000325  (-0.005517  0.016703  0.003996)
 91:   1534.91   0.001459    7.38  0.000297  ( 0.005729 -0.015662  0.004315)
 92:   1546.04   0.001396    7.05  0.000282  ( 0.004353 -0.004716  0.015508)
 93:   1556.55   0.000434    2.20  0.000087  (-0.004234 -0.008043 -0.002120)
 94:   1565.60   0.001491    7.54  0.000297  (-0.017072  0.000631 -0.002325)
 95:   1801.81   0.000157    0.79  0.000027  ( 0.001045 -0.000887 -0.005030)
 96:   3085.13   0.003077   15.55  0.000311  (-0.005536  0.010962 -0.012665)
 97:   3093.90   0.007441   37.60  0.000751  (-0.007974 -0.025121  0.007475)
 98:   3101.49   0.006713   33.93  0.000675  (-0.020688 -0.002660 -0.015505)
 99:   3103.15   0.005392   27.25  0.000542  ( 0.012024 -0.007285 -0.018564)
100:   3115.06   0.008524   43.08  0.000854  (-0.008793 -0.023625  0.014779)
101:   3120.79   0.003576   18.07  0.000358  (-0.006184 -0.001010 -0.017841)
102:   3121.89   0.006108   30.87  0.000611  (-0.013534 -0.005483 -0.019934)
103:   3125.07   0.010852   54.84  0.001084  (-0.022393 -0.019626  0.014036)
104:   3150.37   0.001611    8.14  0.000160  (-0.005575  0.004717  0.010307)
105:   3169.97   0.005643   28.52  0.000555  (-0.021550  0.006080 -0.007356)
106:   3173.18   0.006411   32.40  0.000630  ( 0.002497 -0.024204  0.006196)
107:   3179.02   0.000486    2.46  0.000048  ( 0.004661 -0.004355  0.002651)
108:   3181.08   0.003472   17.55  0.000341  ( 0.002455  0.013015  0.012851)
109:   3183.16   0.001268    6.41  0.000124  (-0.004523 -0.007595  0.006798)
110:   3183.98   0.002779   14.04  0.000272  (-0.015315  0.006118  0.000608)
111:   3186.33   0.003422   17.30  0.000335  (-0.003058  0.017923  0.002146)
112:   3189.56   0.003552   17.95  0.000347  ( 0.003054 -0.008514  0.016299)
113:   3191.78   0.004638   23.44  0.000453  (-0.019390  0.003442  0.008102)
114:   3193.94   0.008375   42.32  0.000818  (-0.009113 -0.016251 -0.021705)
115:   3211.44   0.002508   12.68  0.000244  ( 0.004210 -0.012535 -0.008300)
116:   3218.70   0.004330   21.88  0.000420  (-0.018216 -0.002997 -0.008889)
117:   3253.33   0.001569    7.93  0.000151  ( 0.006514  0.002099  0.010182)
118:   3263.46   0.003332   16.84  0.000319  (-0.011965  0.012872  0.003130)
119:   3953.92   0.007909   39.97  0.000624  ( 0.001032  0.017060 -0.018224)

* The epsilon (eps) is given for a Dirac delta lineshape.
** The dipole moment derivative (T) already includes vibrational overlap.

The first frequency considered to be a vibration is 6
The total number of vibrations considered is 114


--------------------------
THERMOCHEMISTRY AT 298.15K
--------------------------

Temperature         ...   298.15 K
Pressure            ...     1.00 atm
Total Mass          ...   220.36 AMU
Quasi RRHO          ...     True
Cut-Off Frequency   ...     1.00 cm^-1

Throughout the following assumptions are being made:
  (1) The electronic state is orbitally nondegenerate
  (2) There are no thermally accessible electronically excited states
  (3) Hindered rotations indicated by low frequency modes are not
      treated as such but are treated as vibrations and this may
      cause some error
  (4) All equations used are the standard statistical mechanics
      equations for an ideal gas
  (5) All vibrations are strictly harmonic

freq.      18.23  E(vib)   ...       0.57 
freq.      36.96  E(vib)   ...       0.54 
freq.      55.26  E(vib)   ...       0.52 
freq.      74.23  E(vib)   ...       0.49 
freq.     102.05  E(vib)   ...       0.46 
freq.     156.26  E(vib)   ...       0.40 
freq.     183.00  E(vib)   ...       0.37 
freq.     190.94  E(vib)   ...       0.36 
freq.     234.89  E(vib)   ...       0.32 
freq.     241.59  E(vib)   ...       0.31 
freq.     245.46  E(vib)   ...       0.31 
freq.     250.10  E(vib)   ...       0.31 
freq.     270.33  E(vib)   ...       0.29 
freq.     278.15  E(vib)   ...       0.28 
freq.     312.32  E(vib)   ...       0.25 
freq.     330.52  E(vib)   ...       0.24 
freq.     378.75  E(vib)   ...       0.21 
freq.     387.54  E(vib)   ...       0.20 
freq.     418.44  E(vib)   ...       0.18 
freq.     445.23  E(vib)   ...       0.17 
freq.     485.10  E(vib)   ...       0.15 
freq.     498.75  E(vib)   ...       0.14 
freq.     553.90  E(vib)   ...       0.12 
freq.     572.16  E(vib)   ...       0.11 
freq.     605.37  E(vib)   ...       0.10 
freq.     609.97  E(vib)   ...       0.10 
freq.     663.48  E(vib)   ...       0.08 
freq.     719.86  E(vib)   ...       0.07 
freq.     774.65  E(vib)   ...       0.05 
freq.     798.69  E(vib)   ...       0.05 
freq.     846.21  E(vib)   ...       0.04 
freq.     865.02  E(vib)   ...       0.04 
freq.     892.98  E(vib)   ...       0.03 
freq.     902.39  E(vib)   ...       0.03 
freq.     904.39  E(vib)   ...       0.03 
freq.     928.57  E(vib)   ...       0.03 
freq.     948.69  E(vib)   ...       0.03 
freq.     956.78  E(vib)   ...       0.03 
freq.     971.19  E(vib)   ...       0.03 
freq.     977.70  E(vib)   ...       0.03 
freq.     988.36  E(vib)   ...       0.02 
freq.    1013.29  E(vib)   ...       0.02 
freq.    1020.36  E(vib)   ...       0.02 
freq.    1025.19  E(vib)   ...       0.02 
freq.    1047.47  E(vib)   ...       0.02 
freq.    1054.07  E(vib)   ...       0.02 
freq.    1071.17  E(vib)   ...       0.02 
freq.    1083.75  E(vib)   ...       0.02 
freq.    1093.18  E(vib)   ...       0.02 
freq.    1093.73  E(vib)   ...       0.02 
freq.    1105.93  E(vib)   ...       0.02 
freq.    1134.90  E(vib)   ...       0.01 
freq.    1144.88  E(vib)   ...       0.01 
freq.    1156.05  E(vib)   ...       0.01 
freq.    1180.80  E(vib)   ...       0.01 
freq.    1185.57  E(vib)   ...       0.01 
freq.    1198.24  E(vib)   ...       0.01 
freq.    1225.13  E(vib)   ...       0.01 
freq.    1229.52  E(vib)   ...       0.01 
freq.    1232.85  E(vib)   ...       0.01 
freq.    1246.30  E(vib)   ...       0.01 
freq.    1297.55  E(vib)   ...       0.01 
freq.    1302.44  E(vib)   ...       0.01 
freq.    1315.35  E(vib)   ...       0.01 
freq.    1322.61  E(vib)   ...       0.01 
freq.    1331.22  E(vib)   ...       0.01 
freq.    1351.30  E(vib)   ...       0.01 
freq.    1359.82  E(vib)   ...       0.01 
freq.    1364.69  E(vib)   ...       0.01 
freq.    1377.07  E(vib)   ...       0.01 
freq.    1399.93  E(vib)   ...       0.00 
freq.    1410.25  E(vib)   ...       0.00 
freq.    1434.30  E(vib)   ...       0.00 
freq.    1442.52  E(vib)   ...       0.00 
freq.    1448.47  E(vib)   ...       0.00 
freq.    1449.75  E(vib)   ...       0.00 
freq.    1454.91  E(vib)   ...       0.00 
freq.    1500.16  E(vib)   ...       0.00 
freq.    1506.83  E(vib)   ...       0.00 
freq.    1508.21  E(vib)   ...       0.00 
freq.    1516.69  E(vib)   ...       0.00 
freq.    1522.21  E(vib)   ...       0.00 
freq.    1526.54  E(vib)   ...       0.00 
freq.    1528.30  E(vib)   ...       0.00 
freq.    1532.32  E(vib)   ...       0.00 
freq.    1534.91  E(vib)   ...       0.00 
freq.    1546.04  E(vib)   ...       0.00 
freq.    1556.55  E(vib)   ...       0.00 
freq.    1565.60  E(vib)   ...       0.00 
freq.    1801.81  E(vib)   ...       0.00 
freq.    3085.13  E(vib)   ...       0.00 
freq.    3093.90  E(vib)   ...       0.00 
freq.    3101.49  E(vib)   ...       0.00 
freq.    3103.15  E(vib)   ...       0.00 
freq.    3115.06  E(vib)   ...       0.00 
freq.    3120.79  E(vib)   ...       0.00 
freq.    3121.89  E(vib)   ...       0.00 
freq.    3125.07  E(vib)   ...       0.00 
freq.    3150.37  E(vib)   ...       0.00 
freq.    3169.97  E(vib)   ...       0.00 
freq.    3173.18  E(vib)   ...       0.00 
freq.    3179.02  E(vib)   ...       0.00 
freq.    3181.08  E(vib)   ...       0.00 
freq.    3183.16  E(vib)   ...       0.00 
freq.    3183.98  E(vib)   ...       0.00 
freq.    3186.33  E(vib)   ...       0.00 
freq.    3189.56  E(vib)   ...       0.00 
freq.    3191.78  E(vib)   ...       0.00 
freq.    3193.94  E(vib)   ...       0.00 
freq.    3211.44  E(vib)   ...       0.00 
freq.    3218.70  E(vib)   ...       0.00 
freq.    3253.33  E(vib)   ...       0.00 
freq.    3263.46  E(vib)   ...       0.00 
freq.    3953.92  E(vib)   ...       0.00 

------------
INNER ENERGY
------------

The inner energy is: U= E(el) + E(ZPE) + E(vib) + E(rot) + E(trans)
    E(el)   - is the total energy from the electronic structure calculation
              = E(kin-el) + E(nuc-el) + E(el-el) + E(nuc-nuc)
    E(ZPE)  - the the zero temperature vibrational energy from the frequency calculation
    E(vib)  - the the finite temperature correction to E(ZPE) due to population
              of excited vibrational states
    E(rot)  - is the rotational thermal energy
    E(trans)- is the translational thermal energy

Summary of contributions to the inner energy U:
Electronic energy                ...   -115.96849448 Eh
Zero point energy                ...      0.37037279 Eh     232.41 kcal/mol
Thermal vibrational correction   ...      0.01352770 Eh       8.49 kcal/mol
Thermal rotational correction    ...      0.00141627 Eh       0.89 kcal/mol
Thermal translational correction ...      0.00141627 Eh       0.89 kcal/mol
-----------------------------------------------------------------------
Total thermal energy                   -115.58176144 Eh


Summary of corrections to the electronic energy:
(perhaps to be used in another calculation)
Total thermal correction                  0.01636025 Eh      10.27 kcal/mol
Non-thermal (ZPE) correction              0.37037279 Eh     232.41 kcal/mol
-----------------------------------------------------------------------
Total correction                          0.38673304 Eh     242.68 kcal/mol


--------
ENTHALPY
--------

The enthalpy is H = U + kB*T
                kB is Boltzmann's constant
Total thermal energy              ...   -115.58176144 Eh 
Thermal Enthalpy correction       ...      0.00094421 Eh       0.59 kcal/mol
-----------------------------------------------------------------------
Total Enthalpy                    ...   -115.58081723 Eh


Note: Only C1 symmetry has been detected, increase convergence thresholds 
      if your molecule has a higher symmetry. Symmetry factor of 1.0 is   
      used for the rotational entropy correction. 
 

Note: Rotational entropy computed according to Herzberg 
Infrared and Raman Spectra, Chapter V,1, Van Nostrand Reinhold, 1945 
Point Group:  C1, Symmetry Number:   1  
Rotational constants in cm-1:     0.038906     0.007836     0.007679 

Vibrational entropy computed according to the QRRHO of S. Grimme
Chem.Eur.J. 2012 18 9955 using a reference frequency of 100.0 cm-1


-------
ENTROPY
-------

The entropy contributions are T*S = T*(S(el)+S(vib)+S(rot)+S(trans))
     S(el)   - electronic entropy
     S(vib)  - vibrational entropy
     S(rot)  - rotational entropy
     S(trans)- translational entropy
The entropies will be listed as multiplied by the temperature to get
units of energy

Electronic entropy                ...      0.00000000 Eh      0.00 kcal/mol
Vibrational entropy               ...      0.02356418 Eh     14.79 kcal/mol
Rotational entropy                ...      0.01563145 Eh      9.81 kcal/mol
Translational entropy             ...      0.01999020 Eh     12.54 kcal/mol
-----------------------------------------------------------------------
Final entropy term                ...      0.05918583 Eh     37.14 kcal/mol

In case the symmetry of your molecule has not been determined correctly
or in case you have a reason to use a different symmetry number we print 
out the resulting rotational entropy values for sn=1,12:

 non-linear molecules -----------------------------------
|  sn= 1 | S(rot)=       0.01563145 Eh      9.81 kcal/mol|
|  sn= 2 | S(rot)=       0.01497699 Eh      9.40 kcal/mol|
|  sn= 3 | S(rot)=       0.01459416 Eh      9.16 kcal/mol|
|  sn= 4 | S(rot)=       0.01432253 Eh      8.99 kcal/mol|
|  sn= 5 | S(rot)=       0.01411184 Eh      8.86 kcal/mol|
|  sn= 6 | S(rot)=       0.01393970 Eh      8.75 kcal/mol|
|  sn= 7 | S(rot)=       0.01379415 Eh      8.66 kcal/mol|
|  sn= 8 | S(rot)=       0.01366808 Eh      8.58 kcal/mol|
|  sn= 9 | S(rot)=       0.01355687 Eh      8.51 kcal/mol|
|  sn=10 | S(rot)=       0.01345739 Eh      8.44 kcal/mol|
|  sn=11 | S(rot)=       0.01336740 Eh      8.39 kcal/mol|
|  sn=12 | S(rot)=       0.01328524 Eh      8.34 kcal/mol|
 linear molecules ---------------------------------------
|  Dinfh | S(rot)=       0.00992332 Eh      6.23 kcal/mol|
|  Cinfv | S(rot)=       0.01057778 Eh      6.64 kcal/mol|
 --------------------------------------------------------


-------------------
GIBBS FREE ENERGY
-------------------

The Gibbs free energy is G = H - T*S

Total enthalpy                    ...   -115.58081723 Eh 
Total entropy correction          ...     -0.05918583 Eh    -37.14 kcal/mol
-----------------------------------------------------------------------
Final Gibbs free energy         ...   -115.64000305 Eh

For completeness - the Gibbs free energy minus the electronic energy
G-E(el)                           ...      0.32849142 Eh    206.13 kcal/mol


Maximum memory used throughout the entire PROP-calculation: 253.8 MB

--------------------------------
SUGGESTED CITATIONS FOR THIS RUN
--------------------------------

Below you find a list of papers that are relevant to this ORCA run
We neither can nor want to force you to cite these papers, but we appreciate if you do
You receive ORCA, which is the product of decades of hard work by many enthusiastic individuals, for free
The only thing we kindly ask in return is that you cite our papers,
We deeply appreciate it, if you show your appreciation for ORCA by not just citing the generic ORCA reference.

Please note that relegating all ORCA citations to the supporting information does *not* help us.
SI sections are not indexed - citations you put there will not count into any citation statistics
But we need these citations in order to attract the funding resources that allow us to do what we are doing

Therefore, if you are a happy ORCA user, please consider citing a few of the papers listed below in the main body of your paper

In addition to the list printed below, the program has created the file ./output/_z_alpha_santalol/_z_alpha_santalol.bibtex that contains the list in bibtex format
You can import this file easily into all common literature databanks and citation aid programs


List of essential papers. We consider these as the minimum necessary citations

  1. Neese,F.
     Software update: the ORCA program system, version 5.0
     WIRES Comput. Molec. Sci., 2022 12(1)e1606
     doi.org/10.1002/wcms.1606
  2. Mueller,M.; Hansen,A.; Grimme,S.
     wB97X-3c: A composite range-separated hybrid DFT method with a molecule-optimized polarized valence double-zeta basis set
     J. Chem. Phys., 2023 158 014103
     doi.org/10.1063/5.0133026

List of papers to cite with high priority. The work reported in these papers was absolutely
necessary for this run to complete.
Our perspective: the developers of density functionals and basis sets usually get cited in chemistry papers
Good! But without the algorithms to do something with them, the functionals or basis sets would not do anything.
Hence, in our opinion, the algorithm design and method developments papers are equally worthy of getting cited

  1. Neese,F.
     An improvement of the resolution of the identity approximation for the formation of the Coulomb matrix
     J. Comp. Chem., 2003 24(14)1740-1747
     doi.org/10.1002/jcc.10318
  2. Neese,F.; Wennmohs,F.; Hansen,A.; Becker,U.
     Efficient, approximate and parallel Hartree-Fock and hybrid DFT calculations. A 'chain-of-spheres' algorithm for the Hartree-Fock exchange
     Chem. Phys., 2009 356(1-3)98-109
     doi.org/10.1016/j.chemphys.2008.10.036
  3. Bykov,D.; Petrenko,T.; Izsak,R.; Kossmann,S.; Becker,U.; Valeev,E.; Neese,F.
     Efficient implementation of the analytic second derivatives of Hartree-Fock and hybrid DFT energies: a detailed analysis of different approximations
     Molec. Phys., 2015 113 1961-1977
     doi.org/10.1080/00268976.2015.1025114
  4. Helmich-Paris,B.; de Souza,B.; Neese,F.; Izsák,R.
     An improved chain of spheres for exchange algorithm
     J. Chem. Phys., 2021 155 104109
     doi.org/doi: 10.1063/5.0058766.
  5. Neese,F.
     The SHARK Integral Generation and Digestion System
     J. Comp. Chem., 2022  1-16
     doi.org/10.1002/jcc.26942
  6. Caldeweyher,E.; Bannwarth,C.; Grimme,S.
     Extension of the D3 dispersion coefficient model
     J. Chem. Phys., 2017 147 034112
     doi.org/10.1063/1.4993215
  7. Caldeweyher,E.; Ehlert,S.; Hansen,A.; Neugebauer,H.; Spicher,S.; Bannwarth,C.; Grimme,S.
     A generally applicable atomic-charge dependent London dispersion correction
     J. Chem. Phys., 2019 150 154122
     doi.org/10.1063/1.5090222
  8. Caldeweyher,E.; Mewes,J.; Ehlert,S.; Grimme,S.
     Extension and evaluation of the D4 London-dispersion model for periodic systems
     Phys. Chem. Chem. Phys., 2020 22(16)8499-8512
     doi.org/10.1039/D0CP00502A
  9. Wittmann,L.; Gordiy,I.; Friede,M.; Helmich-Paris,B.; Grimme,S.; Hansen,A.; Bursch,M.
     Extension of the D3 and D4 London Dispersion Corrections to the full Actinides Series
     Phys. Chem. Chem. Phys., 2024 26(32)21379-21394
     doi.org/https://doi.org/10.1039/D4CP01514B 

List of suggested additional citations. These are papers that are important in the 'surrounding' of 
of this run, or papers that preceded the highly important papers. If you like your results we are grateful for a citation.

  1. Izsak,R.; Neese,F.
     An overlap fitted chain of spheres exchange method
     J. Chem. Phys., 2011 135 144105
     doi.org/10.1063/1.3646921
  2. Izsak,R.; Hansen,A.; Neese,F.
     The resolution of identity and chain of spheres approximations for the LPNO-CCSD singles Fock term
     Molec. Phys., 2012 110 2413-2417
     doi.org/10.1080/00268976.2012.687466
  3. Neese,F.
     The ORCA program system
     WIRES Comput. Molec. Sci., 2012 2(1)73-78
     doi.org/10.1002/wcms.81
  4. Izsak,R.; Neese,F.; Klopper,W.
     Robust fitting techniques in the chain of spheres approximation to the Fock exchange: The role of the complementary space
     J. Chem. Phys., 2013 139 
     doi.org/10.1063/1.4819264
  5. Neese,F.
     Software update: the ORCA program system, version 4.0
     WIRES Comput. Molec. Sci., 2018 8(1)1-6
     doi.org/10.1002/wcms.1327
  6. Neese,F.; Wennmohs,F.; Becker,U.; Riplinger,C.
     The ORCA quantum chemistry program package
     J. Chem. Phys., 2020 152 Art. No. L224108
     doi.org/10.1063/5.0004608

List of optional additional citations

  1. Neese,F.
     Approximate second-order SCF convergence for spin unrestricted wavefunctions
     Chem. Phys. Lett., 2000 325(1-3)93-98
     doi.org/10.1016/s0009-2614(00)00662-x

Timings for individual modules:

Sum of individual times          ...     2209.052 sec (=  36.818 min)
Startup calculation              ...      102.856 sec (=   1.714 min)   4.7 %
SCF iterations                   ...     1355.365 sec (=  22.589 min)  61.4 %
Property integrals               ...      146.944 sec (=   2.449 min)   6.7 %
SCF Response                     ...       88.512 sec (=   1.475 min)   4.0 %
Property calculations            ...      206.338 sec (=   3.439 min)   9.3 %
SCF Gradient evaluation          ...      308.550 sec (=   5.142 min)  14.0 %
Geometry relaxation              ...        0.488 sec (=   0.008 min)   0.0 %
                             ****ORCA TERMINATED NORMALLY****
TOTAL RUN TIME: 0 days 0 hours 36 minutes 58 seconds 263 msec
