
                                 *****************
                                 * O   R   C   A *
                                 *****************

                                            #,                                       
                                            ###                                      
                                            ####                                     
                                            #####                                    
                                            ######                                   
                                           ########,                                 
                                     ,,################,,,,,                         
                               ,,#################################,,                 
                          ,,##########################################,,             
                       ,#########################################, ''#####,          
                    ,#############################################,,   '####,        
                  ,##################################################,,,,####,       
                ,###########''''           ''''###############################       
              ,#####''   ,,,,##########,,,,          '''####'''          '####       
            ,##' ,,,,###########################,,,                        '##       
           ' ,,###''''                  '''############,,,                           
         ,,##''                                '''############,,,,        ,,,,,,###''
      ,#''                                            '''#######################'''  
     '                                                          ''''####''''         
             ,#######,   #######,   ,#######,      ##                                
            ,#'     '#,  ##    ##  ,#'     '#,    #''#        ,####,   ,####,        
            ##       ##  ##   ,#'  ##            #'  '#       #'       #'  '#        
            ##       ##  #######   ##           ,######,      #####,   #    #        
            '#,     ,#'  ##    ##  '#,     ,#' ,#      #,     #,   #   #,  ,#        
             '#######'   ##     ##  '#######'  #'      '#     '####' # '####'        



                #########################################################
                #                        -***-                          #
                #          Department of theory and spectroscopy        #
                #                                                       #
                #                      Frank Neese                      #
                #                                                       #
                #     Directorship, Architecture, Infrastructure        #
                #                    SHARK, DRIVERS                     #
                #        Core code/Algorithms in most modules           #
                #                                                       #
                #        Max Planck Institute fuer Kohlenforschung      #
                #                Kaiser Wilhelm Platz 1                 #
                #                 D-45470 Muelheim/Ruhr                 #
                #                      Germany                          #
                #                                                       #
                #                  All rights reserved                  #
                #                        -***-                          #
                #########################################################


                         Program Version 6.0.1  -  RELEASE   -


 With contributions from (in alphabetic order):
[Max-Planck-Institut fuer Kohlenforschung]                               
  Daniel Aravena         : Magnetic Suceptibility                        
  Michael Atanasov       : Ab Initio Ligand Field Theory (pilot matlab implementation)
  Alexander A. Auer      : GIAO ZORA, VPT2 properties, NMR spectrum      
  Ute Becker             : All parallelization in ORCA, NUMFREQ, NUMCALC 
  Giovanni Bistoni       : ED, misc. LED, open-shell LED, HFLD           
  Martin Brehm           : Molecular dynamics                            
  Dmytro Bykov           : pre 5.0 version of the SCF Hessian            
  Marcos Casanova-Páez   : Triplet and SCS-CIS(D). UHF-(DLPNO)-IP/EA/STEOM-CCSD. UHF-CVS-IP/STEOM-CCSD   
  Vijay G. Chilkuri      : MRCI spin determinant printing, contributions to CSF-ICE 
  Pauline Colinet        : FMM embedding                                 
  Dipayan Datta          : RHF DLPNO-CCSD density                        
  Achintya Kumar Dutta   : EOM-CC, STEOM-CC                              
  Nicolas Foglia         : Exact transition moments, OPA infrastructure, MCD improvements    
  Dmitry Ganyushin       : Spin-Orbit,Spin-Spin,Magnetic field MRCI      
  Miquel Garcia-Rates    : C-PCM and meta-GGA Hessian, CCSD/C-PCM, Gaussian charge scheme 
  Tiago L. C. Gouveia    : GS-ROHF, GS-ROCIS                             
  Yang Guo               : DLPNO-NEVPT2, F12-NEVPT2, CIM, IAO-localization        
  Andreas Hansen         : Spin unrestricted coupled pair/coupled cluster methods 
  Ingolf Harden          : AUTO-CI MPn and infrastructure                
  Benjamin Helmich-Paris : MC-RPA, TRAH-(SCF,CASSCF), AVAS, COSX integrals, SCF dyn. polar. 
  Lee Huntington         : MR-EOM, pCC                                   
  Robert Izsak           : Overlap fitted RIJCOSX, COSX-SCS-MP3, EOM     
  Riya Kayal             : Wick's Theorem for AUTO-CI, AUTO-CI UHF-CCSDT 
  Emily Kempfer          : AUTO-CI, RHF CISDT and CCSDT                  
  Christian Kollmar      : KDIIS, OOCD, Brueckner-CCSD(T), CCSD density, CASPT2, CASPT2-K, improved NEVPT2 
  Axel Koslowski         : Symmetry handling                             
  Simone Kossmann        : meta-GGA functionals, TD-DFT gradient, OOMP2, (MP2 Hessian; deprecated post 5.0) 
  Lucas Lang             : DCDCAS                                        
  Marvin Lechner         : AUTO-CI (C++ implementation), FIC-MRCC        
  Spencer Leger          : CASSCF response                               
  Dagmar Lenk            : GEPOL surface, SMD, ORCA-2-JSON               
  Dimitrios Liakos       : Extrapolation schemes; Compound Job, initial MDCI parallelization 
  Dimitrios Manganas     : Further ROCIS development; embedding schemes. LFT, Crystal Embedding 
  Dimitrios Pantazis     : SARC Basis sets                               
  Anastasios Papadopoulos: AUTO-CI, single reference methods and gradients 
  Taras Petrenko         : pre 6.0 DFT Hessian and TD-DFT gradient, (ASA, deprecated), ECA, 1-Electron XAS/XES, NRVS 
  Peter Pinski           : DLPNO-MP2, DLPNO-MP2 Gradient                 
  Christoph Reimann      : Effective Core Potentials                     
  Marius Retegan         : Local ZFS, SOC                                
  Christoph Riplinger    : Optimizer, TS searches, QM/MM, DLPNO-CCSD(T), (RO)-DLPNO pert. Triples 
  Michael Roemelt        : Original ROCIS implementation                 
  Masaaki Saitow         : Open-shell DLPNO-CCSD energy and density      
  Barbara Sandhoefer     : DKH picture change effects                    
  Kantharuban Sivalingam : CASSCF convergence/infrastructure, NEVPT2 and variants, FIC-MRCI 
  Bernardo de Souza      : ESD, SOC TD-DFT                               
  Georgi L. Stoychev     : AutoAux, RI-MP2 NMR, DLPNO-MP2 response, X2C  
  Van Anh Tran           : RI-MP2 g-tensors                              
  Willem Van den Heuvel  : Paramagnetic NMR                              
  Zikuan Wang            : NOTCH, Electric field optimization            
  Frank Wennmohs         : Technical directorship and infrastructure     
  Hang Xu                : AUTO-CI-Response properties                   
                                                                         
[FACCTs GmbH]                                                            
  Markus Bursch, Miquel Garcia-Rates, Christoph Riplinger, Bernardo de Souza, Georgi L. Stoychev 
                                                                 
  APM, Basis sets (HGBS, AHGBS, def-TZVP (Ac-Lr), def2-XVPD (La-Lu)), CI-OPT, improved COSX, DLPNO-Multilevel,           
  DOCKER, DRACO, updates on ESD, GOAT, IRC, LR-CPCM, MBIS, meta-GGA TD-DFT gradient, ML-optimized integration grids, 
  MM, NACMEs, nearIR, NEB, NEB-TS, NL-DFT gradient (VV10), 2- and 3-layer-ONIOM, interface openCOSMO-RS, QMMM,   
  Crystal-QMMM, SF, symmetry and pop. for TD-DFT, r2SCAN hybrids, SOLVATOR                                   
                                                                         
[Other institutions]                                                     
  V. Asgeirsson          : NEB                                           
  Christoph Bannwarth    : sTDA-DFT, sTD-DFT, PBEh-3c, B97-3c, D3        
  Sebastian Ehlert       : rSCAN, r2SCAN, r2SCAN-3c, D4, dhf basis sets  
  Marvin Friede          : D4 for Fr, Ra, Ac-Lr                          
  Lars Goerigk           : TD-DFT with DH, B97 family of functionals     
  Stefan Grimme          : VdW corrections, initial TS optimization, DFT functionals, gCP, sTDA/sTD-DF 
  Waldemar Hujo          : DFT-NL                                        
  H. Jonsson             : NEB                                           
  Holger Kruse           : gCP                                           
  Marcel Mueller         : wB97X-3c, vDZP basis set                      
  Hagen Neugebauer       : wr2SCAN                                       
  Tobias Risthaus        : range-separated hybrid DFT                    
  Lukas Wittmann         : regularized MP2, r2SCAN double-hybrids, wr2SCAN        
                                                                         
We gratefully acknowledge several colleagues who have allowed us to      
interface, adapt or use parts of their codes:                            
  Ed Valeev, F. Pavosevic, A. Kumar             : LibInt (2-el integral package), F12 methods 
  Garnet Chan, S. Sharma, J. Yang, R. Olivares  : DMRG                   
  Ulf Ekstrom                                   : XCFun DFT Library      
  Mihaly Kallay                                 : mrcc  (arbitrary order and MRCC methods)
  Frank Weinhold                                : gennbo (NPA and NBO analysis)           
  Simon Mueller                                 : openCOSMO-RS                            
  Christopher J. Cramer and Donald G. Truhlar   : smd solvation model                     
  S Lehtola, MJT Oliveira, MAL Marques          : LibXC Library                           
  Liviu Ungur et al                             : ANISO software                          


 Your calculation uses the libint2 library for the computation of 2-el integrals
 For citations please refer to: http://libint.valeyev.net

 Your ORCA version has been built with support for libXC version: 6.2.2
 For citations please refer to: https://libxc.gitlab.io

 This ORCA versions uses:
   CBLAS   interface :  Fast vector & matrix operations
   LAPACKE interface :  Fast linear algebra routines
   SCALAPACK package :  Parallel linear algebra routines
   Shared memory     :  Shared parallel matrices
   BLAS/LAPACK       :  OpenBLAS 0.3.27  USE64BITINT DYNAMIC_ARCH NO_AFFINITY SkylakeX SINGLE_THREADED
        Core in use  :  SkylakeX
   Copyright (c) 2011-2014, The OpenBLAS Project


Your calculation utilizes the atom-pairwise dispersion correction
based on EEQ partial charges (D4)


================================================================================

cite the ECPs for C  [vDZP-ECP] as follows:
   B-Ne (ecp-2-mwb), Al-Ar (ecp-10-mwb), Ga-Kr (ecp-28-mwb), Y-Cd (ecp-28-mwb), In-Xe (ecp-46-mwb):
     A. Bergner, M. Dolg, W. Küchle, H. Stoll, and H. Preuß, Mol. Phys. 80, 1431 (1993)., T. Leininger, A. Berning, A. Nicklass, H. Stoll, H.-J. Werner, and H.-J.Flad, Chem. Phys. 217, 19 (1997).
   Na-Mg, K-Ca, Rb-Sr, Cs-Ba (CRENBL):
     L. Fernandez Pacios and P. A. Christiansen, J. Chem. Phys. 82, 2664 (1985)., M. M. Hurley, L. F. Pacios, P. A. Christiansen, R. B. Ross, and W. C. Ermler, J. Chem. Phys. 84, 6840 (1986)., L. A. LaJohn, P. A. Christiansen, R. B. Ross, T. Atashroo, and W. C. Ermler, J. Chem. Phys. 87, 2812 (1987)., R. B. Ross, J. M. Powers, T. Atashroo, W. C. Ermler, L. A. LaJohn, and P. A. Christiansen, J. Chem. Phys. 93, 6654 (1990). 
   Sc-Zn (ecp-10-mdf):
     M. Dolg, U. Wedig, H. Stoll, and H. Preuss, J. Chem. Phys. 86, 866 (1986). 
   Y-Cd (ecp-28-mwb), Hf-Hg (ecp-60-mwb):
     D. Andrae, U. Häußermann, M. Dolg, H. Stoll, and H. Preuß, Theor. Chim. Acta 77, 123 (1990). 
   La (ecp-46-mwb):
     M. Dolg, H. Stoll, and H. Preuss, J. Chem. Phys. 90, 1730 (1989)., M. Dolg, H. Stoll, and H. Preuss, Theor. Chim. Acta 85, 441 (1993).
   Ce-Lu (SBKJC-ecp):
     T. R. Cundari and W. J. Stevens, J. Chem. Phys. 98, 5555 (1993).
   Tl-Rn (ecp-78-mwb):
     W. Küchle, M. Dolg, H. Stoll, and H. Preuss, Mol. Phys. 74, 1245 (1991).

ECP parameters for C  [vDZP-ECP] have been obtained from:
MM, AH, SG, J. Chem. Phys. 158, 014103 (2023), 10.1063/5.0133026

----- Orbital basis set information -----
Your calculation utilizes the basis: vDZP
   Marcel Mueller, Andreas Hansen, Stefan Grimme 
   J. Chem. Phys. 158, 014103 (2023). DOI: 10.1063/5.0133026

----- AuxJ basis set information -----
Your calculation utilizes the auxiliary basis: def2/J
   F. Weigend, Phys. Chem. Chem. Phys. 8, 1057 (2006).

================================================================================
                                        WARNINGS
                       Please study these warnings very carefully!
================================================================================

WARNING: Frozen-Core approximation turned on, but there are no core electrons.
  ===> : Turning off frozen-core approximation


WARNING: Geometry Optimization
  ===> : Switching off AutoStart
         For restart on a previous wavefunction, please use MOREAD

================================================================================
                                       INPUT FILE
================================================================================
NAME = ./output/aromadendrene/aromadendrene.inp
|  1> ! wB97X-3c OPT FREQ TightSCF
|  2> %pal
|  3>   nprocs 40
|  4> end
|  5> * xyz 0 1
|  6> C     -0.583606    -3.035230    -0.379319
|  7> C     -1.225388    -1.648445    -0.260028
|  8> C     -2.439675    -1.484065    -1.176814
|  9> C     -2.479195    -0.015686    -1.606296
| 10> C     -1.190273     0.642990    -1.087511
| 11> C     -0.264636    -0.524055    -0.651555
| 12> C      0.656775    -0.124471     0.523348
| 13> C      1.469092     1.113297     0.054891
| 14> C      2.182880    -0.119838     0.596706
| 15> C      2.798577    -0.006416     1.995880
| 16> C      2.919104    -0.999945    -0.420388
| 17> C      0.935164     2.333396     0.822792
| 18> C     -0.383152     2.815109     0.167573
| 19> C     -1.407725     1.692249     0.022391
| 20> C     -2.298207     1.497786     1.012483
| 21> H     -1.322958    -3.817739    -0.106275
| 22> H      0.281079    -3.111953     0.313461
| 23> H     -0.229663    -3.221483    -1.416030
| 24> H     -1.566405    -1.507184     0.790898
| 25> H     -3.373470    -1.765134    -0.642533
| 26> H     -2.343899    -2.126745    -2.080612
| 27> H     -3.399141     0.485932    -1.237559
| 28> H     -2.505969     0.039358    -2.717433
| 29> H     -0.711278     1.164714    -1.946420
| 30> H      0.329062    -0.845337    -1.535677
| 31> H      0.160354    -0.026507     1.515275
| 32> H      1.575230     1.246592    -1.045473
| 33> H      3.031228    -1.022061     2.378906
| 34> H      2.123332     0.485372     2.725346
| 35> H      3.741386     0.576368     1.936552
| 36> H      2.740346    -2.068943    -0.180874
| 37> H      2.600227    -0.808086    -1.465371
| 38> H      4.009572    -0.800773    -0.361062
| 39> H      1.688376     3.146522     0.757826
| 40> H      0.761786     2.130313     1.900940
| 41> H     -0.801376     3.652649     0.767802
| 42> H     -0.158574     3.231049    -0.838402
| 43> H     -2.953939     0.634500     1.027950
| 44> H     -2.365043     2.191903     1.844612
| 45> *
| 46> 
| 47>                          ****END OF INPUT****
================================================================================

                       *****************************
                       * Geometry Optimization Run *
                       *****************************

Geometry optimization settings:
Update method            Update   .... BFGS
Choice of coordinates    CoordSys .... (2022) Redundant Internals
Initial Hessian          InHess   .... Almloef's Model
Max. no of cycles        MaxIter  .... 117

Convergence Tolerances:
Energy Change            TolE     ....  5.0000e-06 Eh
Max. Gradient            TolMAXG  ....  3.0000e-04 Eh/bohr
RMS Gradient             TolRMSG  ....  1.0000e-04 Eh/bohr
Max. Displacement        TolMAXD  ....  4.0000e-03 bohr
RMS Displacement         TolRMSD  ....  2.0000e-03 bohr
Strict Convergence                .... False

------------------------------------------------------------------------------
                        ORCA OPTIMIZATION COORDINATE SETUP
------------------------------------------------------------------------------

The optimization will be done in redundant internal coordinates (2022)
Making redundant internal coordinates   ...  (2022 redundants) done
Evaluating the initial hessian          ...  (Almloef) done
Evaluating the coordinates              ...  done
Calculating the B-matrix                .... done
Calculating the G-matrix                .... done
Diagonalizing the G-matrix              .... done
Small eigenvalue found = 2.338e-02
Small eigenvalue found = 2.676e-02
The first mode is                       ....  112
The number of degrees of freedom        ....  111

    -----------------------------------------------------------------
                    Redundant Internal Coordinates


    -----------------------------------------------------------------
         Definition                    Initial Value    Approx d2E/dq
    -----------------------------------------------------------------
      1. B(C   1,C   0)                  1.5327         0.369835   
      2. B(C   2,C   1)                  1.5304         0.373077   
      3. B(C   3,C   2)                  1.5304         0.373013   
      4. B(C   4,C   3)                  1.5376         0.363246   
      5. B(C   5,C   1)                  1.5299         0.373713   
      6. B(C   5,C   4)                  1.5520         0.344509   
      7. B(C   6,C   5)                  1.5457         0.352691   
      8. B(C   7,C   6)                  1.5529         0.343481   
      9. B(C   8,C   7)                  1.5244         0.381393   
     10. B(C   8,C   6)                  1.5279         0.376504   
     11. B(C   9,C   8)                  1.5329         0.369681   
     12. B(C  10,C   8)                  1.5333         0.369035   
     13. B(C  11,C   7)                  1.5373         0.363645   
     14. B(C  12,C  11)                  1.5490         0.348424   
     15. B(C  13,C   4)                  1.5428         0.356466   
     16. B(C  13,C  12)                  1.5270         0.377754   
     17. B(C  14,C  13)                  1.3458         0.735070   
     18. B(H  15,C   0)                  1.1106         0.333809   
     19. B(H  16,C   0)                  1.1106         0.333811   
     20. B(H  17,C   0)                  1.1112         0.333136   
     21. B(H  18,C   1)                  1.1139         0.329875   
     22. B(H  19,C   2)                  1.1119         0.332205   
     23. B(H  20,C   2)                  1.1131         0.330764   
     24. B(H  21,C   3)                  1.1108         0.333603   
     25. B(H  22,C   3)                  1.1128         0.331141   
     26. B(H  23,C   4)                  1.1133         0.330603   
     27. B(H  24,C   5)                  1.1124         0.331688   
     28. B(H  25,C   6)                  1.1135         0.330280   
     29. B(H  26,C   7)                  1.1135         0.330343   
     30. B(H  27,C   9)                  1.1101         0.334442   
     31. B(H  28,C   9)                  1.1090         0.335794   
     32. B(H  29,C   9)                  1.1100         0.334621   
     33. B(H  30,C  10)                  1.1100         0.334603   
     34. B(H  31,C  10)                  1.1093         0.335489   
     35. B(H  32,C  10)                  1.1101         0.334475   
     36. B(H  33,C  11)                  1.1103         0.334247   
     37. B(H  34,C  11)                  1.1107         0.333704   
     38. B(H  35,C  12)                  1.1121         0.332078   
     39. B(H  36,C  12)                  1.1115         0.332755   
     40. B(H  37,C  14)                  1.0842         0.367857   
     41. B(H  38,C  14)                  1.0857         0.365858   
     42. A(H  15,C   0,H  16)          108.4369         0.284030   
     43. A(C   1,C   0,H  16)          109.8736         0.319790   
     44. A(H  16,C   0,H  17)          108.8078         0.283941   
     45. A(H  15,C   0,H  17)          108.8635         0.283941   
     46. A(C   1,C   0,H  15)          109.8522         0.319789   
     47. A(C   1,C   0,H  17)          110.9553         0.319684   
     48. A(C   2,C   1,H  18)          107.9790         0.319626   
     49. A(C   0,C   1,C   5)          112.4635         0.362750   
     50. A(C   0,C   1,C   2)          112.5070         0.362645   
     51. A(C   5,C   1,H  18)          109.9081         0.319715   
     52. A(C   0,C   1,H  18)          108.4434         0.319171   
     53. A(C   2,C   1,C   5)          105.4281         0.363292   
     54. A(C   1,C   2,H  19)          110.5694         0.319994   
     55. A(C   1,C   2,H  20)          110.8620         0.319766   
     56. A(H  19,C   2,H  20)          108.4482         0.283414   
     57. A(C   3,C   2,H  20)          109.1672         0.319758   
     58. A(C   3,C   2,H  19)          110.8352         0.319985   
     59. A(C   1,C   2,C   3)          106.9577         0.363175   
     60. A(C   4,C   3,H  22)          109.6249         0.318435   
     61. A(H  21,C   3,H  22)          106.8095         0.283649   
     62. A(C   2,C   3,H  22)          109.1648         0.319817   
     63. A(C   4,C   3,H  21)          112.8786         0.318820   
     64. A(C   2,C   3,H  21)          111.1927         0.320204   
     65. A(C   2,C   3,C   4)          107.1382         0.361523   
     66. A(C  13,C   4,H  23)          107.2755         0.317375   
     67. A(C   5,C   4,C  13)          113.1655         0.355524   
     68. A(C   3,C   4,C  13)          114.5772         0.358739   
     69. A(C   3,C   4,H  23)          107.5246         0.318351   
     70. A(C   5,C   4,H  23)          108.2098         0.315618   
     71. A(C   3,C   4,C   5)          105.8186         0.356664   
     72. A(C   1,C   5,C   4)          104.4769         0.358390   
     73. A(C   4,C   5,H  24)          108.1940         0.315786   
     74. A(C   1,C   5,H  24)          109.0445         0.320001   
     75. A(C   6,C   5,H  24)          111.1406         0.316994   
     76. A(C   4,C   5,C   6)          112.0028         0.354883   
     77. A(C   1,C   5,C   6)          111.7049         0.359825   
     78. A(C   8,C   6,H  25)          113.7193         0.320168   
     79. A(C   7,C   6,H  25)          115.5825         0.315414   
     80. A(C   5,C   6,H  25)          115.7284         0.316774   
     81. A(C   7,C   6,C   8)           59.3071         0.358662   
     82. A(C   5,C   6,C   8)          129.2509         0.360282   
     83. A(C   5,C   6,C   7)          106.7737         0.354703   
     84. A(C  11,C   7,H  26)          115.5766         0.318367   
     85. A(C   8,C   7,H  26)          113.7944         0.320854   
     86. A(C   6,C   7,H  26)          116.3212         0.315424   
     87. A(C   6,C   7,C   8)           59.5302         0.359450   
     88. A(C   8,C   7,C  11)          128.8371         0.362965   
     89. A(C   6,C   7,C  11)          107.4720         0.356549   
     90. A(C   6,C   8,C   9)          116.4395         0.363186   
     91. A(C   6,C   8,C   7)           61.1627         0.365128   
     92. A(C   6,C   8,C  10)          116.4875         0.363077   
     93. A(C   9,C   8,C  10)          117.0706         0.361945   
     94. A(C   7,C   8,C  10)          116.9612         0.363879   
     95. A(C   7,C   8,C   9)          116.9148         0.363988   
     96. A(C   8,C   9,H  29)          109.3438         0.319894   
     97. A(H  27,C   9,H  28)          107.8399         0.284376   
     98. A(C   8,C   9,H  28)          112.8702         0.320077   
     99. A(C   8,C   9,H  27)          109.3551         0.319866   
    100. A(H  28,C   9,H  29)          108.6326         0.284399   
    101. A(H  27,C   9,H  29)          108.7107         0.284221   
    102. A(H  31,C  10,H  32)          107.5595         0.284340   
    103. A(H  30,C  10,H  32)          108.6302         0.284223   
    104. A(C   8,C  10,H  32)          109.4647         0.319780   
    105. A(H  30,C  10,H  31)          108.8779         0.284357   
    106. A(C   8,C  10,H  31)          112.8040         0.319938   
    107. A(C   8,C  10,H  30)          109.4103         0.319800   
    108. A(C   7,C  11,C  12)          109.3365         0.357416   
    109. A(H  33,C  11,H  34)          107.2532         0.284074   
    110. A(C  12,C  11,H  34)          109.5486         0.316679   
    111. A(C   7,C  11,H  34)          113.2009         0.318893   
    112. A(C  12,C  11,H  33)          108.9578         0.316762   
    113. A(C   7,C  11,H  33)          108.4451         0.318977   
    114. A(C  11,C  12,C  13)          112.4949         0.359738   
    115. A(H  35,C  12,H  36)          106.4187         0.283661   
    116. A(C  13,C  12,H  36)          108.9474         0.320733   
    117. A(C  11,C  12,H  36)          109.1024         0.316532   
    118. A(C  13,C  12,H  35)          110.6587         0.320626   
    119. A(C  11,C  12,H  35)          109.0253         0.316427   
    120. A(C  12,C  13,C  14)          118.7048         0.409578   
    121. A(C   4,C  13,C  14)          121.6198         0.405396   
    122. A(C   4,C  13,C  12)          118.2911         0.361140   
    123. A(H  37,C  14,H  38)          117.4453         0.292545   
    124. A(C  13,C  14,H  38)          120.8134         0.364263   
    125. A(C  13,C  14,H  37)          121.7190         0.364603   
    126. D(C   2,C   1,C   0,H  16)   -179.1525         0.010935   
    127. D(C   2,C   1,C   0,H  15)    -59.9403         0.010935   
    128. D(C   5,C   1,C   0,H  15)   -178.8172         0.010935   
    129. D(C   5,C   1,C   0,H  16)     61.9706         0.010935   
    130. D(C   5,C   1,C   0,H  17)    -58.3955         0.010935   
    131. D(C   2,C   1,C   0,H  17)     60.4814         0.010935   
    132. D(C   3,C   2,C   1,C   5)    -24.6021         0.011116   
    133. D(C   3,C   2,C   1,C   0)   -147.5182         0.011116   
    134. D(H  19,C   2,C   1,C   5)   -145.3724         0.011116   
    135. D(H  19,C   2,C   1,C   0)     91.7115         0.011116   
    136. D(H  19,C   2,C   1,H  18)    -27.9251         0.011116   
    137. D(C   3,C   2,C   1,H  18)     92.8452         0.011116   
    138. D(C   4,C   3,C   2,C   1)      7.0297         0.011112   
    139. D(C   4,C   3,C   2,H  20)   -112.9800         0.011112   
    140. D(C   4,C   3,C   2,H  19)    127.6306         0.011112   
    141. D(H  21,C   3,C   2,C   1)   -116.7444         0.011112   
    142. D(H  21,C   3,C   2,H  20)    123.2459         0.011112   
    143. D(H  21,C   3,C   2,H  19)      3.8565         0.011112   
    144. D(C  13,C   4,C   3,H  22)    129.2201         0.010573   
    145. D(C  13,C   4,C   3,H  21)     10.2923         0.010573   
    146. D(C  13,C   4,C   3,C   2)   -112.4411         0.010573   
    147. D(C   5,C   4,C   3,H  22)   -105.3867         0.010573   
    148. D(C   5,C   4,C   3,C   2)     12.9522         0.010573   
    149. D(C   5,C   4,C   3,H  21)    135.6856         0.010573   
    150. D(C   6,C   5,C   1,H  18)     37.4643         0.011151   
    151. D(C   6,C   5,C   1,C   0)    -83.4558         0.011151   
    152. D(C   4,C   5,C   1,H  18)    -83.8167         0.011151   
    153. D(C   4,C   5,C   1,C   2)     32.3194         0.011151   
    154. D(C   4,C   5,C   1,C   0)    155.2632         0.011151   
    155. D(C   1,C   5,C   4,C   3)    -27.9343         0.009587   
    156. D(C   6,C   5,C   1,C   2)    153.6003         0.011151   
    157. D(C   6,C   5,C   4,H  23)     95.9787         0.009587   
    158. D(C   6,C   5,C   4,C  13)    -22.7592         0.009587   
    159. D(C   6,C   5,C   4,C   3)   -149.0179         0.009587   
    160. D(C   1,C   5,C   4,H  23)   -142.9377         0.009587   
    161. D(C   1,C   5,C   4,C  13)     98.3244         0.009587   
    162. D(C   8,C   6,C   5,H  24)      0.1452         0.010010   
    163. D(C   8,C   6,C   5,C   4)   -121.0071         0.010010   
    164. D(C   8,C   6,C   5,C   1)    122.1820         0.010010   
    165. D(C   7,C   6,C   5,C   4)    -57.2495         0.010010   
    166. D(C   7,C   6,C   5,H  24)     63.9029         0.010010   
    167. D(C   7,C   6,C   5,C   1)   -174.0603         0.010010   
    168. D(H  26,C   7,C   6,C   5)    -22.7586         0.009535   
    169. D(C  11,C   7,C   6,C   5)    108.5917         0.009535   
    170. D(C   8,C   7,C   6,H  25)    103.5593         0.009535   
    171. D(C  11,C   7,C   6,C   8)   -125.2818         0.009535   
    172. D(C   8,C   7,C   6,C   5)   -126.1265         0.009535   
    173. D(C  11,C   7,C   6,H  25)    -21.7225         0.009535   
    174. D(C  10,C   8,C   7,C   6)    106.9267         0.011589   
    175. D(C   9,C   8,C   7,C  11)    -18.4043         0.011589   
    176. D(C   9,C   8,C   7,C   6)   -106.8887         0.011589   
    177. D(C   6,C   8,C   7,H  26)   -107.6273         0.011589   
    178. D(C   6,C   8,C   7,C  11)     88.4844         0.011589   
    179. D(C  10,C   8,C   6,C   5)    -20.6505         0.011309   
    180. D(C   9,C   8,C   6,H  25)      0.9374         0.011309   
    181. D(C   9,C   8,C   6,C   7)    107.6567         0.011309   
    182. D(C   9,C   8,C   6,C   5)   -165.3019         0.011309   
    183. D(C   9,C   8,C   7,H  26)    145.4840         0.011589   
    184. D(C   7,C   8,C   6,H  25)   -106.7192         0.011309   
    185. D(C   7,C   8,C   6,C   5)     87.0414         0.011309   
    186. D(H  27,C   9,C   8,C  10)    -49.3108         0.010926   
    187. D(H  27,C   9,C   8,C   7)    164.5420         0.010926   
    188. D(H  27,C   9,C   8,C   6)     95.1311         0.010926   
    189. D(H  28,C   9,C   8,C  10)   -169.3495         0.010926   
    190. D(H  28,C   9,C   8,C   7)     44.5033         0.010926   
    191. D(H  28,C   9,C   8,C   6)    -24.9076         0.010926   
    192. D(H  31,C  10,C   8,C   9)   -163.2880         0.010890   
    193. D(H  31,C  10,C   8,C   7)    -17.1566         0.010890   
    194. D(H  31,C  10,C   8,C   6)     52.2872         0.010890   
    195. D(H  30,C  10,C   8,C   9)     75.3607         0.010890   
    196. D(H  30,C  10,C   8,C   7)   -138.5079         0.010890   
    197. D(H  30,C  10,C   8,C   6)    -69.0641         0.010890   
    198. D(H  33,C  11,C   7,H  26)    -66.0937         0.010595   
    199. D(H  33,C  11,C   7,C   8)     97.5562         0.010595   
    200. D(H  33,C  11,C   7,C   6)    162.1473         0.010595   
    201. D(C  12,C  11,C   7,H  26)     52.5902         0.010595   
    202. D(C  12,C  11,C   7,C   8)   -143.7600         0.010595   
    203. D(C  12,C  11,C   7,C   6)    -79.1689         0.010595   
    204. D(H  35,C  12,C  11,H  34)     51.5485         0.009788   
    205. D(H  35,C  12,C  11,H  33)    -65.5009         0.009788   
    206. D(H  35,C  12,C  11,C   7)    176.1346         0.009788   
    207. D(C  13,C  12,C  11,H  34)    -71.5933         0.009788   
    208. D(C  13,C  12,C  11,H  33)    171.3573         0.009788   
    209. D(C  13,C  12,C  11,C   7)     52.9928         0.009788   
    210. D(C  14,C  13,C  12,H  35)    -30.5786         0.010656   
    211. D(C  14,C  13,C  12,C  11)     91.6444         0.010656   
    212. D(C   4,C  13,C  12,H  36)     45.9573         0.010656   
    213. D(C   4,C  13,C  12,H  35)    162.6255         0.010656   
    214. D(C   4,C  13,C  12,C  11)    -75.1514         0.010656   
    215. D(C  14,C  13,C   4,C   5)    -80.6699         0.009571   
    216. D(C  14,C  13,C   4,C   3)     40.7787         0.009571   
    217. D(C  12,C  13,C   4,H  23)    -33.5549         0.009571   
    218. D(C  12,C  13,C   4,C   5)     85.7221         0.009571   
    219. D(C  12,C  13,C   4,C   3)   -152.8293         0.009571   
    220. D(H  38,C  14,C  13,C  12)      6.9657         0.038387   
    221. D(H  38,C  14,C  13,C   4)    173.3033         0.038387   
    222. D(H  37,C  14,C  13,C  12)   -171.2729         0.038387   
    223. D(H  37,C  14,C  13,C   4)     -4.9354         0.038387   
    -----------------------------------------------------------------

Number of atoms                         .... 39
Number of degrees of freedom            .... 223


         *************************************************************
         *                GEOMETRY OPTIMIZATION CYCLE   1            *
         *************************************************************
---------------------------------
CARTESIAN COORDINATES (ANGSTROEM)
---------------------------------
  C     -0.583606   -3.035230   -0.379319
  C     -1.225388   -1.648445   -0.260028
  C     -2.439675   -1.484065   -1.176814
  C     -2.479195   -0.015686   -1.606296
  C     -1.190273    0.642990   -1.087511
  C     -0.264636   -0.524055   -0.651555
  C      0.656775   -0.124471    0.523348
  C      1.469092    1.113297    0.054891
  C      2.182880   -0.119838    0.596706
  C      2.798577   -0.006416    1.995880
  C      2.919104   -0.999945   -0.420388
  C      0.935164    2.333396    0.822792
  C     -0.383152    2.815109    0.167573
  C     -1.407725    1.692249    0.022391
  C     -2.298207    1.497786    1.012483
  H     -1.322958   -3.817739   -0.106275
  H      0.281079   -3.111953    0.313461
  H     -0.229663   -3.221483   -1.416030
  H     -1.566405   -1.507184    0.790898
  H     -3.373470   -1.765134   -0.642533
  H     -2.343899   -2.126745   -2.080612
  H     -3.399141    0.485932   -1.237559
  H     -2.505969    0.039358   -2.717433
  H     -0.711278    1.164714   -1.946420
  H      0.329062   -0.845337   -1.535677
  H      0.160354   -0.026507    1.515275
  H      1.575230    1.246592   -1.045473
  H      3.031228   -1.022061    2.378906
  H      2.123332    0.485372    2.725346
  H      3.741386    0.576368    1.936552
  H      2.740346   -2.068943   -0.180874
  H      2.600227   -0.808086   -1.465371
  H      4.009572   -0.800773   -0.361062
  H      1.688376    3.146522    0.757826
  H      0.761786    2.130313    1.900940
  H     -0.801376    3.652649    0.767802
  H     -0.158574    3.231049   -0.838402
  H     -2.953939    0.634500    1.027950
  H     -2.365043    2.191903    1.844612

----------------------------
CARTESIAN COORDINATES (A.U.)
----------------------------
  NO LB      ZA    FRAG     MASS         X           Y           Z
   0 C     4.0000*   0    12.011   -1.102856   -5.735753   -0.716809
   1 C     4.0000*   0    12.011   -2.315648   -3.115110   -0.491382
   2 C     4.0000*   0    12.011   -4.610318   -2.804476   -2.223856
   3 C     4.0000*   0    12.011   -4.685000   -0.029642   -3.035460
   4 C     4.0000*   0    12.011   -2.249290    1.215075   -2.055098
   5 C     4.0000*   0    12.011   -0.500090   -0.990320   -1.231261
   6 C     4.0000*   0    12.011    1.241125   -0.235216    0.988984
   7 C     4.0000*   0    12.011    2.776182    2.103826    0.103729
   8 C     4.0000*   0    12.011    4.125045   -0.226461    1.127611
   9 C     4.0000*   0    12.011    5.288544   -0.012124    3.771667
  10 C     4.0000*   0    12.011    5.516307   -1.889622   -0.794418
  11 C     4.0000*   0    12.011    1.767204    4.409479    1.554852
  12 C     4.0000*   0    12.011   -0.724052    5.319785    0.316667
  13 C     4.0000*   0    12.011   -2.660215    3.197887    0.042313
  14 C     4.0000*   0    12.011   -4.342982    2.830405    1.913316
  15 H     1.0000    0     1.008   -2.500028   -7.214481   -0.200831
  16 H     1.0000    0     1.008    0.531162   -5.880739    0.592355
  17 H     1.0000    0     1.008   -0.434000   -6.087721   -2.675909
  18 H     1.0000    0     1.008   -2.960076   -2.848165    1.494581
  19 H     1.0000    0     1.008   -6.374934   -3.335620   -1.214211
  20 H     1.0000    0     1.008   -4.429327   -4.018966   -3.931787
  21 H     1.0000    0     1.008   -6.423446    0.918278   -2.338648
  22 H     1.0000    0     1.008   -4.735595    0.074376   -5.135204
  23 H     1.0000    0     1.008   -1.344121    2.200990   -3.678201
  24 H     1.0000    0     1.008    0.621837   -1.597455   -2.902009
  25 H     1.0000    0     1.008    0.303025   -0.050091    2.863455
  26 H     1.0000    0     1.008    2.976753    2.355717   -1.975658
  27 H     1.0000    0     1.008    5.728191   -1.931415    4.495481
  28 H     1.0000    0     1.008    4.012516    0.917220    5.150158
  29 H     1.0000    0     1.008    7.070195    1.089178    3.659553
  30 H     1.0000    0     1.008    5.178503   -3.909736   -0.341802
  31 H     1.0000    0     1.008    4.913717   -1.527061   -2.769150
  32 H     1.0000    0     1.008    7.576993   -1.513242   -0.682308
  33 H     1.0000    0     1.008    3.190568    5.946065    1.432084
  34 H     1.0000    0     1.008    1.439567    4.025708    3.592256
  35 H     1.0000    0     1.008   -1.514381    6.902506    1.450936
  36 H     1.0000    0     1.008   -0.299661    6.105798   -1.584350
  37 H     1.0000    0     1.008   -5.582136    1.199031    1.942544
  38 H     1.0000    0     1.008   -4.469284    4.142096    3.485812
* core charge reduced due to ECP

--------------------------------
INTERNAL COORDINATES (ANGSTROEM)
--------------------------------
 C      0   0   0     0.000000000000     0.00000000     0.00000000
 C      1   0   0     1.532738436404     0.00000000     0.00000000
 C      2   1   0     1.530362791159   112.50695695     0.00000000
 C      3   2   1     1.530409587779   106.95767710   212.48175929
 C      4   3   2     1.537631903703   107.13824954     7.02967507
 C      2   1   3     1.529898908207   112.46352057   241.12310443
 C      6   2   1     1.545659297318   111.70491304   276.54418193
 C      7   6   2     1.552862032237   106.77371263   185.93966620
 C      8   7   6     1.524361745582    59.53022304   233.87345494
 C      9   8   7     1.532851991606   116.91478107   253.11130789
 C      9   8   7     1.533327856155   116.96118177   106.92668376
 C      8   7   6     1.537332958336   107.47200281   108.59170235
 C     12   8   7     1.548972700917   109.33647246   280.83109602
 C     13  12   8     1.526971586197   112.49485037    52.99281636
 C     14  13  12     1.345754888216   118.70475490    91.64444306
 H      1   2   3     1.110637087856   109.85217231   300.05969460
 H      1   2   3     1.110635267022   109.87360335   180.84747254
 H      1   2   3     1.111186539146   110.95532599    60.48140370
 H      2   1   3     1.113863870446   108.44342440   119.36651752
 H      3   2   1     1.111948322426   110.56936541    91.71149186
 H      3   2   1     1.113131371124   110.86201163   331.39855991
 H      4   3   2     1.110805219653   111.19272120   243.25555189
 H      4   3   2     1.112821693615   109.16484274   125.66695575
 H      5   4   3     1.113264035385   107.52456489   128.42422835
 H      6   2   1     1.112371857614   109.04453843    39.77834168
 H      7   6   2     1.113530389287   115.72836519   316.17117692
 H      8   7   6     1.113478228150   116.32123811   337.24143483
 H     10   9   8     1.110121691754   109.35514586   164.54199204
 H     10   9   8     1.109022944814   112.87017861    44.50332610
 H     10   9   8     1.109975591047   109.34383788   283.46710396
 H     11   9   8     1.109990136336   109.41025201   221.49212002
 H     11   9   8     1.109270880939   112.80397034   342.84338741
 H     11   9   8     1.110094373864   109.46466502   102.56000402
 H     12   8   7     1.110280500584   108.44506329   162.14725496
 H     12   8   7     1.110723073352   113.20091102    43.25761913
 H     13  12   8     1.112051895469   109.02534225   176.13462487
 H     13  12   8     1.111497666353   109.10241263   291.97283289
 H     15  14  13     1.084198506598   121.71896941   188.72709675
 H     15  14  13     1.085681414240   120.81344843     6.96570782

---------------------------
INTERNAL COORDINATES (A.U.)
---------------------------
 C      0   0   0     0.000000000000     0.00000000     0.00000000
 C      1   0   0     2.896455879738     0.00000000     0.00000000
 C      2   1   0     2.891966560834   112.50695695     0.00000000
 C      3   2   1     2.892054993629   106.95767710   212.48175929
 C      4   3   2     2.905703192778   107.13824954     7.02967507
 C      2   1   3     2.891089949096   112.46352057   241.12310443
 C      6   2   1     2.920872768280   111.70491304   276.54418193
 C      7   6   2     2.934483964692   106.77371263   185.93966620
 C      8   7   6     2.880626228176    59.53022304   233.87345494
 C      9   8   7     2.896670467970   116.91478107   253.11130789
 C      9   8   7     2.897569721646   116.96118177   106.92668376
 C      8   7   6     2.905138267906   107.47200281   108.59170235
 C     12   8   7     2.927134193653   109.33647246   280.83109602
 C     13  12   8     2.885558112192   112.49485037    52.99281636
 C     14  13  12     2.543108182114   118.70475490    91.64444306
 H      1   2   3     2.098799930223   109.85217231   300.05969460
 H      1   2   3     2.098796489347   109.87360335   180.84747254
 H      1   2   3     2.099838242685   110.95532599    60.48140370
 H      2   1   3     2.104897665613   108.44342440   119.36651752
 H      3   2   1     2.101277804459   110.56936541    91.71149186
 H      3   2   1     2.103513442500   110.86201163   331.39855991
 H      4   3   2     2.099117653275   111.19272120   243.25555189
 H      4   3   2     2.102928236819   109.16484274   125.66695575
 H      5   4   3     2.103764141622   107.52456489   128.42422835
 H      6   2   1     2.102078169972   109.04453843    39.77834168
 H      7   6   2     2.104267477551   115.72836519   316.17117692
 H      8   7   6     2.104168907288   116.32123811   337.24143483
 H     10   9   8     2.097825972740   109.35514586   164.54199204
 H     10   9   8     2.095749641934   112.87017861    44.50332610
 H     10   9   8     2.097549882417   109.34383788   283.46710396
 H     11   9   8     2.097577369030   109.41025201   221.49212002
 H     11   9   8     2.096218173308   112.80397034   342.84338741
 H     11   9   8     2.097774349409   109.46466502   102.56000402
 H     12   8   7     2.098126077936   108.44506329   162.14725496
 H     12   8   7     2.098962419263   113.20091102    43.25761913
 H     13  12   8     2.101473529145   109.02534225   176.13462487
 H     13  12   8     2.100426187900   109.10241263   291.97283289
 H     15  14  13     2.048838252276   121.71896941   188.72709675
 H     15  14  13     2.051640541602   120.81344843     6.96570782

---------------------
BASIS SET INFORMATION
---------------------
There are 2 groups of distinct atoms

 Group   1 Type C   : 6s6p2d contracted to 2s2p1d pattern {42/42/2}
 Group   2 Type H   : 8s2p contracted to 2s1p pattern {53/2}

Atom   0C    basis set group =>   1
Atom   1C    basis set group =>   1
Atom   2C    basis set group =>   1
Atom   3C    basis set group =>   1
Atom   4C    basis set group =>   1
Atom   5C    basis set group =>   1
Atom   6C    basis set group =>   1
Atom   7C    basis set group =>   1
Atom   8C    basis set group =>   1
Atom   9C    basis set group =>   1
Atom  10C    basis set group =>   1
Atom  11C    basis set group =>   1
Atom  12C    basis set group =>   1
Atom  13C    basis set group =>   1
Atom  14C    basis set group =>   1
Atom  15H    basis set group =>   2
Atom  16H    basis set group =>   2
Atom  17H    basis set group =>   2
Atom  18H    basis set group =>   2
Atom  19H    basis set group =>   2
Atom  20H    basis set group =>   2
Atom  21H    basis set group =>   2
Atom  22H    basis set group =>   2
Atom  23H    basis set group =>   2
Atom  24H    basis set group =>   2
Atom  25H    basis set group =>   2
Atom  26H    basis set group =>   2
Atom  27H    basis set group =>   2
Atom  28H    basis set group =>   2
Atom  29H    basis set group =>   2
Atom  30H    basis set group =>   2
Atom  31H    basis set group =>   2
Atom  32H    basis set group =>   2
Atom  33H    basis set group =>   2
Atom  34H    basis set group =>   2
Atom  35H    basis set group =>   2
Atom  36H    basis set group =>   2
Atom  37H    basis set group =>   2
Atom  38H    basis set group =>   2
---------------------------------
AUXILIARY/J BASIS SET INFORMATION
---------------------------------
There are 2 groups of distinct atoms

 Group   1 Type C   : 12s5p4d2f1g contracted to 6s4p3d1f1g pattern {711111/2111/211/2/1}
 Group   2 Type H   : 5s2p1d contracted to 3s1p1d pattern {311/2/1}

Atom   0C    basis set group =>   1
Atom   1C    basis set group =>   1
Atom   2C    basis set group =>   1
Atom   3C    basis set group =>   1
Atom   4C    basis set group =>   1
Atom   5C    basis set group =>   1
Atom   6C    basis set group =>   1
Atom   7C    basis set group =>   1
Atom   8C    basis set group =>   1
Atom   9C    basis set group =>   1
Atom  10C    basis set group =>   1
Atom  11C    basis set group =>   1
Atom  12C    basis set group =>   1
Atom  13C    basis set group =>   1
Atom  14C    basis set group =>   1
Atom  15H    basis set group =>   2
Atom  16H    basis set group =>   2
Atom  17H    basis set group =>   2
Atom  18H    basis set group =>   2
Atom  19H    basis set group =>   2
Atom  20H    basis set group =>   2
Atom  21H    basis set group =>   2
Atom  22H    basis set group =>   2
Atom  23H    basis set group =>   2
Atom  24H    basis set group =>   2
Atom  25H    basis set group =>   2
Atom  26H    basis set group =>   2
Atom  27H    basis set group =>   2
Atom  28H    basis set group =>   2
Atom  29H    basis set group =>   2
Atom  30H    basis set group =>   2
Atom  31H    basis set group =>   2
Atom  32H    basis set group =>   2
Atom  33H    basis set group =>   2
Atom  34H    basis set group =>   2
Atom  35H    basis set group =>   2
Atom  36H    basis set group =>   2
Atom  37H    basis set group =>   2
Atom  38H    basis set group =>   2
-------------------------
ECP PARAMETER INFORMATION
-------------------------

 Group 1, Type C  ECP vDZP-ECP (replacing 2 core electrons, lmax=3)

Atom   0C    ECP group =>   1
Atom   1C    ECP group =>   1
Atom   2C    ECP group =>   1
Atom   3C    ECP group =>   1
Atom   4C    ECP group =>   1
Atom   5C    ECP group =>   1
Atom   6C    ECP group =>   1
Atom   7C    ECP group =>   1
Atom   8C    ECP group =>   1
Atom   9C    ECP group =>   1
Atom  10C    ECP group =>   1
Atom  11C    ECP group =>   1
Atom  12C    ECP group =>   1
Atom  13C    ECP group =>   1
Atom  14C    ECP group =>   1



           ************************************************************
           *        Program running with 40 parallel MPI-processes    *
           *              working on a common directory               *
           ************************************************************
------------------------------------------------------------------------------
                             ORCA STARTUP CALCULATIONS
                           -- RI-GTO INTEGRALS CHOSEN --
------------------------------------------------------------------------------
------------------------------------------------------------------------------
                   ___                                                        
                  /   \      - P O W E R E D   B Y -                         
                 /     \                                                     
                 |  |  |   _    _      __       _____    __    __             
                 |  |  |  | |  | |    /  \     |  _  \  |  |  /  |          
                  \  \/   | |  | |   /    \    | | | |  |  | /  /          
                 / \  \   | |__| |  /  /\  \   | |_| |  |  |/  /          
                |  |  |   |  __  | /  /__\  \  |    /   |      \           
                |  |  |   | |  | | |   __   |  |    \   |  |\   \          
                \     /   | |  | | |  |  |  |  | |\  \  |  | \   \       
                 \___/    |_|  |_| |__|  |__|  |_| \__\ |__|  \__/        
                                                                              
                      - O R C A' S   B I G   F R I E N D -                    
                                      &                                       
                       - I N T E G R A L  F E E D E R -                       
                                                                              
 v1 FN, 2020, v2 2021, v3 2022-2024                                           
------------------------------------------------------------------------------


----------------------
SHARK INTEGRAL PACKAGE
----------------------

Number of atoms                             ...     39
Number of basis functions                   ...    315
Number of shells                            ...    147
Maximum angular momentum                    ...      2
Integral batch strategy                     ... SHARK/LIBINT Hybrid
RI-J (if used) integral strategy            ... SPLIT-RIJ (Revised 2003 algorithm where possible)
Printlevel                                  ...      1
Contraction scheme used                     ... SEGMENTED contraction
Prescreening option                         ... SCHWARTZ
   Thresh                                   ... 2.500e-11
   Tcut                                     ... 2.500e-12
   Tpresel                                  ... 2.500e-12 
Coulomb Range Separation                    ... NOT USED
Exchange Range Separation                   ... Long Range
   Mu parameter                             ... 3.000e-01
   Scaling (regular/separated)              ... 1.670e-01 8.330e-01
Multipole approximations                    ... NOT USED
Finite Nucleus Model                        ... NOT USED
CABS basis                                  ... NOT available
Auxiliary Coulomb fitting basis             ... AVAILABLE
   # of basis functions in Aux-J            ...    999
   # of shells in Aux-J                     ...    345
   Maximum angular momentum in Aux-J        ...      4
Auxiliary J/K fitting basis                 ... NOT available
Auxiliary Correlation fitting basis         ... NOT available
Auxiliary 'external' fitting basis          ... NOT available

Checking pre-screening integrals            ... done (  0.0 sec) Dimension = 147
Check shell pair data                       ... done (  0.0 sec)
Shell pair information
Shell pair cut-off parameter TPreSel        ...   2.5e-12
Total number of shell pairs                 ...     10878
Shell pairs after pre-screening             ...     10863
Total number of primitive shell pairs       ...    102036
Primitive shell pairs kept                  ...     79434
          la=0 lb=0:   3081 shell pairs
          la=1 lb=0:   4204 shell pairs
          la=1 lb=1:   1478 shell pairs
          la=2 lb=0:   1170 shell pairs
          la=2 lb=1:    810 shell pairs
          la=2 lb=2:    120 shell pairs

Calculating one electron integrals          ... done (  0.0 sec)
Calculating ECP integrals                   ... done (  0.2 sec)
Calculating RI/J V-Matrix + Cholesky decomp.... done (  0.1 sec)
Calculating Nuclear repulsion               ... done (  0.0 sec) ENN=    582.203370723193 Eh

Diagonalization of the overlap matrix:
Smallest eigenvalue                        ... 1.026e-03
Time for diagonalization                   ...    0.014 sec
Threshold for overlap eigenvalues          ... 1.000e-07
Number of eigenvalues below threshold      ... 0
Time for construction of square roots      ...    0.008 sec
Total time needed                          ...    0.024 sec

-------------------
DFT GRID GENERATION
-------------------

General Integration Accuracy     IntAcc      ... 4.388
Radial Grid Type                 RadialGrid  ... OptM3 with GC (2021)
Angular Grid (max. ang.)         AngularGrid ... 4 (Lebedev-302)
Angular grid pruning method      GridPruning ... 4 (adaptive)
Weight generation scheme         WeightScheme... mBecke (2022)
Basis function cutoff            BFCut       ... 1.0000e-11
Integration weight cutoff        WCut        ... 1.0000e-14
Partially contracted basis set               ... off
Rotationally invariant grid construction     ... off
Angular grids for H and He will be reduced by one unit

Total number of grid points                  ...   164471
Total number of batches                      ...     2587
Average number of points per batch           ...       63
Average number of grid points per atom       ...     4217

--------------------
COSX GRID GENERATION
--------------------

GRIDX 1
-------
General Integration Accuracy     IntAcc      ... 3.816
Radial Grid Type                 RadialGrid  ... OptM3 with GC (2021)
Angular Grid (max. ang.)         AngularGrid ... 1 (Lebedev-50)
Angular grid pruning method      GridPruning ... 4 (adaptive)
Weight generation scheme         WeightScheme... mBecke (2022)
Basis function cutoff            BFCut       ... 1.0000e-11
Integration weight cutoff        WCut        ... 1.0000e-14
Partially contracted basis set               ... on
Rotationally invariant grid construction     ... off
Angular grids for H and He will be reduced by one unit

Total number of grid points                  ...    20963
Total number of batches                      ...      190
Average number of points per batch           ...      110
Average number of grid points per atom       ...      538
UseSFitting                                  ... on

GRIDX 2
-------
General Integration Accuracy     IntAcc      ... 4.020
Radial Grid Type                 RadialGrid  ... OptM3 with GC (2021)
Angular Grid (max. ang.)         AngularGrid ... 2 (Lebedev-110)
Angular grid pruning method      GridPruning ... 4 (adaptive)
Weight generation scheme         WeightScheme... mBecke (2022)
Basis function cutoff            BFCut       ... 1.0000e-11
Integration weight cutoff        WCut        ... 1.0000e-14
Partially contracted basis set               ... on
Rotationally invariant grid construction     ... off
Angular grids for H and He will be reduced by one unit

Total number of grid points                  ...    43271
Total number of batches                      ...      356
Average number of points per batch           ...      121
Average number of grid points per atom       ...     1110
UseSFitting                                  ... on

GRIDX 3
-------
General Integration Accuracy     IntAcc      ... 4.338
Radial Grid Type                 RadialGrid  ... OptM3 with GC (2021)
Angular Grid (max. ang.)         AngularGrid ... 3 (Lebedev-194)
Angular grid pruning method      GridPruning ... 4 (adaptive)
Weight generation scheme         WeightScheme... mBecke (2022)
Basis function cutoff            BFCut       ... 1.0000e-11
Integration weight cutoff        WCut        ... 1.0000e-14
Partially contracted basis set               ... on
Rotationally invariant grid construction     ... off
Angular grids for H and He will be reduced by one unit

Total number of grid points                  ...    93952
Total number of batches                      ...      756
Average number of points per batch           ...      124
Average number of grid points per atom       ...     2409
UseSFitting                                  ... on
Initializing property integral containers    ... done (  0.0 sec)

SHARK setup successfully completed in   5.5 seconds

Maximum memory used throughout the entire STARTUP-calculation: 52.4 MB


           ************************************************************
           *        Program running with 40 parallel MPI-processes    *
           *              working on a common directory               *
           ************************************************************
-------------------------------------------------------------------------------
                                 ORCA GUESS
                   Start orbitals & Density for SCF / CASSCF
-------------------------------------------------------------------------------

------------
SCF SETTINGS
------------
Hamiltonian:
 Density Functional     Method          .... DFT(GTOs)
 Exchange Functional    Exchange        .... WB97X-V
 Correlation Functional Correlation     .... WB97X-V
 Gradients option       PostSCFGGA      .... off
 Hybrid DFT is turned on
   Fraction HF Exchange ScalHFX         ....  0.167000
   Scaling of DF-GGA-X  ScalDFX         ....  0.000000
   Scaling of DF-GGA-C  ScalDFC         ....  1.000000
   Scaling of DF-LDA-C  ScalLDAC        ....  1.000000
   Perturbative correction              ....  0.000000
 Long-range corrected/Screened/Range-Separated Hybrid DFT is turned on
   Amount of maximum screened exact exchange              ....  0.833000
   Range separation parameter mu (erf(mu*r12)/r12)        ....  0.300000
   NL short-range parameter             ....  6.000000
   NL long-range parameter              ....  0.010000
 RI-approximation to the Coulomb term is turned on
   Number of AuxJ basis functions       .... 999
   RIJ-COSX (HFX calculated with COS-X)).... on


General Settings:
 Integral files         IntName         .... ./output/aromadendrene/aromadendrene
 Hartree-Fock type      HFTyp           .... RHF
 Total Charge           Charge          ....    0
 Multiplicity           Mult            ....    1
 Number of Electrons    NEL             ....   84
 Basis Dimension        Dim             ....  315
 Nuclear Repulsion      ENuc            ....    582.2033707232 Eh

Convergence Acceleration:
 AO-DIIS                CNVDIIS         .... on
   Start iteration      DIISMaxIt       ....    12
   Startup error        DIISStart       ....  0.200000
   # of expansion vecs  DIISMaxEq       ....     5
   Bias factor          DIISBfac        ....   1.050
   Max. coefficient     DIISMaxC        ....  10.000
 MO-DIIS                CNVKDIIS        .... off
 Trust-Rad. Augm. Hess. CNVTRAH         .... auto
   Auto Start mean grad. ratio tolernc. ....  1.125000
   Auto Start start iteration           ....    50
   Auto Start num. interpolation iter.  ....    10
   Max. Number of Micro iterations      ....    24
   Max. Number of Macro iterations      .... Maxiter - #DIIS iter
   Number of Davidson start vectors     ....     2
   Converg. threshold    (grad. norm)   ....   1.000e-05
   Grad. Scal. Fac. for Micro threshold ....   0.100
   Minimum threshold for Micro iter.    ....   1.000e-02
   NR start threshold (gradient norm)   ....   1.000e-04
   Initial trust radius                 ....   0.400
   Minimum AH scaling param. (alpha)    ....   1.000
   Maximum AH scaling param. (alpha)    .... 1000.000
   Quad. conv. algorithm                .... NR
   White noise on init. David. guess    .... on
   Maximum white noise                  ....   0.010
   Pseudo random numbers                .... off
   Inactive MOs                         .... canonical
   Orbital update algorithm             .... Taylor
   Preconditioner                       .... Diag
   Full preconditioner red. dimension   ....   250
 SOSCF                  CNVSOSCF        .... on
   Start iteration      SOSCFMaxIt      ....   150
   Startup grad/error   SOSCFStart      ....  0.003300
   Hessian update       SOSCFHessUp     .... L-BFGS
 Level Shifting         CNVShift        .... on
   Level shift para.    LevelShift      ....    0.2500
   Turn off err/grad.   ShiftErr        ....    0.0010
 Zerner damping         CNVZerner       .... off
 Static damping         CNVDamp         .... on
   Fraction old density DampFac         ....    0.7000
   Max. Damping (<1)    DampMax         ....    0.9800
   Min. Damping (>=0)   DampMin         ....    0.0000
   Turn off err/grad.   DampErr         ....    0.1000

SCF Procedure:
 Maximum # iterations   MaxIter         ....   125
 SCF integral mode      SCFMode         .... Direct
   Integral package                     .... SHARK and LIBINT hybrid scheme
 Reset frequency        DirectResetFreq ....    20
 Integral Threshold     Thresh          ....  2.500e-11 Eh
 Primitive CutOff       TCut            ....  2.500e-12 Eh

Convergence Tolerance:
 Convergence Check Mode ConvCheckMode   .... Total+1el-Energy
 Convergence forced     ConvForced      .... 0
 Energy Change          TolE            ....  1.000e-08 Eh
 1-El. energy change                    ....  1.000e-05 Eh
 Orbital Gradient       TolG            ....  1.000e-05
 Orbital Rotation angle TolX            ....  1.000e-05
 DIIS Error             TolErr          ....  5.000e-07

------------------------------
INITIAL GUESS: MODEL POTENTIAL
------------------------------
Loading Hartree-Fock densities                     ... done
Atomic calculation to generate a density for atom 0 (C  with ECP)
  Multiplicity assumed   :    1
  Atomic configuration   : 1s2 2s2 2p2 
  Number of open shells  : 1
  Command: /home/aspe232/Project/Software/ORCA/6_0_1/build/orca ./output/aromadendrene/aromadendrene_atom6.inp "" > ./output/aromadendrene/aromadendrene_atom6.out
Returned from the atomic calculation with res=0
Calculating cut-offs                               ... done
Initializing the effective Hamiltonian             ... done
Setting up the integral package (SHARK)            ... done
Starting the Coulomb interaction                   ... done (   0.1 sec)
Making the grid                                    ... done (   1.1 sec)
Mapping shells                                     ... done
Starting the XC term evaluation                    ... done (   0.1 sec)
  promolecular density results
     # of electrons  =    114.001822114
     EX              =    -55.398126564
     EC              =     -4.571200495
     EX+EC           =    -59.969327059
Transforming the Hamiltonian                       ... done (   0.0 sec)
Diagonalizing the Hamiltonian                      ... done (   0.0 sec)
Back transforming the eigenvectors                 ... done (   0.0 sec)
Now organizing SCF variables                       ... done
                      ------------------
                      INITIAL GUESS DONE (   2.0 sec)
                      ------------------
             **** ENERGY FILE WAS UPDATED (./output/aromadendrene/aromadendrene.en.tmp) ****
Finished Guess after   3.0 sec
Maximum memory used throughout the entire GUESS-calculation: 35.0 MB


           ************************************************************
           *        Program running with 40 parallel MPI-processes    *
           *              working on a common directory               *
           ************************************************************

-------------------------------------------------------------------------------------------
                                      ORCA LEAN-SCF
                              memory conserving SCF solver
-------------------------------------------------------------------------------------------

----------------------------------------D-I-I-S--------------------------------------------
Iteration    Energy (Eh)           Delta-E    RMSDP     MaxDP     DIISErr   Damp  Time(sec)
-------------------------------------------------------------------------------------------
               ***  Starting incremental Fock matrix formation  ***
    1    -99.1654239842631569     0.00e+00  3.38e-03  7.41e-02  1.97e-01  0.700   8.5
    2    -99.4371663812856923    -2.72e-01  2.47e-03  5.35e-02  1.18e-01  0.700   5.8
                               ***Turning on AO-DIIS***
    3    -99.5767644441957600    -1.40e-01  1.28e-03  2.91e-02  6.03e-02  0.700   6.2
    4    -99.6588336226028559    -8.21e-02  2.76e-03  5.91e-02  3.78e-02  0.000   6.7
    5    -99.8313106194642614    -1.72e-01  2.19e-04  6.16e-03  5.41e-03  0.000   6.2
                              *** Initializing SOSCF ***
---------------------------------------S-O-S-C-F--------------------------------------
Iteration    Energy (Eh)           Delta-E    RMSDP     MaxDP     MaxGrad    Time(sec)
--------------------------------------------------------------------------------------
    6    -99.8318060059359595    -4.95e-04  1.05e-04  1.71e-03  1.23e-03     5.9
               *** Restarting incremental Fock matrix formation ***
    7    -99.8319071543152177    -1.01e-04  5.83e-05  1.10e-03  1.95e-04     8.4
    8    -99.8319186956279054    -1.15e-05  3.36e-05  6.74e-04  2.18e-04     7.7
    9    -99.8319221773106165    -3.48e-06  1.05e-05  1.60e-04  4.31e-05     7.5
   10    -99.8319224442944915    -2.67e-07  2.34e-06  4.88e-05  1.58e-05     7.0
   11    -99.8319224575888029    -1.33e-08  9.10e-07  2.13e-05  6.70e-06     6.4
   12    -99.8319224690901592    -1.15e-08  2.38e-07  6.11e-06  2.81e-06     6.1
   13    -99.8319224590675276     1.00e-08  1.14e-07  2.39e-06  6.17e-07     5.6
                  *** Gradient check signals convergence ***

               *****************************************************
               *                     SUCCESS                       *
               *           SCF CONVERGED AFTER  13 CYCLES          *
               *****************************************************

Recomputing exchange energy using gridx3       ... done (    9.894 sec)
Old exchange energy                            :    -15.887624153 Eh
New exchange energy                            :    -15.887606418 Eh
Exchange energy change after final integration :      0.000017736 Eh
Total energy after final integration           :    -99.831904723 Eh
             **** ENERGY FILE WAS UPDATED (./output/aromadendrene/aromadendrene.en.tmp) ****

----------------
TOTAL SCF ENERGY
----------------

Total Energy       :        -99.83190472333740 Eh           -2716.56423 eV

Components:
Nuclear Repulsion  :        582.20337072319342 Eh           15842.55914 eV
Electronic Energy  :       -682.03529318226094 Eh          -18559.12386 eV
One Electron Energy:      -1303.30084590020419 Eh          -35464.61900 eV
Two Electron Energy:        621.26555271794325 Eh           16905.49515 eV

Virial components:
Potential Energy   :       -177.74099599524897 Eh           -4836.57839 eV
Kinetic Energy     :         77.90909127191156 Eh            2120.01415 eV
Virial Ratio       :          2.28138966959469

DFT components:
N(Alpha)           :       42.000169909175 electrons
N(Beta)            :       42.000169909175 electrons
N(Total)           :       84.000339818349 electrons
E(X)               :      -16.079710545833 Eh       
E(C)               :       -3.146139674504 Eh       
E(XC)              :      -19.225850220337 Eh       

---------------
SCF CONVERGENCE
---------------

  Last Energy change         ...   -1.0023e-08  Tolerance :   1.0000e-08
  Last MAX-Density change    ...    2.3891e-06  Tolerance :   1.0000e-07
  Last RMS-Density change    ...    1.1381e-07  Tolerance :   5.0000e-09
  Last DIIS Error            ...    1.2301e-03  Tolerance :   5.0000e-07
  Last Orbital Gradient      ...    6.1733e-07  Tolerance :   1.0000e-05
  Last Orbital Rotation      ...    1.6504e-06  Tolerance :   1.0000e-05


----------------
ORBITAL ENERGIES
----------------

  NO   OCC          E(Eh)            E(eV) 
   0   2.0000      -1.016476       -27.6597 
   1   2.0000      -0.978198       -26.6181 
   2   2.0000      -0.938373       -25.5344 
   3   2.0000      -0.884178       -24.0597 
   4   2.0000      -0.864413       -23.5219 
   5   2.0000      -0.860809       -23.4238 
   6   2.0000      -0.822482       -22.3809 
   7   2.0000      -0.818177       -22.2637 
   8   2.0000      -0.780814       -21.2470 
   9   2.0000      -0.754543       -20.5322 
  10   2.0000      -0.716122       -19.4867 
  11   2.0000      -0.684920       -18.6376 
  12   2.0000      -0.676772       -18.4159 
  13   2.0000      -0.649831       -17.6828 
  14   2.0000      -0.618562       -16.8319 
  15   2.0000      -0.599515       -16.3136 
  16   2.0000      -0.580211       -15.7883 
  17   2.0000      -0.572637       -15.5822 
  18   2.0000      -0.566577       -15.4173 
  19   2.0000      -0.546460       -14.8699 
  20   2.0000      -0.542919       -14.7736 
  21   2.0000      -0.533120       -14.5069 
  22   2.0000      -0.520592       -14.1660 
  23   2.0000      -0.512794       -13.9538 
  24   2.0000      -0.507042       -13.7973 
  25   2.0000      -0.503085       -13.6896 
  26   2.0000      -0.491314       -13.3693 
  27   2.0000      -0.489564       -13.3217 
  28   2.0000      -0.478018       -13.0075 
  29   2.0000      -0.471797       -12.8382 
  30   2.0000      -0.469356       -12.7718 
  31   2.0000      -0.452603       -12.3160 
  32   2.0000      -0.441001       -12.0002 
  33   2.0000      -0.433753       -11.8030 
  34   2.0000      -0.429577       -11.6894 
  35   2.0000      -0.418965       -11.4006 
  36   2.0000      -0.415137       -11.2964 
  37   2.0000      -0.411326       -11.1928 
  38   2.0000      -0.404274       -11.0009 
  39   2.0000      -0.366196        -9.9647 
  40   2.0000      -0.340911        -9.2766 
  41   2.0000      -0.323299        -8.7974 
  42   0.0000       0.072055         1.9607 
  43   0.0000       0.088162         2.3990 
  44   0.0000       0.092490         2.5168 
  45   0.0000       0.095890         2.6093 
  46   0.0000       0.099105         2.6968 
  47   0.0000       0.112684         3.0663 
  48   0.0000       0.118562         3.2262 
  49   0.0000       0.125005         3.4016 
  50   0.0000       0.125334         3.4105 
  51   0.0000       0.132838         3.6147 
  52   0.0000       0.144826         3.9409 
*Only the first 10 virtual orbitals were printed.

                    ********************************
                    * MULLIKEN POPULATION ANALYSIS *
                    ********************************

-----------------------
MULLIKEN ATOMIC CHARGES
-----------------------
   0 C :   -0.066518
   1 C :   -0.068268
   2 C :   -0.054173
   3 C :   -0.045531
   4 C :   -0.088138
   5 C :   -0.056211
   6 C :   -0.027970
   7 C :   -0.067156
   8 C :   -0.093655
   9 C :   -0.048013
  10 C :   -0.045127
  11 C :   -0.049274
  12 C :   -0.051213
  13 C :   -0.078616
  14 C :   -0.014410
  15 H :    0.036628
  16 H :    0.032896
  17 H :    0.030816
  18 H :    0.033395
  19 H :    0.040217
  20 H :    0.031241
  21 H :    0.047161
  22 H :    0.037870
  23 H :    0.040633
  24 H :    0.033529
  25 H :    0.045656
  26 H :    0.042184
  27 H :    0.036530
  28 H :    0.032283
  29 H :    0.043790
  30 H :    0.035783
  31 H :    0.032309
  32 H :    0.035724
  33 H :    0.034261
  34 H :    0.032943
  35 H :    0.040750
  36 H :    0.039453
  37 H :    0.017064
  38 H :    0.021158
Sum of atomic charges:    0.0000000

--------------------------------
MULLIKEN REDUCED ORBITAL CHARGES
--------------------------------
  0 C s       :     0.963409  s :     0.963409
      pz      :     1.032754  p :     3.028521
      px      :     1.023308
      py      :     0.972459
      dz2     :     0.014859  d :     0.074588
      dxz     :     0.017162
      dyz     :     0.009786
      dx2y2   :     0.013258
      dxy     :     0.019523

  1 C s       :     1.043995  s :     1.043995
      pz      :     1.020212  p :     2.900488
      px      :     0.948444
      py      :     0.931832
      dz2     :     0.027367  d :     0.123785
      dxz     :     0.024507
      dyz     :     0.016453
      dx2y2   :     0.026634
      dxy     :     0.028824

  2 C s       :     0.993738  s :     0.993738
      pz      :     1.008293  p :     2.963938
      px      :     0.991082
      py      :     0.964563
      dz2     :     0.015560  d :     0.096497
      dxz     :     0.017097
      dyz     :     0.023906
      dx2y2   :     0.023022
      dxy     :     0.016911

  3 C s       :     0.990465  s :     0.990465
      pz      :     1.035334  p :     2.960519
      px      :     0.985176
      py      :     0.940009
      dz2     :     0.023868  d :     0.094548
      dxz     :     0.011040
      dyz     :     0.014499
      dx2y2   :     0.021217
      dxy     :     0.023923

  4 C s       :     1.026466  s :     1.026466
      pz      :     1.000540  p :     2.943669
      px      :     0.983936
      py      :     0.959193
      dz2     :     0.018887  d :     0.118003
      dxz     :     0.022364
      dyz     :     0.028483
      dx2y2   :     0.020942
      dxy     :     0.027327

  5 C s       :     1.025460  s :     1.025460
      pz      :     1.013973  p :     2.906116
      px      :     0.948909
      py      :     0.943234
      dz2     :     0.019645  d :     0.124636
      dxz     :     0.030324
      dyz     :     0.021361
      dx2y2   :     0.020210
      dxy     :     0.033096

  6 C s       :     1.040643  s :     1.040643
      pz      :     0.987924  p :     2.874520
      px      :     0.860168
      py      :     1.026428
      dz2     :     0.023448  d :     0.112808
      dxz     :     0.029095
      dyz     :     0.013854
      dx2y2   :     0.022843
      dxy     :     0.023567

  7 C s       :     1.062951  s :     1.062951
      pz      :     1.004394  p :     2.889846
      px      :     1.056144
      py      :     0.829309
      dz2     :     0.028631  d :     0.114359
      dxz     :     0.010911
      dyz     :     0.022132
      dx2y2   :     0.022597
      dxy     :     0.030089

  8 C s       :     1.105173  s :     1.105173
      pz      :     0.976382  p :     2.838642
      px      :     0.892415
      py      :     0.969845
      dz2     :     0.030438  d :     0.149841
      dxz     :     0.029051
      dyz     :     0.025615
      dx2y2   :     0.033982
      dxy     :     0.030755

  9 C s       :     0.954880  s :     0.954880
      pz      :     0.957374  p :     3.018653
      px      :     1.024463
      py      :     1.036817
      dz2     :     0.016509  d :     0.074480
      dxz     :     0.015883
      dyz     :     0.016726
      dx2y2   :     0.010628
      dxy     :     0.014734

 10 C s       :     0.954167  s :     0.954167
      pz      :     0.989310  p :     3.016649
      px      :     1.022188
      py      :     1.005150
      dz2     :     0.022339  d :     0.074311
      dxz     :     0.009690
      dyz     :     0.009863
      dx2y2   :     0.025843
      dxy     :     0.006576

 11 C s       :     1.007402  s :     1.007402
      pz      :     0.996460  p :     2.938732
      px      :     0.954160
      py      :     0.988112
      dz2     :     0.027374  d :     0.103140
      dxz     :     0.013052
      dyz     :     0.013351
      dx2y2   :     0.017213
      dxy     :     0.032149

 12 C s       :     0.998900  s :     0.998900
      pz      :     1.033833  p :     2.953702
      px      :     0.932639
      py      :     0.987230
      dz2     :     0.018184  d :     0.098611
      dxz     :     0.016433
      dyz     :     0.020681
      dx2y2   :     0.018940
      dxy     :     0.024373

 13 C s       :     1.097533  s :     1.097533
      pz      :     0.978007  p :     2.863316
      px      :     0.967436
      py      :     0.917874
      dz2     :     0.028282  d :     0.117766
      dxz     :     0.018373
      dyz     :     0.026114
      dx2y2   :     0.021875
      dxy     :     0.023122

 14 C s       :     0.976574  s :     0.976574
      pz      :     0.977814  p :     2.973509
      px      :     1.011511
      py      :     0.984184
      dz2     :     0.017789  d :     0.064327
      dxz     :     0.006897
      dyz     :     0.017147
      dx2y2   :     0.007793
      dxy     :     0.014701

 15 H s       :     0.920067  s :     0.920067
      pz      :     0.010624  p :     0.043305
      px      :     0.015549
      py      :     0.017132

 16 H s       :     0.923502  s :     0.923502
      pz      :     0.015197  p :     0.043602
      px      :     0.018220
      py      :     0.010184

 17 H s       :     0.926007  s :     0.926007
      pz      :     0.021559  p :     0.043177
      px      :     0.011570
      py      :     0.010048

 18 H s       :     0.926305  s :     0.926305
      pz      :     0.021026  p :     0.040299
      px      :     0.010182
      py      :     0.009091

 19 H s       :     0.917291  s :     0.917291
      pz      :     0.012625  p :     0.042492
      px      :     0.019339
      py      :     0.010528

 20 H s       :     0.926536  s :     0.926536
      pz      :     0.018575  p :     0.042223
      px      :     0.009417
      py      :     0.014232

 21 H s       :     0.908561  s :     0.908561
      pz      :     0.011808  p :     0.044278
      px      :     0.019071
      py      :     0.013400

 22 H s       :     0.919439  s :     0.919439
      pz      :     0.022646  p :     0.042691
      px      :     0.009560
      py      :     0.010485

 23 H s       :     0.918432  s :     0.918432
      pz      :     0.017024  p :     0.040935
      px      :     0.011826
      py      :     0.012085

 24 H s       :     0.925599  s :     0.925599
      pz      :     0.017799  p :     0.040873
      px      :     0.013058
      py      :     0.010015

 25 H s       :     0.909319  s :     0.909319
      pz      :     0.020960  p :     0.045024
      px      :     0.012450
      py      :     0.011614

 26 H s       :     0.913359  s :     0.913359
      pz      :     0.023300  p :     0.044458
      px      :     0.012369
      py      :     0.008789

 27 H s       :     0.920115  s :     0.920115
      pz      :     0.011658  p :     0.043354
      px      :     0.010681
      py      :     0.021016

 28 H s       :     0.922423  s :     0.922423
      pz      :     0.016529  p :     0.045294
      px      :     0.015163
      py      :     0.013603

 29 H s       :     0.913170  s :     0.913170
      pz      :     0.009374  p :     0.043040
      px      :     0.019809
      py      :     0.013857

 30 H s       :     0.921008  s :     0.921008
      pz      :     0.010108  p :     0.043209
      px      :     0.010147
      py      :     0.022954

 31 H s       :     0.922404  s :     0.922404
      pz      :     0.022527  p :     0.045287
      px      :     0.011951
      py      :     0.010810

 32 H s       :     0.920618  s :     0.920618
      pz      :     0.009938  p :     0.043658
      px      :     0.023213
      py      :     0.010508

 33 H s       :     0.923579  s :     0.923579
      pz      :     0.009073  p :     0.042160
      px      :     0.016005
      py      :     0.017082

 34 H s       :     0.924493  s :     0.924493
      pz      :     0.022322  p :     0.042564
      px      :     0.010211
      py      :     0.010031

 35 H s       :     0.916586  s :     0.916586
      pz      :     0.013557  p :     0.042664
      px      :     0.011911
[...]
 81:   1510.48   0.000250    1.27  0.000052  ( 0.007048 -0.001275  0.000672)
 82:   1516.29   0.000799    4.04  0.000164  ( 0.003046 -0.011829  0.003912)
 83:   1518.60   0.001603    8.10  0.000329  ( 0.007714 -0.007895  0.014408)
 84:   1521.97   0.000976    4.93  0.000200  (-0.011221  0.006938 -0.005116)
 85:   1525.46   0.001941    9.81  0.000397  ( 0.000867  0.017079  0.010229)
 86:   1526.04   0.001300    6.57  0.000266  ( 0.011921  0.009159 -0.006311)
 87:   1528.83   0.001039    5.25  0.000212  (-0.013023 -0.002584  0.005978)
 88:   1529.12   0.002964   14.98  0.000605  ( 0.004547  0.000146 -0.024170)
 89:   1532.79   0.001681    8.50  0.000342  ( 0.006326  0.017348 -0.001144)
 90:   1546.56   0.001811    9.15  0.000365  (-0.018355  0.000196 -0.005341)
 91:   1586.15   0.000180    0.91  0.000035  ( 0.002085  0.004776  0.002866)
 92:   1760.47   0.005043   25.49  0.000894  ( 0.023766 -0.007362 -0.016582)
 93:   3068.66   0.000924    4.67  0.000094  ( 0.004764 -0.002221 -0.008148)
 94:   3084.02   0.001152    5.82  0.000117  ( 0.003715 -0.001537 -0.010018)
 95:   3089.66   0.004249   21.47  0.000429  ( 0.008615 -0.017457  0.007085)
 96:   3091.82   0.001347    6.81  0.000136  ( 0.007765 -0.007005  0.005154)
 97:   3092.27   0.005493   27.76  0.000554  ( 0.006352 -0.000214 -0.022671)
 98:   3094.59   0.009591   48.47  0.000967  (-0.019391 -0.006317 -0.023479)
 99:   3095.68   0.019742   99.77  0.001990  (-0.016567  0.039990  0.010793)
100:   3101.56   0.011022   55.70  0.001109  (-0.021719 -0.022528 -0.011392)
101:   3115.33   0.005421   27.39  0.000543  ( 0.017561  0.008968 -0.012417)
102:   3140.33   0.008686   43.90  0.000863  ( 0.015393 -0.009463  0.023166)
103:   3151.51   0.003857   19.49  0.000382  (-0.000273  0.019247  0.003375)
104:   3156.55   0.004559   23.04  0.000451  ( 0.019825  0.007385 -0.001778)
105:   3160.00   0.001555    7.86  0.000154  (-0.003435  0.009926  0.006574)
106:   3169.94   0.005456   27.57  0.000537  ( 0.007300  0.006242 -0.021091)
107:   3173.77   0.000947    4.79  0.000093  ( 0.006230  0.006582 -0.003313)
108:   3175.57   0.007095   35.85  0.000697  ( 0.014578  0.021395 -0.005187)
109:   3176.92   0.003815   19.28  0.000375  (-0.005304 -0.003745  0.018237)
110:   3184.01   0.003761   19.01  0.000369  (-0.015353 -0.009141 -0.007026)
111:   3186.62   0.002284   11.54  0.000224  (-0.006473 -0.002169  0.013307)
112:   3197.47   0.002016   10.19  0.000197  (-0.013631  0.002143 -0.002517)
113:   3197.74   0.004390   22.18  0.000428  (-0.003814  0.004878 -0.019750)
114:   3201.23   0.004493   22.70  0.000438  (-0.015228  0.008447  0.011607)
115:   3210.79   0.002858   14.45  0.000278  (-0.011877  0.003686  0.011099)
116:   3301.27   0.001589    8.03  0.000150  (-0.005065 -0.010140 -0.004661)

* The epsilon (eps) is given for a Dirac delta lineshape.
** The dipole moment derivative (T) already includes vibrational overlap.

The first frequency considered to be a vibration is 6
The total number of vibrations considered is 111


--------------------------
THERMOCHEMISTRY AT 298.15K
--------------------------

Temperature         ...   298.15 K
Pressure            ...     1.00 atm
Total Mass          ...   204.36 AMU
Quasi RRHO          ...     True
Cut-Off Frequency   ...     1.00 cm^-1

Throughout the following assumptions are being made:
  (1) The electronic state is orbitally nondegenerate
  (2) There are no thermally accessible electronically excited states
  (3) Hindered rotations indicated by low frequency modes are not
      treated as such but are treated as vibrations and this may
      cause some error
  (4) All equations used are the standard statistical mechanics
      equations for an ideal gas
  (5) All vibrations are strictly harmonic

freq.      38.40  E(vib)   ...       0.54 
freq.     105.01  E(vib)   ...       0.45 
freq.     120.99  E(vib)   ...       0.44 
freq.     136.01  E(vib)   ...       0.42 
freq.     143.74  E(vib)   ...       0.41 
freq.     172.65  E(vib)   ...       0.38 
freq.     206.76  E(vib)   ...       0.35 
freq.     220.90  E(vib)   ...       0.33 
freq.     234.06  E(vib)   ...       0.32 
freq.     244.17  E(vib)   ...       0.31 
freq.     272.64  E(vib)   ...       0.29 
freq.     286.60  E(vib)   ...       0.27 
freq.     328.63  E(vib)   ...       0.24 
freq.     350.60  E(vib)   ...       0.23 
freq.     373.65  E(vib)   ...       0.21 
freq.     375.12  E(vib)   ...       0.21 
freq.     424.55  E(vib)   ...       0.18 
freq.     447.24  E(vib)   ...       0.17 
freq.     465.88  E(vib)   ...       0.16 
freq.     480.08  E(vib)   ...       0.15 
freq.     542.64  E(vib)   ...       0.12 
freq.     547.15  E(vib)   ...       0.12 
freq.     586.22  E(vib)   ...       0.11 
freq.     645.93  E(vib)   ...       0.09 
freq.     720.27  E(vib)   ...       0.07 
freq.     746.70  E(vib)   ...       0.06 
freq.     765.30  E(vib)   ...       0.06 
freq.     778.79  E(vib)   ...       0.05 
freq.     846.73  E(vib)   ...       0.04 
freq.     860.28  E(vib)   ...       0.04 
freq.     884.45  E(vib)   ...       0.04 
freq.     905.01  E(vib)   ...       0.03 
freq.     935.98  E(vib)   ...       0.03 
freq.     941.57  E(vib)   ...       0.03 
freq.     959.96  E(vib)   ...       0.03 
freq.     982.94  E(vib)   ...       0.02 
freq.     985.32  E(vib)   ...       0.02 
freq.     993.25  E(vib)   ...       0.02 
freq.    1010.03  E(vib)   ...       0.02 
freq.    1015.75  E(vib)   ...       0.02 
freq.    1028.92  E(vib)   ...       0.02 
freq.    1038.23  E(vib)   ...       0.02 
freq.    1051.87  E(vib)   ...       0.02 
freq.    1064.55  E(vib)   ...       0.02 
freq.    1089.13  E(vib)   ...       0.02 
freq.    1108.76  E(vib)   ...       0.02 
freq.    1126.90  E(vib)   ...       0.01 
freq.    1153.23  E(vib)   ...       0.01 
freq.    1160.53  E(vib)   ...       0.01 
freq.    1174.33  E(vib)   ...       0.01 
freq.    1179.91  E(vib)   ...       0.01 
freq.    1201.07  E(vib)   ...       0.01 
freq.    1213.87  E(vib)   ...       0.01 
freq.    1220.66  E(vib)   ...       0.01 
freq.    1257.08  E(vib)   ...       0.01 
freq.    1259.47  E(vib)   ...       0.01 
freq.    1262.74  E(vib)   ...       0.01 
freq.    1286.49  E(vib)   ...       0.01 
freq.    1295.17  E(vib)   ...       0.01 
freq.    1315.58  E(vib)   ...       0.01 
freq.    1325.31  E(vib)   ...       0.01 
freq.    1336.91  E(vib)   ...       0.01 
freq.    1353.85  E(vib)   ...       0.01 
freq.    1359.56  E(vib)   ...       0.01 
freq.    1363.42  E(vib)   ...       0.01 
freq.    1376.74  E(vib)   ...       0.01 
freq.    1393.51  E(vib)   ...       0.00 
freq.    1404.79  E(vib)   ...       0.00 
freq.    1421.28  E(vib)   ...       0.00 
freq.    1426.73  E(vib)   ...       0.00 
freq.    1445.86  E(vib)   ...       0.00 
freq.    1451.57  E(vib)   ...       0.00 
freq.    1456.30  E(vib)   ...       0.00 
freq.    1468.64  E(vib)   ...       0.00 
freq.    1473.52  E(vib)   ...       0.00 
freq.    1510.48  E(vib)   ...       0.00 
freq.    1516.29  E(vib)   ...       0.00 
freq.    1518.60  E(vib)   ...       0.00 
freq.    1521.97  E(vib)   ...       0.00 
freq.    1525.46  E(vib)   ...       0.00 
freq.    1526.04  E(vib)   ...       0.00 
freq.    1528.83  E(vib)   ...       0.00 
freq.    1529.12  E(vib)   ...       0.00 
freq.    1532.79  E(vib)   ...       0.00 
freq.    1546.56  E(vib)   ...       0.00 
freq.    1586.15  E(vib)   ...       0.00 
freq.    1760.47  E(vib)   ...       0.00 
freq.    3068.66  E(vib)   ...       0.00 
freq.    3084.02  E(vib)   ...       0.00 
freq.    3089.66  E(vib)   ...       0.00 
freq.    3091.82  E(vib)   ...       0.00 
freq.    3092.27  E(vib)   ...       0.00 
freq.    3094.59  E(vib)   ...       0.00 
freq.    3095.68  E(vib)   ...       0.00 
freq.    3101.56  E(vib)   ...       0.00 
freq.    3115.33  E(vib)   ...       0.00 
freq.    3140.33  E(vib)   ...       0.00 
freq.    3151.51  E(vib)   ...       0.00 
freq.    3156.55  E(vib)   ...       0.00 
freq.    3160.00  E(vib)   ...       0.00 
freq.    3169.94  E(vib)   ...       0.00 
freq.    3173.77  E(vib)   ...       0.00 
freq.    3175.57  E(vib)   ...       0.00 
freq.    3176.92  E(vib)   ...       0.00 
freq.    3184.01  E(vib)   ...       0.00 
freq.    3186.62  E(vib)   ...       0.00 
freq.    3197.47  E(vib)   ...       0.00 
freq.    3197.74  E(vib)   ...       0.00 
freq.    3201.23  E(vib)   ...       0.00 
freq.    3210.79  E(vib)   ...       0.00 
freq.    3301.27  E(vib)   ...       0.00 

------------
INNER ENERGY
------------

The inner energy is: U= E(el) + E(ZPE) + E(vib) + E(rot) + E(trans)
    E(el)   - is the total energy from the electronic structure calculation
              = E(kin-el) + E(nuc-el) + E(el-el) + E(nuc-nuc)
    E(ZPE)  - the the zero temperature vibrational energy from the frequency calculation
    E(vib)  - the the finite temperature correction to E(ZPE) due to population
              of excited vibrational states
    E(rot)  - is the rotational thermal energy
    E(trans)- is the translational thermal energy

Summary of contributions to the inner energy U:
Electronic energy                ...    -99.91284958 Eh
Zero point energy                ...      0.36643986 Eh     229.94 kcal/mol
Thermal vibrational correction   ...      0.01182176 Eh       7.42 kcal/mol
Thermal rotational correction    ...      0.00141627 Eh       0.89 kcal/mol
Thermal translational correction ...      0.00141627 Eh       0.89 kcal/mol
-----------------------------------------------------------------------
Total thermal energy                    -99.53175542 Eh


Summary of corrections to the electronic energy:
(perhaps to be used in another calculation)
Total thermal correction                  0.01465430 Eh       9.20 kcal/mol
Non-thermal (ZPE) correction              0.36643986 Eh     229.94 kcal/mol
-----------------------------------------------------------------------
Total correction                          0.38109416 Eh     239.14 kcal/mol


--------
ENTHALPY
--------

The enthalpy is H = U + kB*T
                kB is Boltzmann's constant
Total thermal energy              ...    -99.53175542 Eh 
Thermal Enthalpy correction       ...      0.00094421 Eh       0.59 kcal/mol
-----------------------------------------------------------------------
Total Enthalpy                    ...    -99.53081121 Eh


Note: Only C1 symmetry has been detected, increase convergence thresholds 
      if your molecule has a higher symmetry. Symmetry factor of 1.0 is   
      used for the rotational entropy correction. 
 

Note: Rotational entropy computed according to Herzberg 
Infrared and Raman Spectra, Chapter V,1, Van Nostrand Reinhold, 1945 
Point Group:  C1, Symmetry Number:   1  
Rotational constants in cm-1:     0.025502     0.019525     0.013041 

Vibrational entropy computed according to the QRRHO of S. Grimme
Chem.Eur.J. 2012 18 9955 using a reference frequency of 100.0 cm-1


-------
ENTROPY
-------

The entropy contributions are T*S = T*(S(el)+S(vib)+S(rot)+S(trans))
     S(el)   - electronic entropy
     S(vib)  - vibrational entropy
     S(rot)  - rotational entropy
     S(trans)- translational entropy
The entropies will be listed as multiplied by the temperature to get
units of energy

Electronic entropy                ...      0.00000000 Eh      0.00 kcal/mol
Vibrational entropy               ...      0.01996674 Eh     12.53 kcal/mol
Rotational entropy                ...      0.01514977 Eh      9.51 kcal/mol
Translational entropy             ...      0.01988345 Eh     12.48 kcal/mol
-----------------------------------------------------------------------
Final entropy term                ...      0.05499997 Eh     34.51 kcal/mol

In case the symmetry of your molecule has not been determined correctly
or in case you have a reason to use a different symmetry number we print 
out the resulting rotational entropy values for sn=1,12:

 non-linear molecules -----------------------------------
|  sn= 1 | S(rot)=       0.01514977 Eh      9.51 kcal/mol|
|  sn= 2 | S(rot)=       0.01449532 Eh      9.10 kcal/mol|
|  sn= 3 | S(rot)=       0.01411248 Eh      8.86 kcal/mol|
|  sn= 4 | S(rot)=       0.01384086 Eh      8.69 kcal/mol|
|  sn= 5 | S(rot)=       0.01363017 Eh      8.55 kcal/mol|
|  sn= 6 | S(rot)=       0.01345803 Eh      8.45 kcal/mol|
|  sn= 7 | S(rot)=       0.01331248 Eh      8.35 kcal/mol|
|  sn= 8 | S(rot)=       0.01318640 Eh      8.27 kcal/mol|
|  sn= 9 | S(rot)=       0.01307520 Eh      8.20 kcal/mol|
|  sn=10 | S(rot)=       0.01297572 Eh      8.14 kcal/mol|
|  sn=11 | S(rot)=       0.01288573 Eh      8.09 kcal/mol|
|  sn=12 | S(rot)=       0.01280357 Eh      8.03 kcal/mol|
 linear molecules ---------------------------------------
|  Dinfh | S(rot)=       0.00942319 Eh      5.91 kcal/mol|
|  Cinfv | S(rot)=       0.01007765 Eh      6.32 kcal/mol|
 --------------------------------------------------------


-------------------
GIBBS FREE ENERGY
-------------------

The Gibbs free energy is G = H - T*S

Total enthalpy                    ...    -99.53081121 Eh 
Total entropy correction          ...     -0.05499997 Eh    -34.51 kcal/mol
-----------------------------------------------------------------------
Final Gibbs free energy         ...    -99.58581118 Eh

For completeness - the Gibbs free energy minus the electronic energy
G-E(el)                           ...      0.32703841 Eh    205.22 kcal/mol


Maximum memory used throughout the entire PROP-calculation: 241.0 MB

--------------------------------
SUGGESTED CITATIONS FOR THIS RUN
--------------------------------

Below you find a list of papers that are relevant to this ORCA run
We neither can nor want to force you to cite these papers, but we appreciate if you do
You receive ORCA, which is the product of decades of hard work by many enthusiastic individuals, for free
The only thing we kindly ask in return is that you cite our papers,
We deeply appreciate it, if you show your appreciation for ORCA by not just citing the generic ORCA reference.

Please note that relegating all ORCA citations to the supporting information does *not* help us.
SI sections are not indexed - citations you put there will not count into any citation statistics
But we need these citations in order to attract the funding resources that allow us to do what we are doing

Therefore, if you are a happy ORCA user, please consider citing a few of the papers listed below in the main body of your paper

In addition to the list printed below, the program has created the file ./output/aromadendrene/aromadendrene.bibtex that contains the list in bibtex format
You can import this file easily into all common literature databanks and citation aid programs


List of essential papers. We consider these as the minimum necessary citations

  1. Neese,F.
     Software update: the ORCA program system, version 5.0
     WIRES Comput. Molec. Sci., 2022 12(1)e1606
     doi.org/10.1002/wcms.1606
  2. Mueller,M.; Hansen,A.; Grimme,S.
     wB97X-3c: A composite range-separated hybrid DFT method with a molecule-optimized polarized valence double-zeta basis set
     J. Chem. Phys., 2023 158 014103
     doi.org/10.1063/5.0133026

List of papers to cite with high priority. The work reported in these papers was absolutely
necessary for this run to complete.
Our perspective: the developers of density functionals and basis sets usually get cited in chemistry papers
Good! But without the algorithms to do something with them, the functionals or basis sets would not do anything.
Hence, in our opinion, the algorithm design and method developments papers are equally worthy of getting cited

  1. Neese,F.
     An improvement of the resolution of the identity approximation for the formation of the Coulomb matrix
     J. Comp. Chem., 2003 24(14)1740-1747
     doi.org/10.1002/jcc.10318
  2. Neese,F.; Wennmohs,F.; Hansen,A.; Becker,U.
     Efficient, approximate and parallel Hartree-Fock and hybrid DFT calculations. A 'chain-of-spheres' algorithm for the Hartree-Fock exchange
     Chem. Phys., 2009 356(1-3)98-109
     doi.org/10.1016/j.chemphys.2008.10.036
  3. Bykov,D.; Petrenko,T.; Izsak,R.; Kossmann,S.; Becker,U.; Valeev,E.; Neese,F.
     Efficient implementation of the analytic second derivatives of Hartree-Fock and hybrid DFT energies: a detailed analysis of different approximations
     Molec. Phys., 2015 113 1961-1977
     doi.org/10.1080/00268976.2015.1025114
  4. Helmich-Paris,B.; de Souza,B.; Neese,F.; Izsák,R.
     An improved chain of spheres for exchange algorithm
     J. Chem. Phys., 2021 155 104109
     doi.org/doi: 10.1063/5.0058766.
  5. Neese,F.
     The SHARK Integral Generation and Digestion System
     J. Comp. Chem., 2022  1-16
     doi.org/10.1002/jcc.26942
  6. Caldeweyher,E.; Bannwarth,C.; Grimme,S.
     Extension of the D3 dispersion coefficient model
     J. Chem. Phys., 2017 147 034112
     doi.org/10.1063/1.4993215
  7. Caldeweyher,E.; Ehlert,S.; Hansen,A.; Neugebauer,H.; Spicher,S.; Bannwarth,C.; Grimme,S.
     A generally applicable atomic-charge dependent London dispersion correction
     J. Chem. Phys., 2019 150 154122
     doi.org/10.1063/1.5090222
  8. Caldeweyher,E.; Mewes,J.; Ehlert,S.; Grimme,S.
     Extension and evaluation of the D4 London-dispersion model for periodic systems
     Phys. Chem. Chem. Phys., 2020 22(16)8499-8512
     doi.org/10.1039/D0CP00502A
  9. Wittmann,L.; Gordiy,I.; Friede,M.; Helmich-Paris,B.; Grimme,S.; Hansen,A.; Bursch,M.
     Extension of the D3 and D4 London Dispersion Corrections to the full Actinides Series
     Phys. Chem. Chem. Phys., 2024 26(32)21379-21394
     doi.org/https://doi.org/10.1039/D4CP01514B 

List of suggested additional citations. These are papers that are important in the 'surrounding' of 
of this run, or papers that preceded the highly important papers. If you like your results we are grateful for a citation.

  1. Izsak,R.; Neese,F.
     An overlap fitted chain of spheres exchange method
     J. Chem. Phys., 2011 135 144105
     doi.org/10.1063/1.3646921
  2. Izsak,R.; Hansen,A.; Neese,F.
     The resolution of identity and chain of spheres approximations for the LPNO-CCSD singles Fock term
     Molec. Phys., 2012 110 2413-2417
     doi.org/10.1080/00268976.2012.687466
  3. Neese,F.
     The ORCA program system
     WIRES Comput. Molec. Sci., 2012 2(1)73-78
     doi.org/10.1002/wcms.81
  4. Izsak,R.; Neese,F.; Klopper,W.
     Robust fitting techniques in the chain of spheres approximation to the Fock exchange: The role of the complementary space
     J. Chem. Phys., 2013 139 
     doi.org/10.1063/1.4819264
  5. Neese,F.
     Software update: the ORCA program system, version 4.0
     WIRES Comput. Molec. Sci., 2018 8(1)1-6
     doi.org/10.1002/wcms.1327
  6. Neese,F.; Wennmohs,F.; Becker,U.; Riplinger,C.
     The ORCA quantum chemistry program package
     J. Chem. Phys., 2020 152 Art. No. L224108
     doi.org/10.1063/5.0004608

List of optional additional citations

  1. Neese,F.
     Approximate second-order SCF convergence for spin unrestricted wavefunctions
     Chem. Phys. Lett., 2000 325(1-3)93-98
     doi.org/10.1016/s0009-2614(00)00662-x

Timings for individual modules:

Sum of individual times          ...     2028.045 sec (=  33.801 min)
Startup calculation              ...       86.929 sec (=   1.449 min)   4.3 %
SCF iterations                   ...     1219.098 sec (=  20.318 min)  60.1 %
Property integrals               ...      142.793 sec (=   2.380 min)   7.0 %
SCF Response                     ...       84.926 sec (=   1.415 min)   4.2 %
Property calculations            ...      217.252 sec (=   3.621 min)  10.7 %
SCF Gradient evaluation          ...      276.418 sec (=   4.607 min)  13.6 %
Geometry relaxation              ...        0.628 sec (=   0.010 min)   0.0 %
                             ****ORCA TERMINATED NORMALLY****
TOTAL RUN TIME: 0 days 0 hours 33 minutes 56 seconds 209 msec
