
                                 *****************
                                 * O   R   C   A *
                                 *****************

                                            #,                                       
                                            ###                                      
                                            ####                                     
                                            #####                                    
                                            ######                                   
                                           ########,                                 
                                     ,,################,,,,,                         
                               ,,#################################,,                 
                          ,,##########################################,,             
                       ,#########################################, ''#####,          
                    ,#############################################,,   '####,        
                  ,##################################################,,,,####,       
                ,###########''''           ''''###############################       
              ,#####''   ,,,,##########,,,,          '''####'''          '####       
            ,##' ,,,,###########################,,,                        '##       
           ' ,,###''''                  '''############,,,                           
         ,,##''                                '''############,,,,        ,,,,,,###''
      ,#''                                            '''#######################'''  
     '                                                          ''''####''''         
             ,#######,   #######,   ,#######,      ##                                
            ,#'     '#,  ##    ##  ,#'     '#,    #''#        ,####,   ,####,        
            ##       ##  ##   ,#'  ##            #'  '#       #'       #'  '#        
            ##       ##  #######   ##           ,######,      #####,   #    #        
            '#,     ,#'  ##    ##  '#,     ,#' ,#      #,     #,   #   #,  ,#        
             '#######'   ##     ##  '#######'  #'      '#     '####' # '####'        



                #########################################################
                #                        -***-                          #
                #          Department of theory and spectroscopy        #
                #                                                       #
                #                      Frank Neese                      #
                #                                                       #
                #     Directorship, Architecture, Infrastructure        #
                #                    SHARK, DRIVERS                     #
                #        Core code/Algorithms in most modules           #
                #                                                       #
                #        Max Planck Institute fuer Kohlenforschung      #
                #                Kaiser Wilhelm Platz 1                 #
                #                 D-45470 Muelheim/Ruhr                 #
                #                      Germany                          #
                #                                                       #
                #                  All rights reserved                  #
                #                        -***-                          #
                #########################################################


                         Program Version 6.0.1  -  RELEASE   -


 With contributions from (in alphabetic order):
[Max-Planck-Institut fuer Kohlenforschung]                               
  Daniel Aravena         : Magnetic Suceptibility                        
  Michael Atanasov       : Ab Initio Ligand Field Theory (pilot matlab implementation)
  Alexander A. Auer      : GIAO ZORA, VPT2 properties, NMR spectrum      
  Ute Becker             : All parallelization in ORCA, NUMFREQ, NUMCALC 
  Giovanni Bistoni       : ED, misc. LED, open-shell LED, HFLD           
  Martin Brehm           : Molecular dynamics                            
  Dmytro Bykov           : pre 5.0 version of the SCF Hessian            
  Marcos Casanova-Páez   : Triplet and SCS-CIS(D). UHF-(DLPNO)-IP/EA/STEOM-CCSD. UHF-CVS-IP/STEOM-CCSD   
  Vijay G. Chilkuri      : MRCI spin determinant printing, contributions to CSF-ICE 
  Pauline Colinet        : FMM embedding                                 
  Dipayan Datta          : RHF DLPNO-CCSD density                        
  Achintya Kumar Dutta   : EOM-CC, STEOM-CC                              
  Nicolas Foglia         : Exact transition moments, OPA infrastructure, MCD improvements    
  Dmitry Ganyushin       : Spin-Orbit,Spin-Spin,Magnetic field MRCI      
  Miquel Garcia-Rates    : C-PCM and meta-GGA Hessian, CCSD/C-PCM, Gaussian charge scheme 
  Tiago L. C. Gouveia    : GS-ROHF, GS-ROCIS                             
  Yang Guo               : DLPNO-NEVPT2, F12-NEVPT2, CIM, IAO-localization        
  Andreas Hansen         : Spin unrestricted coupled pair/coupled cluster methods 
  Ingolf Harden          : AUTO-CI MPn and infrastructure                
  Benjamin Helmich-Paris : MC-RPA, TRAH-(SCF,CASSCF), AVAS, COSX integrals, SCF dyn. polar. 
  Lee Huntington         : MR-EOM, pCC                                   
  Robert Izsak           : Overlap fitted RIJCOSX, COSX-SCS-MP3, EOM     
  Riya Kayal             : Wick's Theorem for AUTO-CI, AUTO-CI UHF-CCSDT 
  Emily Kempfer          : AUTO-CI, RHF CISDT and CCSDT                  
  Christian Kollmar      : KDIIS, OOCD, Brueckner-CCSD(T), CCSD density, CASPT2, CASPT2-K, improved NEVPT2 
  Axel Koslowski         : Symmetry handling                             
  Simone Kossmann        : meta-GGA functionals, TD-DFT gradient, OOMP2, (MP2 Hessian; deprecated post 5.0) 
  Lucas Lang             : DCDCAS                                        
  Marvin Lechner         : AUTO-CI (C++ implementation), FIC-MRCC        
  Spencer Leger          : CASSCF response                               
  Dagmar Lenk            : GEPOL surface, SMD, ORCA-2-JSON               
  Dimitrios Liakos       : Extrapolation schemes; Compound Job, initial MDCI parallelization 
  Dimitrios Manganas     : Further ROCIS development; embedding schemes. LFT, Crystal Embedding 
  Dimitrios Pantazis     : SARC Basis sets                               
  Anastasios Papadopoulos: AUTO-CI, single reference methods and gradients 
  Taras Petrenko         : pre 6.0 DFT Hessian and TD-DFT gradient, (ASA, deprecated), ECA, 1-Electron XAS/XES, NRVS 
  Peter Pinski           : DLPNO-MP2, DLPNO-MP2 Gradient                 
  Christoph Reimann      : Effective Core Potentials                     
  Marius Retegan         : Local ZFS, SOC                                
  Christoph Riplinger    : Optimizer, TS searches, QM/MM, DLPNO-CCSD(T), (RO)-DLPNO pert. Triples 
  Michael Roemelt        : Original ROCIS implementation                 
  Masaaki Saitow         : Open-shell DLPNO-CCSD energy and density      
  Barbara Sandhoefer     : DKH picture change effects                    
  Kantharuban Sivalingam : CASSCF convergence/infrastructure, NEVPT2 and variants, FIC-MRCI 
  Bernardo de Souza      : ESD, SOC TD-DFT                               
  Georgi L. Stoychev     : AutoAux, RI-MP2 NMR, DLPNO-MP2 response, X2C  
  Van Anh Tran           : RI-MP2 g-tensors                              
  Willem Van den Heuvel  : Paramagnetic NMR                              
  Zikuan Wang            : NOTCH, Electric field optimization            
  Frank Wennmohs         : Technical directorship and infrastructure     
  Hang Xu                : AUTO-CI-Response properties                   
                                                                         
[FACCTs GmbH]                                                            
  Markus Bursch, Miquel Garcia-Rates, Christoph Riplinger, Bernardo de Souza, Georgi L. Stoychev 
                                                                 
  APM, Basis sets (HGBS, AHGBS, def-TZVP (Ac-Lr), def2-XVPD (La-Lu)), CI-OPT, improved COSX, DLPNO-Multilevel,           
  DOCKER, DRACO, updates on ESD, GOAT, IRC, LR-CPCM, MBIS, meta-GGA TD-DFT gradient, ML-optimized integration grids, 
  MM, NACMEs, nearIR, NEB, NEB-TS, NL-DFT gradient (VV10), 2- and 3-layer-ONIOM, interface openCOSMO-RS, QMMM,   
  Crystal-QMMM, SF, symmetry and pop. for TD-DFT, r2SCAN hybrids, SOLVATOR                                   
                                                                         
[Other institutions]                                                     
  V. Asgeirsson          : NEB                                           
  Christoph Bannwarth    : sTDA-DFT, sTD-DFT, PBEh-3c, B97-3c, D3        
  Sebastian Ehlert       : rSCAN, r2SCAN, r2SCAN-3c, D4, dhf basis sets  
  Marvin Friede          : D4 for Fr, Ra, Ac-Lr                          
  Lars Goerigk           : TD-DFT with DH, B97 family of functionals     
  Stefan Grimme          : VdW corrections, initial TS optimization, DFT functionals, gCP, sTDA/sTD-DF 
  Waldemar Hujo          : DFT-NL                                        
  H. Jonsson             : NEB                                           
  Holger Kruse           : gCP                                           
  Marcel Mueller         : wB97X-3c, vDZP basis set                      
  Hagen Neugebauer       : wr2SCAN                                       
  Tobias Risthaus        : range-separated hybrid DFT                    
  Lukas Wittmann         : regularized MP2, r2SCAN double-hybrids, wr2SCAN        
                                                                         
We gratefully acknowledge several colleagues who have allowed us to      
interface, adapt or use parts of their codes:                            
  Ed Valeev, F. Pavosevic, A. Kumar             : LibInt (2-el integral package), F12 methods 
  Garnet Chan, S. Sharma, J. Yang, R. Olivares  : DMRG                   
  Ulf Ekstrom                                   : XCFun DFT Library      
  Mihaly Kallay                                 : mrcc  (arbitrary order and MRCC methods)
  Frank Weinhold                                : gennbo (NPA and NBO analysis)           
  Simon Mueller                                 : openCOSMO-RS                            
  Christopher J. Cramer and Donald G. Truhlar   : smd solvation model                     
  S Lehtola, MJT Oliveira, MAL Marques          : LibXC Library                           
  Liviu Ungur et al                             : ANISO software                          


 Your calculation uses the libint2 library for the computation of 2-el integrals
 For citations please refer to: http://libint.valeyev.net

 Your ORCA version has been built with support for libXC version: 6.2.2
 For citations please refer to: https://libxc.gitlab.io

 This ORCA versions uses:
   CBLAS   interface :  Fast vector & matrix operations
   LAPACKE interface :  Fast linear algebra routines
   SCALAPACK package :  Parallel linear algebra routines
   Shared memory     :  Shared parallel matrices
   BLAS/LAPACK       :  OpenBLAS 0.3.27  USE64BITINT DYNAMIC_ARCH NO_AFFINITY SkylakeX SINGLE_THREADED
        Core in use  :  SkylakeX
   Copyright (c) 2011-2014, The OpenBLAS Project


Your calculation utilizes the atom-pairwise dispersion correction
based on EEQ partial charges (D4)


================================================================================

cite the ECPs for C  [vDZP-ECP], O  [vDZP-ECP] as follows:
   B-Ne (ecp-2-mwb), Al-Ar (ecp-10-mwb), Ga-Kr (ecp-28-mwb), Y-Cd (ecp-28-mwb), In-Xe (ecp-46-mwb):
     A. Bergner, M. Dolg, W. Küchle, H. Stoll, and H. Preuß, Mol. Phys. 80, 1431 (1993)., T. Leininger, A. Berning, A. Nicklass, H. Stoll, H.-J. Werner, and H.-J.Flad, Chem. Phys. 217, 19 (1997).
   Na-Mg, K-Ca, Rb-Sr, Cs-Ba (CRENBL):
     L. Fernandez Pacios and P. A. Christiansen, J. Chem. Phys. 82, 2664 (1985)., M. M. Hurley, L. F. Pacios, P. A. Christiansen, R. B. Ross, and W. C. Ermler, J. Chem. Phys. 84, 6840 (1986)., L. A. LaJohn, P. A. Christiansen, R. B. Ross, T. Atashroo, and W. C. Ermler, J. Chem. Phys. 87, 2812 (1987)., R. B. Ross, J. M. Powers, T. Atashroo, W. C. Ermler, L. A. LaJohn, and P. A. Christiansen, J. Chem. Phys. 93, 6654 (1990). 
   Sc-Zn (ecp-10-mdf):
     M. Dolg, U. Wedig, H. Stoll, and H. Preuss, J. Chem. Phys. 86, 866 (1986). 
   Y-Cd (ecp-28-mwb), Hf-Hg (ecp-60-mwb):
     D. Andrae, U. Häußermann, M. Dolg, H. Stoll, and H. Preuß, Theor. Chim. Acta 77, 123 (1990). 
   La (ecp-46-mwb):
     M. Dolg, H. Stoll, and H. Preuss, J. Chem. Phys. 90, 1730 (1989)., M. Dolg, H. Stoll, and H. Preuss, Theor. Chim. Acta 85, 441 (1993).
   Ce-Lu (SBKJC-ecp):
     T. R. Cundari and W. J. Stevens, J. Chem. Phys. 98, 5555 (1993).
   Tl-Rn (ecp-78-mwb):
     W. Küchle, M. Dolg, H. Stoll, and H. Preuss, Mol. Phys. 74, 1245 (1991).

ECP parameters for C  [vDZP-ECP], O  [vDZP-ECP] have been obtained from:
MM, AH, SG, J. Chem. Phys. 158, 014103 (2023), 10.1063/5.0133026

----- Orbital basis set information -----
Your calculation utilizes the basis: vDZP
   Marcel Mueller, Andreas Hansen, Stefan Grimme 
   J. Chem. Phys. 158, 014103 (2023). DOI: 10.1063/5.0133026

----- AuxJ basis set information -----
Your calculation utilizes the auxiliary basis: def2/J
   F. Weigend, Phys. Chem. Chem. Phys. 8, 1057 (2006).

================================================================================
                                        WARNINGS
                       Please study these warnings very carefully!
================================================================================

WARNING: Frozen-Core approximation turned on, but there are no core electrons.
  ===> : Turning off frozen-core approximation


WARNING: Geometry Optimization
  ===> : Switching off AutoStart
         For restart on a previous wavefunction, please use MOREAD

================================================================================
                                       INPUT FILE
================================================================================
NAME = ./output/_z_dihydrocarvone/_z_dihydrocarvone.inp
|  1> ! wB97X-3c OPT FREQ TightSCF
|  2> %pal
|  3>   nprocs 40
|  4> end
|  5> * xyz 0 1
|  6> C      3.489423    -0.350229    -0.682278
|  7> C      1.965676    -0.195192    -0.784497
|  8> C      1.508505     1.087959    -0.062899
|  9> C     -0.022496     1.214909    -0.057522
| 10> C     -0.670246    -0.006289     0.628434
| 11> C     -0.271139    -1.316612    -0.076510
| 12> C      1.223984    -1.393279    -0.225246
| 13> O      1.805449    -2.439607     0.024202
| 14> C     -2.184168     0.139754     0.698919
| 15> C     -2.804496     0.165406     1.889397
| 16> C     -3.020611     0.253564    -0.551748
| 17> H      3.800890    -0.472188     0.377597
| 18> H      3.993803     0.545559    -1.103438
| 19> H      3.824204    -1.236805    -1.262082
| 20> H      1.702870    -0.105409    -1.861736
| 21> H      1.878062     1.086954     0.986958
| 22> H      1.940410     1.975708    -0.574473
| 23> H     -0.379717     1.315368    -1.105023
| 24> H     -0.303831     2.140243     0.491105
| 25> H     -0.259118    -0.055423     1.663616
| 26> H     -0.721761    -1.373992    -1.089682
| 27> H     -0.640502    -2.182443     0.516286
| 28> H     -2.248151     0.084915     2.818157
| 29> H     -3.884115     0.267700     1.950995
| 30> H     -2.400343     0.214357    -1.469399
| 31> H     -3.750556    -0.582476    -0.591899
| 32> H     -3.572024     1.217547    -0.547234
| 33> *
| 34> 
| 35>                          ****END OF INPUT****
================================================================================

                       *****************************
                       * Geometry Optimization Run *
                       *****************************

Geometry optimization settings:
Update method            Update   .... BFGS
Choice of coordinates    CoordSys .... (2022) Redundant Internals
Initial Hessian          InHess   .... Almloef's Model
Max. no of cycles        MaxIter  .... 81

Convergence Tolerances:
Energy Change            TolE     ....  5.0000e-06 Eh
Max. Gradient            TolMAXG  ....  3.0000e-04 Eh/bohr
RMS Gradient             TolRMSG  ....  1.0000e-04 Eh/bohr
Max. Displacement        TolMAXD  ....  4.0000e-03 bohr
RMS Displacement         TolRMSD  ....  2.0000e-03 bohr
Strict Convergence                .... False

------------------------------------------------------------------------------
                        ORCA OPTIMIZATION COORDINATE SETUP
------------------------------------------------------------------------------

The optimization will be done in redundant internal coordinates (2022)
Making redundant internal coordinates   ...  (2022 redundants) done
Evaluating the initial hessian          ...  (Almloef) done
Evaluating the coordinates              ...  done
Calculating the B-matrix                .... done
Calculating the G-matrix                .... done
Diagonalizing the G-matrix              .... done
Small eigenvalue found = 2.063e-02
Small eigenvalue found = 2.818e-02
The first mode is                       ....   57
The number of degrees of freedom        ....   75

    -----------------------------------------------------------------
                    Redundant Internal Coordinates


    -----------------------------------------------------------------
         Definition                    Initial Value    Approx d2E/dq
    -----------------------------------------------------------------
      1. B(C   1,C   0)                  1.5350         0.366747   
      2. B(C   2,C   1)                  1.5415         0.358137   
      3. B(C   3,C   2)                  1.5363         0.365075   
      4. B(C   4,C   3)                  1.5432         0.355903   
      5. B(C   5,C   4)                  1.5405         0.359423   
      6. B(C   6,C   5)                  1.5045         0.410326   
      7. B(C   6,C   1)                  1.5160         0.393279   
      8. B(O   7,C   6)                  1.2228         1.034440   
      9. B(C   8,C   4)                  1.5226         0.383895   
     10. B(C   9,C   8)                  1.3426         0.743509   
     11. B(C  10,C   8)                  1.5089         0.403694   
     12. B(H  11,C   0)                  1.1114         0.332869   
     13. B(H  12,C   0)                  1.1110         0.333425   
     14. B(H  13,C   0)                  1.1110         0.333393   
     15. B(H  14,C   1)                  1.1125         0.331578   
     16. B(H  15,C   2)                  1.1130         0.330922   
     17. B(H  16,C   2)                  1.1119         0.332249   
     18. B(H  17,C   3)                  1.1113         0.333014   
     19. B(H  18,C   3)                  1.1119         0.332230   
     20. B(H  19,C   4)                  1.1149         0.328600   
     21. B(H  20,C   5)                  1.1103         0.334165   
     22. B(H  21,C   5)                  1.1124         0.331618   
     23. B(H  22,C   9)                  1.0856         0.365927   
     24. B(H  23,C   9)                  1.0862         0.365159   
     25. B(H  24,C  10)                  1.1083         0.336674   
     26. B(H  25,C  10)                  1.1106         0.333875   
     27. B(H  26,C  10)                  1.1106         0.333905   
     28. A(C   1,C   0,H  12)          110.1201         0.319292   
     29. A(H  12,C   0,H  13)          107.9871         0.283924   
     30. A(H  11,C   0,H  13)          109.0062         0.283851   
     31. A(C   1,C   0,H  13)          110.1801         0.319287   
     32. A(H  11,C   0,H  12)          108.8305         0.283855   
     33. A(C   1,C   0,H  11)          110.6571         0.319205   
     34. A(C   6,C   1,H  14)          107.7835         0.322667   
     35. A(C   2,C   1,C   6)          109.8806         0.363923   
     36. A(C   0,C   1,C   2)          110.3223         0.359611   
     37. A(C   2,C   1,H  14)          108.4243         0.317769   
     38. A(C   0,C   1,H  14)          107.8868         0.319002   
     39. A(C   0,C   1,C   6)          112.4119         0.365405   
     40. A(C   3,C   2,H  16)          108.8286         0.318870   
     41. A(C   3,C   2,H  15)          109.1275         0.318662   
     42. A(C   1,C   2,H  15)          110.0191         0.317666   
     43. A(C   1,C   2,C   3)          111.4683         0.359331   
     44. A(C   1,C   2,H  16)          109.5130         0.317874   
     45. A(H  15,C   2,H  16)          107.8020         0.283441   
     46. A(C   4,C   3,H  17)          110.8303         0.317669   
     47. A(C   2,C   3,H  17)          108.9364         0.318989   
     48. A(C   2,C   3,C   4)          110.7610         0.358949   
     49. A(H  17,C   3,H  18)          107.9701         0.283716   
     50. A(C   2,C   3,H  18)          108.8229         0.318867   
     51. A(C   4,C   3,H  18)          109.4526         0.317547   
     52. A(C   5,C   4,C   8)          111.1229         0.362646   
     53. A(C   3,C   4,C   8)          111.2251         0.362038   
     54. A(C   8,C   4,H  19)          109.1413         0.320919   
     55. A(C   5,C   4,H  19)          106.9692         0.317487   
     56. A(C   3,C   4,H  19)          107.0261         0.316979   
     57. A(C   3,C   4,C   5)          111.1584         0.357997   
     58. A(C   4,C   5,C   6)          110.2460         0.366802   
     59. A(H  20,C   5,H  21)          108.1360         0.283787   
     60. A(C   6,C   5,H  21)          110.0593         0.324929   
     61. A(C   4,C   5,H  21)          109.3995         0.317961   
     62. A(C   6,C   5,H  20)          108.0879         0.325338   
     63. A(C   4,C   5,H  20)          110.8773         0.318358   
     64. A(C   5,C   6,O   7)          119.7374         0.438992   
     65. A(C   1,C   6,O   7)          121.2563         0.435646   
     66. A(C   1,C   6,C   5)          118.8424         0.372520   
     67. A(C   9,C   8,C  10)          118.5136         0.415275   
     68. A(C   4,C   8,C  10)          121.3358         0.369936   
     69. A(C   4,C   8,C   9)          120.1503         0.411582   
     70. A(H  22,C   9,H  23)          117.8931         0.292215   
     71. A(C   8,C   9,H  23)          120.7504         0.364856   
     72. A(C   8,C   9,H  22)          121.3564         0.364987   
     73. A(H  25,C  10,H  26)          109.1014         0.284052   
     74. A(H  24,C  10,H  26)          108.1767         0.284420   
     75. A(C   8,C  10,H  26)          109.7151         0.324426   
     76. A(H  24,C  10,H  25)          108.1360         0.284416   
     77. A(C   8,C  10,H  25)          109.7267         0.324421   
     78. A(C   8,C  10,H  24)          111.9236         0.324867   
     79. D(C   6,C   1,C   0,H  12)    179.8963         0.010764   
     80. D(C   2,C   1,C   0,H  13)   -176.0932         0.010764   
     81. D(C   2,C   1,C   0,H  12)    -57.0790         0.010764   
     82. D(C   2,C   1,C   0,H  11)     63.2845         0.010764   
     83. D(C   6,C   1,C   0,H  11)    -59.7403         0.010764   
     84. D(C   6,C   1,C   0,H  13)     60.8820         0.010764   
     85. D(H  15,C   2,C   1,C   6)     69.9691         0.010298   
     86. D(C   3,C   2,C   1,C   0)   -175.7209         0.010298   
     87. D(H  15,C   2,C   1,C   0)    -54.5207         0.010298   
     88. D(H  15,C   2,C   1,H  14)   -172.4638         0.010298   
     89. D(C   3,C   2,C   1,H  14)     66.3360         0.010298   
     90. D(C   3,C   2,C   1,C   6)    -51.2311         0.010298   
     91. D(C   4,C   3,C   2,H  15)    -63.3122         0.010673   
     92. D(C   4,C   3,C   2,H  16)    179.2911         0.010673   
     93. D(C   4,C   3,C   2,C   1)     58.4062         0.010673   
     94. D(H  17,C   3,C   2,H  16)     57.1427         0.010673   
     95. D(H  17,C   3,C   2,H  15)    174.5394         0.010673   
     96. D(H  17,C   3,C   2,C   1)    -63.7422         0.010673   
     97. D(C   8,C   4,C   3,H  18)     57.3032         0.010179   
     98. D(C   8,C   4,C   3,H  17)    -61.6738         0.010179   
     99. D(C   8,C   4,C   3,C   2)    177.2917         0.010179   
    100. D(C   5,C   4,C   3,H  18)   -178.3044         0.010179   
    101. D(C   5,C   4,C   3,H  17)     62.7186         0.010179   
    102. D(C   5,C   4,C   3,C   2)    -58.3159         0.010179   
    103. D(H  20,C   5,C   4,H  19)    175.2462         0.010367   
    104. D(H  20,C   5,C   4,C   8)     56.2073         0.010367   
    105. D(H  20,C   5,C   4,C   3)    -68.2429         0.010367   
    106. D(C   6,C   5,C   4,H  19)    -65.0936         0.010367   
    107. D(C   6,C   5,C   4,C   8)    175.8674         0.010367   
    108. D(C   6,C   5,C   4,C   3)     51.4173         0.010367   
    109. D(C   5,C   6,C   1,C   0)    171.6186         0.011497   
    110. D(O   7,C   6,C   5,H  20)   -102.6614         0.012469   
    111. D(C   1,C   6,C   5,H  21)   -169.3596         0.012469   
    112. D(C   1,C   6,C   5,H  20)     72.7446         0.012469   
    113. D(C   1,C   6,C   5,C   4)    -48.5912         0.012469   
    114. D(O   7,C   6,C   1,C   2)   -136.3201         0.011497   
    115. D(O   7,C   6,C   1,C   0)    -13.0479         0.011497   
    116. D(O   7,C   6,C   5,C   4)    136.0028         0.012469   
    117. D(C   5,C   6,C   1,H  14)    -69.6186         0.011497   
    118. D(C   5,C   6,C   1,C   2)     48.3464         0.011497   
    119. D(C  10,C   8,C   4,C   5)    -63.2244         0.010984   
    120. D(C  10,C   8,C   4,C   3)     61.1880         0.010984   
    121. D(C   9,C   8,C   4,H  19)     -1.1667         0.010984   
    122. D(C   9,C   8,C   4,C   5)    116.5618         0.010984   
    123. D(C   9,C   8,C   4,C   3)   -119.0258         0.010984   
    124. D(H  23,C   9,C   8,C  10)     -0.1151         0.039358   
    125. D(H  23,C   9,C   8,C   4)   -179.9072         0.039358   
    126. D(H  22,C   9,C   8,C  10)    179.8706         0.039358   
    127. D(H  22,C   9,C   8,C   4)      0.0785         0.039358   
    128. D(H  26,C  10,C   8,C   4)   -119.9730         0.012085   
    129. D(H  25,C  10,C   8,C   9)    -59.6162         0.012085   
    130. D(H  25,C  10,C   8,C   4)    120.1734         0.012085   
    131. D(H  24,C  10,C   8,C   9)   -179.6677         0.012085   
    132. D(H  24,C  10,C   8,C   4)      0.1219         0.012085   
    -----------------------------------------------------------------

Number of atoms                         .... 27
Number of degrees of freedom            .... 132


         *************************************************************
         *                GEOMETRY OPTIMIZATION CYCLE   1            *
         *************************************************************
---------------------------------
CARTESIAN COORDINATES (ANGSTROEM)
---------------------------------
  C      3.489423   -0.350229   -0.682278
  C      1.965676   -0.195192   -0.784497
  C      1.508505    1.087959   -0.062899
  C     -0.022496    1.214909   -0.057522
  C     -0.670246   -0.006289    0.628434
  C     -0.271139   -1.316612   -0.076510
  C      1.223984   -1.393279   -0.225246
  O      1.805449   -2.439607    0.024202
  C     -2.184168    0.139754    0.698919
  C     -2.804496    0.165406    1.889397
  C     -3.020611    0.253564   -0.551748
  H      3.800890   -0.472188    0.377597
  H      3.993803    0.545559   -1.103438
  H      3.824204   -1.236805   -1.262082
  H      1.702870   -0.105409   -1.861736
  H      1.878062    1.086954    0.986958
  H      1.940410    1.975708   -0.574473
  H     -0.379717    1.315368   -1.105023
  H     -0.303831    2.140243    0.491105
  H     -0.259118   -0.055423    1.663616
  H     -0.721761   -1.373992   -1.089682
  H     -0.640502   -2.182443    0.516286
  H     -2.248151    0.084915    2.818157
  H     -3.884115    0.267700    1.950995
  H     -2.400343    0.214357   -1.469399
  H     -3.750556   -0.582476   -0.591899
  H     -3.572024    1.217547   -0.547234

----------------------------
CARTESIAN COORDINATES (A.U.)
----------------------------
  NO LB      ZA    FRAG     MASS         X           Y           Z
   0 C     4.0000*   0    12.011    6.594054   -0.661837   -1.289319
   1 C     4.0000*   0    12.011    3.714589   -0.368859   -1.482484
   2 C     4.0000*   0    12.011    2.850661    2.055945   -0.118862
   3 C     4.0000*   0    12.011   -0.042511    2.295845   -0.108701
   4 C     4.0000*   0    12.011   -1.266581   -0.011884    1.187568
   5 C     4.0000*   0    12.011   -0.512378   -2.488036   -0.144583
   6 C     4.0000*   0    12.011    2.312995   -2.632916   -0.425653
   7 O     6.0000*   0    15.999    3.411804   -4.610189    0.045735
   8 C     4.0000*   0    12.011   -4.127479    0.264097    1.320765
   9 C     4.0000*   0    12.011   -5.299729    0.312572    3.570443
  10 C     4.0000*   0    12.011   -5.708128    0.479167   -1.042653
  11 H     1.0000    0     1.008    7.182641   -0.892306    0.713555
  12 H     1.0000    0     1.008    7.547194    1.030957   -2.085196
  13 H     1.0000    0     1.008    7.226698   -2.337223   -2.384989
  14 H     1.0000    0     1.008    3.217958   -0.199194   -3.518171
  15 H     1.0000    0     1.008    3.549023    2.054045    1.865080
  16 H     1.0000    0     1.008    3.666843    3.733547   -1.085597
  17 H     1.0000    0     1.008   -0.717561    2.485685   -2.088191
  18 H     1.0000    0     1.008   -0.574157    4.044473    0.928054
  19 H     1.0000    0     1.008   -0.489662   -0.104734    3.143779
  20 H     1.0000    0     1.008   -1.363931   -2.596469   -2.059201
  21 H     1.0000    0     1.008   -1.210373   -4.124220    0.975639
  22 H     1.0000    0     1.008   -4.248390    0.160466    5.325545
  23 H     1.0000    0     1.008   -7.339914    0.505880    3.686846
  24 H     1.0000    0     1.008   -4.535991    0.405076   -2.776762
  25 H     1.0000    0     1.008   -7.087524   -1.100720   -1.118527
  26 H     1.0000    0     1.008   -6.750147    2.300830   -1.034122
* core charge reduced due to ECP

--------------------------------
INTERNAL COORDINATES (ANGSTROEM)
--------------------------------
 C      0   0   0     0.000000000000     0.00000000     0.00000000
 C      1   0   0     1.535021210062     0.00000000     0.00000000
 C      2   1   0     1.541488075090   110.32227699     0.00000000
 C      3   2   1     1.536264715676   111.46831482   184.27906431
 C      4   3   2     1.543191579694   110.76104735    58.40620297
 C      5   4   3     1.540512513715   111.15837250   301.68409138
 C      6   5   4     1.504457713501   110.24604251    51.41728385
 O      7   6   5     1.222754323040   119.73735839   136.00281633
 C      5   4   3     1.522582186668   111.22508619   177.29168516
 C      9   5   4     1.342647653397   120.15026686   240.97417541
 C      9   5   4     1.508892823642   121.33582576    61.18803849
 H      1   2   3     1.111404834160   110.65712984    63.28446018
 H      1   2   3     1.110950525876   110.12012896   302.92100951
 H      1   2   3     1.110976147428   110.18012486   183.90676075
 H      2   1   3     1.112462064003   107.88679335   118.27313255
 H      3   2   1     1.113001844888   110.01910672   305.47931527
 H      3   2   1     1.111911945031   109.51298595    63.79519879
 H      4   3   2     1.111286281083   108.93636622   296.25784822
 H      4   3   2     1.111928045743   108.82288772   178.77055385
 H      5   4   3     1.114918003920   107.02606975    58.16010744
 H      6   5   4     1.110346861511   110.87733954   291.75710607
 H      6   5   4     1.112429523137   109.39952311   172.57999122
 H     10   9   5     1.085630553046   121.35642222     0.07845624
 H     10   9   5     1.086202357391   120.75044759   180.09279198
 H     11   9   5     1.108310849209   111.92360007     0.12187942
 H     11   9   5     1.110583039410   109.72671543   120.17335502
 H     11   9   5     1.110558371745   109.71510312   240.02701491

---------------------------
INTERNAL COORDINATES (A.U.)
---------------------------
 C      0   0   0     0.000000000000     0.00000000     0.00000000
 C      1   0   0     2.900769696777     0.00000000     0.00000000
 C      2   1   0     2.912990300626   110.32227699     0.00000000
 C      3   2   1     2.903119581833   111.46831482   184.27906431
 C      4   3   2     2.916209457796   110.76104735    58.40620297
 C      5   4   3     2.911146756801   111.15837250   301.68409138
 C      6   5   4     2.843013058583   110.24604251    51.41728385
 O      7   6   5     2.310670799614   119.73735839   136.00281633
 C      5   4   3     2.877263349189   111.22508619   177.29168516
 C      9   5   4     2.537236359272   120.15026686   240.97417541
 C      9   5   4     2.851394202122   121.33582576    61.18803849
 H      1   2   3     2.100250760479   110.65712984    63.28446018
 H      1   2   3     2.099392242241   110.12012896   302.92100951
 H      1   2   3     2.099440659957   110.18012486   183.90676075
 H      2   1   3     2.102248635343   107.88679335   118.27313255
 H      3   2   1     2.103268673386   110.01910672   305.47931527
 H      3   2   1     2.101209061144   109.51298595    63.79519879
 H      4   3   2     2.100026727630   108.93636622   296.25784822
 H      4   3   2     2.101239487081   108.82288772   178.77055385
 H      5   4   3     2.106889689186   107.02606975    58.16010744
 H      6   5   4     2.098251481915   110.87733954   291.75710607
 H      6   5   4     2.102187142017   109.39952311   172.57999122
 H     10   9   5     2.051544427874   121.35642222     0.07845624
 H     10   9   5     2.052624981488   120.75044759   180.09279198
 H     11   9   5     2.094403976258   111.92360007     0.12187942
 H     11   9   5     2.098697793463   109.72671543   120.17335502
 H     11   9   5     2.098651178332   109.71510312   240.02701491

---------------------
BASIS SET INFORMATION
---------------------
There are 3 groups of distinct atoms

 Group   1 Type C   : 6s6p2d contracted to 2s2p1d pattern {42/42/2}
 Group   2 Type O   : 6s6p2d contracted to 2s2p1d pattern {42/42/2}
 Group   3 Type H   : 8s2p contracted to 2s1p pattern {53/2}

Atom   0C    basis set group =>   1
Atom   1C    basis set group =>   1
Atom   2C    basis set group =>   1
Atom   3C    basis set group =>   1
Atom   4C    basis set group =>   1
Atom   5C    basis set group =>   1
Atom   6C    basis set group =>   1
Atom   7O    basis set group =>   2
Atom   8C    basis set group =>   1
Atom   9C    basis set group =>   1
Atom  10C    basis set group =>   1
Atom  11H    basis set group =>   3
Atom  12H    basis set group =>   3
Atom  13H    basis set group =>   3
Atom  14H    basis set group =>   3
Atom  15H    basis set group =>   3
Atom  16H    basis set group =>   3
Atom  17H    basis set group =>   3
Atom  18H    basis set group =>   3
Atom  19H    basis set group =>   3
Atom  20H    basis set group =>   3
Atom  21H    basis set group =>   3
Atom  22H    basis set group =>   3
Atom  23H    basis set group =>   3
Atom  24H    basis set group =>   3
Atom  25H    basis set group =>   3
Atom  26H    basis set group =>   3
---------------------------------
AUXILIARY/J BASIS SET INFORMATION
---------------------------------
There are 3 groups of distinct atoms

 Group   1 Type C   : 12s5p4d2f1g contracted to 6s4p3d1f1g pattern {711111/2111/211/2/1}
 Group   2 Type O   : 12s5p4d2f1g contracted to 6s4p3d1f1g pattern {711111/2111/211/2/1}
 Group   3 Type H   : 5s2p1d contracted to 3s1p1d pattern {311/2/1}

Atom   0C    basis set group =>   1
Atom   1C    basis set group =>   1
Atom   2C    basis set group =>   1
Atom   3C    basis set group =>   1
Atom   4C    basis set group =>   1
Atom   5C    basis set group =>   1
Atom   6C    basis set group =>   1
Atom   7O    basis set group =>   2
Atom   8C    basis set group =>   1
Atom   9C    basis set group =>   1
Atom  10C    basis set group =>   1
Atom  11H    basis set group =>   3
Atom  12H    basis set group =>   3
Atom  13H    basis set group =>   3
Atom  14H    basis set group =>   3
Atom  15H    basis set group =>   3
Atom  16H    basis set group =>   3
Atom  17H    basis set group =>   3
Atom  18H    basis set group =>   3
Atom  19H    basis set group =>   3
Atom  20H    basis set group =>   3
Atom  21H    basis set group =>   3
Atom  22H    basis set group =>   3
Atom  23H    basis set group =>   3
Atom  24H    basis set group =>   3
Atom  25H    basis set group =>   3
Atom  26H    basis set group =>   3
-------------------------
ECP PARAMETER INFORMATION
-------------------------

 Group 1, Type C  ECP vDZP-ECP (replacing 2 core electrons, lmax=3)
 Group 2, Type O  ECP vDZP-ECP (replacing 2 core electrons, lmax=3)

Atom   0C    ECP group =>   1
Atom   1C    ECP group =>   1
Atom   2C    ECP group =>   1
Atom   3C    ECP group =>   1
Atom   4C    ECP group =>   1
Atom   5C    ECP group =>   1
Atom   6C    ECP group =>   1
Atom   7O    ECP group =>   2
Atom   8C    ECP group =>   1
Atom   9C    ECP group =>   1
Atom  10C    ECP group =>   1



           ************************************************************
           *        Program running with 40 parallel MPI-processes    *
           *              working on a common directory               *
           ************************************************************
------------------------------------------------------------------------------
                             ORCA STARTUP CALCULATIONS
                           -- RI-GTO INTEGRALS CHOSEN --
------------------------------------------------------------------------------
------------------------------------------------------------------------------
                   ___                                                        
                  /   \      - P O W E R E D   B Y -                         
                 /     \                                                     
                 |  |  |   _    _      __       _____    __    __             
                 |  |  |  | |  | |    /  \     |  _  \  |  |  /  |          
                  \  \/   | |  | |   /    \    | | | |  |  | /  /          
                 / \  \   | |__| |  /  /\  \   | |_| |  |  |/  /          
                |  |  |   |  __  | /  /__\  \  |    /   |      \           
                |  |  |   | |  | | |   __   |  |    \   |  |\   \          
                \     /   | |  | | |  |  |  |  | |\  \  |  | \   \       
                 \___/    |_|  |_| |__|  |__|  |_| \__\ |__|  \__/        
                                                                              
                      - O R C A' S   B I G   F R I E N D -                    
                                      &                                       
                       - I N T E G R A L  F E E D E R -                       
                                                                              
 v1 FN, 2020, v2 2021, v3 2022-2024                                           
------------------------------------------------------------------------------


----------------------
SHARK INTEGRAL PACKAGE
----------------------

Number of atoms                             ...     27
Number of basis functions                   ...    223
Number of shells                            ...    103
Maximum angular momentum                    ...      2
Integral batch strategy                     ... SHARK/LIBINT Hybrid
RI-J (if used) integral strategy            ... SPLIT-RIJ (Revised 2003 algorithm where possible)
Printlevel                                  ...      1
Contraction scheme used                     ... SEGMENTED contraction
Prescreening option                         ... SCHWARTZ
   Thresh                                   ... 2.500e-11
   Tcut                                     ... 2.500e-12
   Tpresel                                  ... 2.500e-12 
Coulomb Range Separation                    ... NOT USED
Exchange Range Separation                   ... Long Range
   Mu parameter                             ... 3.000e-01
   Scaling (regular/separated)              ... 1.670e-01 8.330e-01
Multipole approximations                    ... NOT USED
Finite Nucleus Model                        ... NOT USED
CABS basis                                  ... NOT available
Auxiliary Coulomb fitting basis             ... AVAILABLE
   # of basis functions in Aux-J            ...    715
   # of shells in Aux-J                     ...    245
   Maximum angular momentum in Aux-J        ...      4
Auxiliary J/K fitting basis                 ... NOT available
Auxiliary Correlation fitting basis         ... NOT available
Auxiliary 'external' fitting basis          ... NOT available

Checking pre-screening integrals            ... done (  0.0 sec) Dimension = 103
Check shell pair data                       ... done (  0.0 sec)
Shell pair information
Shell pair cut-off parameter TPreSel        ...   2.5e-12
Total number of shell pairs                 ...      5356
Shell pairs after pre-screening             ...      5326
Total number of primitive shell pairs       ...     49844
Primitive shell pairs kept                  ...     40130
          la=0 lb=0:   1483 shell pairs
          la=1 lb=0:   2040 shell pairs
          la=1 lb=1:    725 shell pairs
          la=2 lb=0:    594 shell pairs
          la=2 lb=1:    418 shell pairs
          la=2 lb=2:     66 shell pairs

Calculating one electron integrals          ... done (  0.0 sec)
Calculating ECP integrals                   ... done (  0.1 sec)
Calculating RI/J V-Matrix + Cholesky decomp.... done (  0.0 sec)
Calculating Nuclear repulsion               ... done (  0.0 sec) ENN=    339.518914796078 Eh

Diagonalization of the overlap matrix:
Smallest eigenvalue                        ... 1.146e-03
Time for diagonalization                   ...    0.007 sec
Threshold for overlap eigenvalues          ... 1.000e-07
Number of eigenvalues below threshold      ... 0
Time for construction of square roots      ...    0.008 sec
Total time needed                          ...    0.018 sec

-------------------
DFT GRID GENERATION
-------------------

General Integration Accuracy     IntAcc      ... 4.388
Radial Grid Type                 RadialGrid  ... OptM3 with GC (2021)
Angular Grid (max. ang.)         AngularGrid ... 4 (Lebedev-302)
Angular grid pruning method      GridPruning ... 4 (adaptive)
Weight generation scheme         WeightScheme... mBecke (2022)
Basis function cutoff            BFCut       ... 1.0000e-11
Integration weight cutoff        WCut        ... 1.0000e-14
Partially contracted basis set               ... off
Rotationally invariant grid construction     ... off
Angular grids for H and He will be reduced by one unit

Total number of grid points                  ...   116635
Total number of batches                      ...     1837
Average number of points per batch           ...       63
Average number of grid points per atom       ...     4320

--------------------
COSX GRID GENERATION
--------------------

GRIDX 1
-------
General Integration Accuracy     IntAcc      ... 3.816
Radial Grid Type                 RadialGrid  ... OptM3 with GC (2021)
Angular Grid (max. ang.)         AngularGrid ... 1 (Lebedev-50)
Angular grid pruning method      GridPruning ... 4 (adaptive)
Weight generation scheme         WeightScheme... mBecke (2022)
Basis function cutoff            BFCut       ... 1.0000e-11
Integration weight cutoff        WCut        ... 1.0000e-14
Partially contracted basis set               ... on
Rotationally invariant grid construction     ... off
Angular grids for H and He will be reduced by one unit

Total number of grid points                  ...    14907
Total number of batches                      ...      136
Average number of points per batch           ...      109
Average number of grid points per atom       ...      552
UseSFitting                                  ... on

GRIDX 2
-------
General Integration Accuracy     IntAcc      ... 4.020
Radial Grid Type                 RadialGrid  ... OptM3 with GC (2021)
Angular Grid (max. ang.)         AngularGrid ... 2 (Lebedev-110)
Angular grid pruning method      GridPruning ... 4 (adaptive)
Weight generation scheme         WeightScheme... mBecke (2022)
Basis function cutoff            BFCut       ... 1.0000e-11
Integration weight cutoff        WCut        ... 1.0000e-14
Partially contracted basis set               ... on
Rotationally invariant grid construction     ... off
Angular grids for H and He will be reduced by one unit

Total number of grid points                  ...    31298
Total number of batches                      ...      258
Average number of points per batch           ...      121
Average number of grid points per atom       ...     1159
UseSFitting                                  ... on

GRIDX 3
-------
General Integration Accuracy     IntAcc      ... 4.338
Radial Grid Type                 RadialGrid  ... OptM3 with GC (2021)
Angular Grid (max. ang.)         AngularGrid ... 3 (Lebedev-194)
Angular grid pruning method      GridPruning ... 4 (adaptive)
Weight generation scheme         WeightScheme... mBecke (2022)
Basis function cutoff            BFCut       ... 1.0000e-11
Integration weight cutoff        WCut        ... 1.0000e-14
Partially contracted basis set               ... on
Rotationally invariant grid construction     ... off
Angular grids for H and He will be reduced by one unit

Total number of grid points                  ...    68175
Total number of batches                      ...      546
Average number of points per batch           ...      124
Average number of grid points per atom       ...     2525
UseSFitting                                  ... on
Initializing property integral containers    ... done (  0.0 sec)

SHARK setup successfully completed in   3.7 seconds

Maximum memory used throughout the entire STARTUP-calculation: 35.5 MB


           ************************************************************
           *        Program running with 40 parallel MPI-processes    *
           *              working on a common directory               *
           ************************************************************
-------------------------------------------------------------------------------
                                 ORCA GUESS
                   Start orbitals & Density for SCF / CASSCF
-------------------------------------------------------------------------------

------------
SCF SETTINGS
------------
Hamiltonian:
 Density Functional     Method          .... DFT(GTOs)
 Exchange Functional    Exchange        .... WB97X-V
 Correlation Functional Correlation     .... WB97X-V
 Gradients option       PostSCFGGA      .... off
 Hybrid DFT is turned on
   Fraction HF Exchange ScalHFX         ....  0.167000
   Scaling of DF-GGA-X  ScalDFX         ....  0.000000
   Scaling of DF-GGA-C  ScalDFC         ....  1.000000
   Scaling of DF-LDA-C  ScalLDAC        ....  1.000000
   Perturbative correction              ....  0.000000
 Long-range corrected/Screened/Range-Separated Hybrid DFT is turned on
   Amount of maximum screened exact exchange              ....  0.833000
   Range separation parameter mu (erf(mu*r12)/r12)        ....  0.300000
   NL short-range parameter             ....  6.000000
   NL long-range parameter              ....  0.010000
 RI-approximation to the Coulomb term is turned on
   Number of AuxJ basis functions       .... 715
   RIJ-COSX (HFX calculated with COS-X)).... on


General Settings:
 Integral files         IntName         .... ./output/_z_dihydrocarvone/_z_dihydrocarvone
 Hartree-Fock type      HFTyp           .... RHF
 Total Charge           Charge          ....    0
 Multiplicity           Mult            ....    1
 Number of Electrons    NEL             ....   62
 Basis Dimension        Dim             ....  223
 Nuclear Repulsion      ENuc            ....    339.5189147961 Eh

Convergence Acceleration:
 AO-DIIS                CNVDIIS         .... on
   Start iteration      DIISMaxIt       ....    12
   Startup error        DIISStart       ....  0.200000
   # of expansion vecs  DIISMaxEq       ....     5
   Bias factor          DIISBfac        ....   1.050
   Max. coefficient     DIISMaxC        ....  10.000
 MO-DIIS                CNVKDIIS        .... off
 Trust-Rad. Augm. Hess. CNVTRAH         .... auto
   Auto Start mean grad. ratio tolernc. ....  1.125000
   Auto Start start iteration           ....    50
   Auto Start num. interpolation iter.  ....    10
   Max. Number of Micro iterations      ....    24
   Max. Number of Macro iterations      .... Maxiter - #DIIS iter
   Number of Davidson start vectors     ....     2
   Converg. threshold    (grad. norm)   ....   1.000e-05
   Grad. Scal. Fac. for Micro threshold ....   0.100
   Minimum threshold for Micro iter.    ....   1.000e-02
   NR start threshold (gradient norm)   ....   1.000e-04
   Initial trust radius                 ....   0.400
   Minimum AH scaling param. (alpha)    ....   1.000
   Maximum AH scaling param. (alpha)    .... 1000.000
   Quad. conv. algorithm                .... NR
   White noise on init. David. guess    .... on
   Maximum white noise                  ....   0.010
   Pseudo random numbers                .... off
   Inactive MOs                         .... canonical
   Orbital update algorithm             .... Taylor
   Preconditioner                       .... Diag
   Full preconditioner red. dimension   ....   250
 SOSCF                  CNVSOSCF        .... on
   Start iteration      SOSCFMaxIt      ....   150
   Startup grad/error   SOSCFStart      ....  0.003300
   Hessian update       SOSCFHessUp     .... L-BFGS
 Level Shifting         CNVShift        .... on
   Level shift para.    LevelShift      ....    0.2500
   Turn off err/grad.   ShiftErr        ....    0.0010
 Zerner damping         CNVZerner       .... off
 Static damping         CNVDamp         .... on
   Fraction old density DampFac         ....    0.7000
   Max. Damping (<1)    DampMax         ....    0.9800
   Min. Damping (>=0)   DampMin         ....    0.0000
   Turn off err/grad.   DampErr         ....    0.1000

SCF Procedure:
 Maximum # iterations   MaxIter         ....   125
 SCF integral mode      SCFMode         .... Direct
   Integral package                     .... SHARK and LIBINT hybrid scheme
 Reset frequency        DirectResetFreq ....    20
 Integral Threshold     Thresh          ....  2.500e-11 Eh
 Primitive CutOff       TCut            ....  2.500e-12 Eh

Convergence Tolerance:
 Convergence Check Mode ConvCheckMode   .... Total+1el-Energy
 Convergence forced     ConvForced      .... 0
 Energy Change          TolE            ....  1.000e-08 Eh
 1-El. energy change                    ....  1.000e-05 Eh
 Orbital Gradient       TolG            ....  1.000e-05
 Orbital Rotation angle TolX            ....  1.000e-05
 DIIS Error             TolErr          ....  5.000e-07

------------------------------
INITIAL GUESS: MODEL POTENTIAL
------------------------------
Loading Hartree-Fock densities                     ... done
Atomic calculation to generate a density for atom 0 (C  with ECP)
  Multiplicity assumed   :    1
  Atomic configuration   : 1s2 2s2 2p2 
  Number of open shells  : 1
  Command: /home/aspe232/Project/Software/ORCA/6_0_1/build/orca ./output/_z_dihydrocarvone/_z_dihydrocarvone_atom6.inp "" > ./output/_z_dihydrocarvone/_z_dihydrocarvone_atom6.out
Returned from the atomic calculation with res=0
Atomic calculation to generate a density for atom 7 (O  with ECP)
  Multiplicity assumed   :    3
  Atomic configuration   : 1s2 2s2 2p4 
  Number of open shells  : 1
  Command: /home/aspe232/Project/Software/ORCA/6_0_1/build/orca ./output/_z_dihydrocarvone/_z_dihydrocarvone_atom8.inp "" > ./output/_z_dihydrocarvone/_z_dihydrocarvone_atom8.out
Returned from the atomic calculation with res=0
Calculating cut-offs                               ... done
Initializing the effective Hamiltonian             ... done
Setting up the integral package (SHARK)            ... done
Starting the Coulomb interaction                   ... done (   0.0 sec)
Making the grid                                    ... done (   0.8 sec)
Mapping shells                                     ... done
Starting the XC term evaluation                    ... done (   0.1 sec)
  promolecular density results
     # of electrons  =     83.992810115
     EX              =    -42.614385108
     EC              =     -3.388015603
     EX+EC           =    -46.002400711
Transforming the Hamiltonian                       ... done (   0.0 sec)
Diagonalizing the Hamiltonian                      ... done (   0.0 sec)
Back transforming the eigenvectors                 ... done (   0.0 sec)
Now organizing SCF variables                       ... done
                      ------------------
                      INITIAL GUESS DONE (   2.2 sec)
                      ------------------
             **** ENERGY FILE WAS UPDATED (./output/_z_dihydrocarvone/_z_dihydrocarvone.en.tmp) ****
Finished Guess after   2.7 sec
Maximum memory used throughout the entire GUESS-calculation: 21.9 MB


           ************************************************************
           *        Program running with 40 parallel MPI-processes    *
           *              working on a common directory               *
           ************************************************************

-------------------------------------------------------------------------------------------
                                      ORCA LEAN-SCF
                              memory conserving SCF solver
-------------------------------------------------------------------------------------------

----------------------------------------D-I-I-S--------------------------------------------
Iteration    Energy (Eh)           Delta-E    RMSDP     MaxDP     DIISErr   Damp  Time(sec)
-------------------------------------------------------------------------------------------
               ***  Starting incremental Fock matrix formation  ***
    1    -82.1980012332124375     0.00e+00  3.79e-03  7.43e-02  1.80e-01  0.700   4.3
    2    -82.3757567415267431    -1.78e-01  2.77e-03  5.38e-02  1.09e-01  0.700   3.4
                               ***Turning on AO-DIIS***
    3    -82.4694215399124460    -9.37e-02  1.46e-03  2.82e-02  6.09e-02  0.700   3.2
    4    -82.5247911745589136    -5.54e-02  3.12e-03  5.98e-02  3.82e-02  0.000   3.5
    5    -82.6415015020251644    -1.17e-01  2.48e-04  7.21e-03  6.18e-03  0.000   3.5
    6    -82.6418068525941294    -3.05e-04  1.20e-04  5.11e-03  3.91e-03  0.000   3.4
                              *** Initializing SOSCF ***
---------------------------------------S-O-S-C-F--------------------------------------
Iteration    Energy (Eh)           Delta-E    RMSDP     MaxDP     MaxGrad    Time(sec)
--------------------------------------------------------------------------------------
    7    -82.6418725562691634    -6.57e-05  6.54e-05  2.75e-03  2.70e-03     3.2
               *** Restarting incremental Fock matrix formation ***
    8    -82.6418641847430990     8.37e-06  3.52e-05  9.51e-04  2.51e-04     4.3
    9    -82.6418677587804495    -3.57e-06  2.47e-05  1.13e-03  1.86e-04     4.0
   10    -82.6418687983009477    -1.04e-06  8.11e-06  3.48e-04  8.39e-05     4.0
   11    -82.6418689721238593    -1.74e-07  3.20e-06  8.58e-05  2.18e-05     4.0
   12    -82.6418689880426314    -1.59e-08  1.27e-06  3.71e-05  1.52e-05     3.7
   13    -82.6418690028528431    -1.48e-08  3.07e-07  9.81e-06  2.20e-06     3.4
                  *** Gradient check signals convergence ***

               *****************************************************
               *                     SUCCESS                       *
               *           SCF CONVERGED AFTER  13 CYCLES          *
               *****************************************************

Recomputing exchange energy using gridx3       ... done (    4.082 sec)
Old exchange energy                            :    -11.915150904 Eh
New exchange energy                            :    -11.915187523 Eh
Exchange energy change after final integration :     -0.000036619 Eh
Total energy after final integration           :    -82.641905622 Eh
             **** ENERGY FILE WAS UPDATED (./output/_z_dihydrocarvone/_z_dihydrocarvone.en.tmp) ****

----------------
TOTAL SCF ENERGY
----------------

Total Energy       :        -82.64190562152332 Eh           -2248.80058 eV

Components:
Nuclear Repulsion  :        339.51891479607809 Eh            9238.77936 eV
Electronic Energy  :       -422.16078379893094 Eh          -11487.57894 eV
One Electron Energy:       -797.42253617338031 Eh          -21698.97036 eV
Two Electron Energy:        375.26175237444937 Eh           10211.39142 eV

Virial components:
Potential Energy   :       -146.92481801665730 Eh           -3998.02755 eV
Kinetic Energy     :         64.28291239513399 Eh            1749.22698 eV
Virial Ratio       :          2.28559678680300

DFT components:
N(Alpha)           :       31.000035102888 electrons
N(Beta)            :       31.000035102888 electrons
N(Total)           :       62.000070205776 electrons
E(X)               :      -12.639645379099 Eh       
E(C)               :       -2.334138282844 Eh       
E(XC)              :      -14.973783661943 Eh       

---------------
SCF CONVERGENCE
---------------

  Last Energy change         ...    1.4810e-08  Tolerance :   1.0000e-08
  Last MAX-Density change    ...    9.8113e-06  Tolerance :   1.0000e-07
  Last RMS-Density change    ...    3.0677e-07  Tolerance :   5.0000e-09
  Last DIIS Error            ...    2.7003e-03  Tolerance :   5.0000e-07
  Last Orbital Gradient      ...    2.1992e-06  Tolerance :   1.0000e-05
  Last Orbital Rotation      ...    5.9027e-06  Tolerance :   1.0000e-05


----------------
ORBITAL ENERGIES
----------------

  NO   OCC          E(Eh)            E(eV) 
   0   2.0000      -1.161802       -31.6142 
   1   2.0000      -0.994230       -27.0544 
   2   2.0000      -0.949334       -25.8327 
   3   2.0000      -0.901101       -24.5202 
   4   2.0000      -0.872229       -23.7346 
   5   2.0000      -0.824219       -22.4281 
   6   2.0000      -0.805264       -21.9123 
   7   2.0000      -0.746519       -20.3138 
   8   2.0000      -0.725590       -19.7443 
   9   2.0000      -0.665517       -18.1096 
  10   2.0000      -0.641653       -17.4603 
  11   2.0000      -0.600826       -16.3493 
  12   2.0000      -0.590742       -16.0749 
  13   2.0000      -0.576250       -15.6806 
  14   2.0000      -0.563700       -15.3390 
  15   2.0000      -0.557665       -15.1748 
  16   2.0000      -0.550218       -14.9722 
  17   2.0000      -0.531146       -14.4532 
  18   2.0000      -0.521190       -14.1823 
  19   2.0000      -0.510884       -13.9019 
  20   2.0000      -0.491651       -13.3785 
  21   2.0000      -0.484117       -13.1735 
  22   2.0000      -0.482271       -13.1233 
  23   2.0000      -0.469079       -12.7643 
  24   2.0000      -0.462294       -12.5797 
  25   2.0000      -0.452363       -12.3094 
  26   2.0000      -0.437459       -11.9039 
  27   2.0000      -0.434812       -11.8318 
  28   2.0000      -0.419916       -11.4265 
  29   2.0000      -0.356808        -9.7092 
  30   2.0000      -0.345923        -9.4130 
  31   0.0000       0.053166         1.4467 
  32   0.0000       0.078454         2.1348 
  33   0.0000       0.086451         2.3524 
  34   0.0000       0.088254         2.4015 
  35   0.0000       0.101061         2.7500 
  36   0.0000       0.107155         2.9158 
  37   0.0000       0.114541         3.1168 
  38   0.0000       0.126122         3.4320 
  39   0.0000       0.135597         3.6898 
  40   0.0000       0.143872         3.9149 
  41   0.0000       0.150143         4.0856 
*Only the first 10 virtual orbitals were printed.

                    ********************************
                    * MULLIKEN POPULATION ANALYSIS *
                    ********************************

-----------------------
MULLIKEN ATOMIC CHARGES
-----------------------
   0 C :   -0.071287
   1 C :   -0.124875
   2 C :   -0.063230
   3 C :   -0.047833
   4 C :   -0.124996
   5 C :   -0.045947
   6 C :    0.216614
   7 O :   -0.308990
   8 C :   -0.082052
   9 C :   -0.021151
  10 C :   -0.091850
  11 H :    0.049202
  12 H :    0.036156
  13 H :    0.054435
  14 H :    0.064274
  15 H :    0.042774
  16 H :    0.048627
  17 H :    0.032583
  18 H :    0.056990
  19 H :    0.051161
  20 H :    0.060952
  21 H :    0.070416
  22 H :    0.025614
  23 H :    0.020819
  24 H :    0.025842
  25 H :    0.063041
  26 H :    0.062711
Sum of atomic charges:   -0.0000000

--------------------------------
MULLIKEN REDUCED ORBITAL CHARGES
--------------------------------
  0 C s       :     0.962101  s :     0.962101
      pz      :     1.053978  p :     3.036788
      px      :     0.932810
      py      :     1.050001
      dz2     :     0.014870  d :     0.072398
      dxz     :     0.013630
      dyz     :     0.011669
      dx2y2   :     0.015498
      dxy     :     0.016729

  1 C s       :     1.047961  s :     1.047961
      pz      :     1.035874  p :     2.959331
      px      :     0.977371
      py      :     0.946085
      dz2     :     0.025625  d :     0.117584
      dxz     :     0.020182
      dyz     :     0.016014
      dx2y2   :     0.026134
      dxy     :     0.029629

  2 C s       :     1.006921  s :     1.006921
      pz      :     1.030052  p :     2.956808
      px      :     0.952765
      py      :     0.973991
      dz2     :     0.021683  d :     0.099500
      dxz     :     0.018271
      dyz     :     0.015230
      dx2y2   :     0.022812
      dxy     :     0.021504

  3 C s       :     0.998527  s :     0.998527
      pz      :     1.030238  p :     2.951132
      px      :     0.933125
      py      :     0.987768
      dz2     :     0.020788  d :     0.098174
      dxz     :     0.018046
      dyz     :     0.016013
      dx2y2   :     0.024172
      dxy     :     0.019154

  4 C s       :     1.039560  s :     1.039560
      pz      :     1.032687  p :     2.960113
      px      :     0.991947
      py      :     0.935478
      dz2     :     0.026488  d :     0.125324
      dxz     :     0.020310
      dyz     :     0.020763
      dx2y2   :     0.031131
      dxy     :     0.026632

  5 C s       :     0.988037  s :     0.988037
      pz      :     1.043731  p :     2.967833
      px      :     0.935822
      py      :     0.988280
      dz2     :     0.019226  d :     0.090077
      dxz     :     0.014447
      dyz     :     0.016189
      dx2y2   :     0.024304
      dxy     :     0.015911

  6 C s       :     1.131366  s :     1.131366
      pz      :     0.702546  p :     2.446500
      px      :     0.901240
      py      :     0.842715
      dz2     :     0.015305  d :     0.205520
      dxz     :     0.024827
      dyz     :     0.035207
      dx2y2   :     0.074434
      dxy     :     0.055747

  7 O s       :     1.780941  s :     1.780941
      pz      :     1.367456  p :     4.492075
      px      :     1.723301
      py      :     1.401318
      dz2     :     0.003940  d :     0.035974
      dxz     :     0.003700
      dyz     :     0.009864
      dx2y2   :     0.009287
      dxy     :     0.009183

  8 C s       :     1.081198  s :     1.081198
      pz      :     0.990040  p :     2.880489
      px      :     0.936857
      py      :     0.953592
      dz2     :     0.029545  d :     0.120366
      dxz     :     0.035388
      dyz     :     0.024712
      dx2y2   :     0.013806
      dxy     :     0.016914

  9 C s       :     0.986654  s :     0.986654
      pz      :     0.978941  p :     2.969801
      px      :     0.989516
      py      :     1.001344
      dz2     :     0.020494  d :     0.064696
      dxz     :     0.019677
      dyz     :     0.011287
      dx2y2   :     0.009670
      dxy     :     0.003568

 10 C s       :     0.954104  s :     0.954104
      pz      :     0.985166  p :     3.065151
      px      :     1.018475
      py      :     1.061509
      dz2     :     0.020052  d :     0.072595
      dxz     :     0.019779
      dyz     :     0.008385
      dx2y2   :     0.005804
      dxy     :     0.018575

 11 H s       :     0.907986  s :     0.907986
      pz      :     0.022372  p :     0.042812
      px      :     0.010223
      py      :     0.010217

 12 H s       :     0.920254  s :     0.920254
      pz      :     0.011943  p :     0.043591
      px      :     0.013056
      py      :     0.018592

 13 H s       :     0.902368  s :     0.902368
      pz      :     0.012764  p :     0.043196
      px      :     0.010861
      py      :     0.019572

 14 H s       :     0.893927  s :     0.893927
      pz      :     0.022155  p :     0.041800
      px      :     0.009569
      py      :     0.010075

 15 H s       :     0.916233  s :     0.916233
      pz      :     0.021853  p :     0.040993
      px      :     0.010685
      py      :     0.008455

 16 H s       :     0.909357  s :     0.909357
      pz      :     0.011978  p :     0.042016
      px      :     0.011780
      py      :     0.018258

 17 H s       :     0.925288  s :     0.925288
      pz      :     0.021851  p :     0.042128
      px      :     0.011335
      py      :     0.008943

 18 H s       :     0.901486  s :     0.901486
      pz      :     0.012461  p :     0.041524
      px      :     0.010407
      py      :     0.018656

 19 H s       :     0.909935  s :     0.909935
      pz      :     0.020547  p :     0.038904
      px      :     0.009604
      py      :     0.008753

 20 H s       :     0.893655  s :     0.893655
      pz      :     0.021727  p :     0.045392
      px      :     0.013444
      py      :     0.010222

 21 H s       :     0.888470  s :     0.888470
      pz      :     0.012996  p :     0.041114
      px      :     0.009519
      py      :     0.018599

 22 H s       :     0.923229  s :     0.923229
      pz      :     0.021436  p :     0.051156
      px      :     0.014344
      py      :     0.015376

 23 H s       :     0.929105  s :     0.929105
      pz      :     0.009639  p :     0.050076
      px      :     0.025686
      py      :     0.014751

 24 H s       :     0.928941  s :     0.928941
      pz      :     0.019967  p :     0.045217
      px      :     0.014308
      py      :     0.010942

 25 H s       :     0.893116  s :     0.893116
      pz      :     0.010036  p :     0.043843
      px      :     0.016055
      py      :     0.017751

 26 H s       :     0.893386  s :     0.893386
      pz      :     0.010022  p :     0.043903
      px      :     0.013478
      py      :     0.020402



                     *******************************
                     * LOEWDIN POPULATION ANALYSIS *
                     *******************************

----------------------
LOEWDIN ATOMIC CHARGES
----------------------
   0 C :   -0.107891
   1 C :   -0.079516
   2 C :   -0.078680
   3 C :   -0.078833
   4 C :   -0.070200
   5 C :   -0.067109
   6 C :    0.019502
   7 O :   -0.134840
   8 C :   -0.043165
   9 C :   -0.079173
  10 C :   -0.114411
  11 H :    0.051855
  12 H :    0.047320
  13 H :    0.054229
  14 H :    0.061195
  15 H :    0.050581
  16 H :    0.053282
  17 H :    0.043993
  18 H :    0.055590
  19 H :    0.059721
  20 H :    0.058610
  21 H :    0.069697
  22 H :    0.032049
  23 H :    0.034739
  24 H :    0.043688
  25 H :    0.058831
  26 H :    0.058937

-------------------------------
LOEWDIN REDUCED ORBITAL CHARGES
-------------------------------
  0 C s       :     0.778643  s :     0.778643
      pz      :     1.068489  p :     3.090344
      px      :     0.955254
      py      :     1.066601
      dz2     :     0.047259  d :     0.238904
      dxz     :     0.049116
      dyz     :     0.036917
      dx2y2   :     0.047972
      dxy     :     0.057640

  1 C s       :     0.761174  s :     0.761174
      pz      :     1.024612  p :     2.952242
      px      :     0.965425
      py      :     0.962204
      dz2     :     0.082951  d :     0.366101
      dxz     :     0.060477
      dyz     :     0.050478
      dx2y2   :     0.081391
      dxy     :     0.090803

  2 C s       :     0.765971  s :     0.765971
      pz      :     1.038907  p :     2.993617
      px      :     0.966230
      py      :     0.988479
      dz2     :     0.069855  d :     0.319092
      dxz     :     0.060496
      dyz     :     0.048086
      dx2y2   :     0.070015
      dxy     :     0.070640

  3 C s       :     0.765802  s :     0.765802
      pz      :     1.040246  p :     2.995949
      px      :     0.956776
      py      :     0.998927
      dz2     :     0.066632  d :     0.317082
      dxz     :     0.059980
      dyz     :     0.051784
      dx2y2   :     0.076032
      dxy     :     0.062653

  4 C s       :     0.754266  s :     0.754266
      pz      :     1.018761  p :     2.932688
      px      :     0.962636
      py      :     0.951291
      dz2     :     0.085152  d :     0.383246
      dxz     :     0.063890
      dyz     :     0.061594
      dx2y2   :     0.094602
      dxy     :     0.078008

  5 C s       :     0.768085  s :     0.768085
      pz      :     1.038892  p :     3.005016
      px      :     0.968837
      py      :     0.997287
      dz2     :     0.060666  d :     0.294007
      dxz     :     0.048808
      dyz     :     0.053136
      dx2y2   :     0.076218
      dxy     :     0.055179

  6 C s       :     0.794442  s :     0.794442
      pz      :     0.693993  p :     2.608470
      px      :     0.976012
      py      :     0.938465
      dz2     :     0.052485  d :     0.577585
      dxz     :     0.069594
      dyz     :     0.091747
      dx2y2   :     0.197118
      dxy     :     0.166641

  7 O s       :     1.529581  s :     1.529581
      pz      :     1.334785  p :     4.529517
      px      :     1.683830
      py      :     1.510901
      dz2     :     0.008503  d :     0.075742
      dxz     :     0.005202
      dyz     :     0.015318
      dx2y2   :     0.023262
      dxy     :     0.023457

  8 C s       :     0.800204  s :     0.800204
      pz      :     1.033194  p :     2.864731
      px      :     0.981990
      py      :     0.849547
      dz2     :     0.098351  d :     0.378231
      dxz     :     0.114265
      dyz     :     0.067783
      dx2y2   :     0.046989
      dxy     :     0.050842

  9 C s       :     0.828535  s :     0.828535
      pz      :     1.051757  p :     3.034650
      px      :     1.055893
      py      :     0.927000
      dz2     :     0.077796  d :     0.215988
      dxz     :     0.070227
      dyz     :     0.025750
      dx2y2   :     0.033598
      dxy     :     0.008618

 10 C s       :     0.775120  s :     0.775120
      pz      :     1.001480  p :     3.105019
      px      :     1.032800
      py      :     1.070740
      dz2     :     0.068054  d :     0.234272
      dxz     :     0.062222
      dyz     :     0.023288
      dx2y2   :     0.018714
      dxy     :     0.061994

 11 H s       :     0.804487  s :     0.804487
      pz      :     0.064751  p :     0.143658
      px      :     0.038915
      py      :     0.039992

 12 H s       :     0.807254  s :     0.807254
      pz      :     0.044292  p :     0.145426
      px      :     0.043345
      py      :     0.057788

 13 H s       :     0.800210  s :     0.800210
      pz      :     0.046065  p :     0.145560
      px      :     0.040475
      py      :     0.059021

 14 H s       :     0.789118  s :     0.789118
      pz      :     0.068899  p :     0.149686
      px      :     0.040987
      py      :     0.039800

 15 H s       :     0.805117  s :     0.805117
      pz      :     0.065501  p :     0.144302
      px      :     0.041281
      py      :     0.037520

 16 H s       :     0.801917  s :     0.801917
      pz      :     0.044232  p :     0.144801
      px      :     0.043662
      py      :     0.056907

 17 H s       :     0.808592  s :     0.808592
      pz      :     0.065746  p :     0.147415
      px      :     0.042829
      py      :     0.038840

 18 H s       :     0.799622  s :     0.799622
      pz      :     0.045041  p :     0.144788
      px      :     0.040549
      py      :     0.059198

 19 H s       :     0.797590  s :     0.797590
      pz      :     0.067607  p :     0.142689
      px      :     0.038093
      py      :     0.036990

 20 H s       :     0.791620  s :     0.791620
      pz      :     0.064221  p :     0.149770
      px      :     0.045544
      py      :     0.040005

 21 H s       :     0.790403  s :     0.790403
      pz      :     0.045328  p :     0.139900
      px      :     0.036635
      py      :     0.057937

 22 H s       :     0.813679  s :     0.813679
      pz      :     0.058558  p :     0.154273
      px      :     0.047122
      py      :     0.048593

 23 H s       :     0.813886  s :     0.813886
      pz      :     0.035243  p :     0.151375
      px      :     0.069684
      py      :     0.046448

 24 H s       :     0.807559  s :     0.807559
      pz      :     0.057054  p :     0.148752
      px      :     0.048601
      py      :     0.043097

 25 H s       :     0.794969  s :     0.794969
      pz      :     0.038917  p :     0.146201
      px      :     0.052439
      py      :     0.054845

 26 H s       :     0.794920  s :     0.794920
      pz      :     0.038880  p :     0.146143
      px      :     0.047392
      py      :     0.059871



                      *****************************
                      * MAYER POPULATION ANALYSIS *
                      *****************************

  NA   - Mulliken gross atomic population
  ZA   - Total nuclear charge
  QA   - Mulliken gross atomic charge
  VA   - Mayer's total valence
  BVA  - Mayer's bonded valence
  FA   - Mayer's free valence

  ATOM       NA         ZA         QA         VA         BVA        FA
  0 C      4.0713     4.0000    -0.0713     3.9861     3.9861     0.0000
  1 C      4.1249     4.0000    -0.1249     3.9846     3.9846     0.0000
  2 C      4.0632     4.0000    -0.0632     3.9568     3.9568    -0.0000
  3 C      4.0478     4.0000    -0.0478     3.9412     3.9412     0.0000
  4 C      4.1250     4.0000    -0.1250     4.0315     4.0315    -0.0000
  5 C      4.0459     4.0000    -0.0459     3.9185     3.9185    -0.0000
  6 C      3.7834     4.0000     0.2166     3.9815     3.9815     0.0000
  7 O      6.3090     6.0000    -0.3090     2.0247     2.0247    -0.0000
  8 C      4.0821     4.0000    -0.0821     4.1324     4.1324    -0.0000
  9 C      4.0212     4.0000    -0.0212     3.9763     3.9763    -0.0000
 10 C      4.0918     4.0000    -0.0918     3.9700     3.9700    -0.0000
 11 H      0.9508     1.0000     0.0492     1.0297     1.0297     0.0000
 12 H      0.9638     1.0000     0.0362     1.0273     1.0273     0.0000
 13 H      0.9456     1.0000     0.0544     1.0300     1.0300     0.0000
 14 H      0.9357     1.0000     0.0643     1.0142     1.0142     0.0000
 15 H      0.9572     1.0000     0.0428     1.0252     1.0252    -0.0000
 16 H      0.9514     1.0000     0.0486     1.0173     1.0173     0.0000
 17 H      0.9674     1.0000     0.0326     1.0232     1.0232     0.0000
 18 H      0.9430     1.0000     0.0570     1.0161     1.0161    -0.0000
 19 H      0.9488     1.0000     0.0512     1.0097     1.0097    -0.0000
 20 H      0.9390     1.0000     0.0610     1.0256     1.0256    -0.0000
 21 H      0.9296     1.0000     0.0704     1.0300     1.0300    -0.0000
 22 H      0.9744     1.0000     0.0256     1.0415     1.0415    -0.0000
 23 H      0.9792     1.0000     0.0208     1.0412     1.0412    -0.0000
 24 H      0.9742     1.0000     0.0258     1.0291     1.0291    -0.0000
 25 H      0.9370     1.0000     0.0630     1.0211     1.0211    -0.0000
 26 H      0.9373     1.0000     0.0627     1.0220     1.0220    -0.0000

  Mayer bond orders larger than 0.100000
B(  0-C ,  1-C ) :   1.0181 B(  0-C , 11-H ) :   0.9900 B(  0-C , 12-H ) :   0.9953 
B(  0-C , 13-H ) :   0.9899 B(  1-C ,  2-C ) :   0.9609 B(  1-C ,  6-C ) :   0.9897 
B(  1-C , 14-H ) :   0.9724 B(  2-C ,  3-C ) :   0.9974 B(  2-C , 15-H ) :   0.9935 
B(  2-C , 16-H ) :   1.0018 B(  3-C ,  4-C ) :   0.9646 B(  3-C , 17-H ) :   0.9932 
B(  3-C , 18-H ) :   0.9987 B(  4-C ,  5-C ) :   0.9602 B(  4-C ,  8-C ) :   1.0571 
B(  4-C , 19-H ) :   0.9904 B(  5-C ,  6-C ) :   1.0157 B(  5-C , 20-H ) :   0.9698 
B(  5-C , 21-H ) :   0.9874 B(  6-C ,  7-O ) :   1.9335 B(  8-C ,  9-C ) :   1.9420 
B(  8-C , 10-C ) :   1.0151 B(  9-C , 22-H ) :   0.9903 B(  9-C , 23-H ) :   0.9903 
B( 10-C , 24-H ) :   0.9940 B( 10-C , 25-H ) :   0.9828 B( 10-C , 26-H ) :   0.9829 


-------
TIMINGS
-------

Total SCF time: 0 days 0 hours 0 min 56 sec 

Total time                  ....      56.783 sec
Sum of individual times     ....      54.654 sec  ( 96.3%)

SCF preparation             ....       2.537 sec  (  4.5%)
Fock matrix formation       ....      50.835 sec  ( 89.5%)
  Startup                   ....       0.288 sec  (  0.6% of F)
  Split-RI-J                ....       1.757 sec  (  3.5% of F)
  Chain of spheres X        ....      23.885 sec  ( 47.0% of F)
  XC integration            ....      24.253 sec  ( 47.7% of F)
    XC Preparation          ....       0.000 sec  (  0.0% of XC)
    Basis function eval.    ....       0.601 sec  (  2.5% of XC)
    Density eval.           ....       0.269 sec  (  1.1% of XC)
    XC-Functional eval.     ....       0.187 sec  (  0.8% of XC)
    XC-Potential eval.      ....       0.330 sec  (  1.4% of XC)
Diagonalization             ....       0.000 sec  (  0.0%)
Density matrix formation    ....       0.209 sec  (  0.4%)
Total Energy calculation    ....       0.258 sec  (  0.5%)
Population analysis         ....       0.053 sec  (  0.1%)
Orbital Transformation      ....       0.060 sec  (  0.1%)
Orbital Orthonormalization  ....       0.000 sec  (  0.0%)
DIIS solution               ....       0.457 sec  (  0.8%)
SOSCF solution              ....       0.246 sec  (  0.4%)
Finished LeanSCF after  56.9 sec

Maximum memory used throughout the entire LEANSCF-calculation: 41.9 MB


           ************************************************************
           *        Program running with 40 parallel MPI-processes    *
           *              working on a common directory               *
           ************************************************************

------------------------------------------------------------------------------
                         ORCA PROPERTY INTEGRAL CALCULATIONS
------------------------------------------------------------------------------

GBWName                                   ... ./output/_z_dihydrocarvone/_z_dihydrocarvone.gbw
Number of atoms                           ...     27
Number of basis functions                 ...    223
Max core memory                           ...   1024 MB

Dipole integrals                          ... YES
Quadrupole integrals                      ...  NO
Linear momentum integrals                 ...  NO
Angular momentum integrals                ...  NO
Higher moments length integrals           ...  NO
Higher moments velocity integrals         ...  NO
Kinetic energy integrals                  ...  NO
GIAO right hand sides                     ...  NO
GIAO dipole derivative integrals          ...  NO
[...]
 24:    748.86   0.000168    0.85  0.000070  ( 0.003460 -0.006600  0.003806)
 25:    762.25   0.000952    4.81  0.000390  (-0.012092 -0.010122  0.011870)
 26:    833.61   0.000063    0.32  0.000024  (-0.004534 -0.001633  0.000571)
 27:    884.94   0.000173    0.87  0.000061  ( 0.002786 -0.007136 -0.001489)
 28:    921.61   0.000342    1.73  0.000116  (-0.004508  0.003428 -0.009158)
 29:    931.20   0.000272    1.38  0.000091  ( 0.004461 -0.002881 -0.007938)
 30:    941.25   0.007970   40.28  0.002642  (-0.003283 -0.051263 -0.001953)
 31:    974.77   0.000510    2.58  0.000163  ( 0.009562 -0.004168 -0.007374)
 32:    991.30   0.000364    1.84  0.000114  ( 0.002271  0.009834  0.003548)
 33:   1027.20   0.000311    1.57  0.000095  ( 0.007765  0.002657  0.005212)
 34:   1046.65   0.000357    1.81  0.000107  (-0.002384  0.006873  0.007325)
 35:   1059.41   0.001380    6.98  0.000407  ( 0.002123  0.019834 -0.002952)
 36:   1076.21   0.000150    0.76  0.000043  ( 0.005353 -0.003780 -0.000735)
 37:   1103.65   0.001694    8.56  0.000479  (-0.019333 -0.006693  0.007782)
 38:   1114.08   0.001747    8.83  0.000489  ( 0.019714  0.005347 -0.008491)
 39:   1150.71   0.001681    8.50  0.000456  (-0.019971 -0.001494  0.007403)
 40:   1174.58   0.000199    1.00  0.000053  ( 0.004417 -0.005708 -0.000856)
 41:   1201.03   0.001462    7.39  0.000380  (-0.016173 -0.010708  0.001933)
 42:   1248.03   0.001869    9.44  0.000467  (-0.018686 -0.009185  0.005808)
 43:   1274.46   0.003608   18.23  0.000883  (-0.028940 -0.004954  0.004620)
 44:   1300.47   0.002828   14.29  0.000679  ( 0.024950  0.000283 -0.007493)
 45:   1317.37   0.001371    6.93  0.000325  ( 0.017506  0.004114 -0.001139)
 46:   1347.66   0.000009    0.05  0.000002  (-0.000536  0.001193 -0.000661)
 47:   1352.56   0.000456    2.30  0.000105  (-0.007262  0.002511 -0.006792)
 48:   1358.90   0.000025    0.13  0.000006  ( 0.001548 -0.001723 -0.000646)
 49:   1398.01   0.001644    8.31  0.000367  (-0.012032 -0.013642  0.006003)
 50:   1403.27   0.001781    9.00  0.000396  ( 0.016239 -0.010594 -0.004491)
 51:   1427.91   0.000574    2.90  0.000125  (-0.008343 -0.001690 -0.007273)
 52:   1438.12   0.005844   29.53  0.001268  (-0.035443 -0.000317 -0.003439)
 53:   1446.43   0.000750    3.79  0.000162  (-0.007771 -0.001712  0.009922)
 54:   1456.66   0.000664    3.36  0.000142  (-0.000460 -0.007851  0.008971)
 55:   1487.33   0.001486    7.51  0.000312  ( 0.014012 -0.000480 -0.010736)
 56:   1501.83   0.002060   10.41  0.000428  ( 0.012765  0.015364  0.005392)
 57:   1515.64   0.001571    7.94  0.000323  ( 0.015724 -0.007963 -0.003575)
 58:   1519.11   0.001004    5.07  0.000206  ( 0.007866  0.002229  0.011803)
 59:   1523.48   0.001624    8.21  0.000333  (-0.001701 -0.017693 -0.004093)
 60:   1525.61   0.003173   16.04  0.000649  (-0.000927 -0.004162  0.025118)
 61:   1529.35   0.002086   10.54  0.000426  ( 0.011756  0.014956  0.007984)
 62:   1533.12   0.001973    9.97  0.000402  ( 0.008387  0.013472 -0.012239)
 63:   1771.79   0.005096   25.75  0.000898  (-0.012432 -0.000306  0.027258)
 64:   1866.12   0.048810  246.67  0.008162  (-0.046441  0.074920 -0.019814)
 65:   3070.74   0.001723    8.71  0.000175  ( 0.008888  0.000676  0.009780)
 66:   3092.24   0.004107   20.75  0.000414  (-0.015586 -0.009256 -0.009266)
 67:   3094.45   0.001981   10.01  0.000200  (-0.004907 -0.011102 -0.007244)
 68:   3099.81   0.005167   26.11  0.000520  (-0.012636  0.014116 -0.012699)
 69:   3111.07   0.001871    9.45  0.000188  ( 0.007445  0.006617  0.009404)
 70:   3112.24   0.005679   28.70  0.000569  (-0.023158 -0.004242  0.003893)
 71:   3115.20   0.005421   27.39  0.000543  (-0.010125  0.000462 -0.020983)
 72:   3152.68   0.004294   21.70  0.000425  (-0.004607 -0.018830  0.007016)
 73:   3159.83   0.004716   23.83  0.000466  (-0.000110  0.005669  0.020824)
 74:   3194.40   0.000922    4.66  0.000090  ( 0.002968  0.006483 -0.006266)
 75:   3198.10   0.000782    3.95  0.000076  (-0.000426 -0.008723 -0.000249)
 76:   3202.58   0.002626   13.27  0.000256  ( 0.001940  0.009641 -0.012615)
 77:   3203.98   0.001016    5.13  0.000099  (-0.006430  0.000482  0.007575)
 78:   3213.50   0.002830   14.30  0.000275  (-0.011338  0.000503  0.012083)
 79:   3215.23   0.001742    8.80  0.000169  (-0.000486  0.009785  0.008549)
 80:   3298.86   0.001187    6.00  0.000112  (-0.009583  0.000953 -0.004416)

* The epsilon (eps) is given for a Dirac delta lineshape.
** The dipole moment derivative (T) already includes vibrational overlap.

The first frequency considered to be a vibration is 7
The total number of vibrations considered is 74


--------------------------
THERMOCHEMISTRY AT 298.15K
--------------------------

Temperature         ...   298.15 K
Pressure            ...     1.00 atm
Total Mass          ...   152.24 AMU
Quasi RRHO          ...     True
Cut-Off Frequency   ...     1.00 cm^-1

Throughout the following assumptions are being made:
  (1) The electronic state is orbitally nondegenerate
  (2) There are no thermally accessible electronically excited states
  (3) Hindered rotations indicated by low frequency modes are not
      treated as such but are treated as vibrations and this may
      cause some error
  (4) All equations used are the standard statistical mechanics
      equations for an ideal gas
  (5) All vibrations are strictly harmonic

freq.      66.57  E(vib)   ...       0.50 
freq.      75.77  E(vib)   ...       0.49 
freq.     109.14  E(vib)   ...       0.45 
freq.     171.83  E(vib)   ...       0.38 
freq.     209.62  E(vib)   ...       0.34 
freq.     216.93  E(vib)   ...       0.34 
freq.     279.98  E(vib)   ...       0.28 
freq.     295.09  E(vib)   ...       0.27 
freq.     325.14  E(vib)   ...       0.24 
freq.     337.16  E(vib)   ...       0.24 
freq.     431.69  E(vib)   ...       0.18 
freq.     453.89  E(vib)   ...       0.16 
freq.     512.53  E(vib)   ...       0.13 
freq.     514.47  E(vib)   ...       0.13 
freq.     578.33  E(vib)   ...       0.11 
freq.     641.48  E(vib)   ...       0.09 
freq.     677.03  E(vib)   ...       0.08 
freq.     748.86  E(vib)   ...       0.06 
freq.     762.25  E(vib)   ...       0.06 
freq.     833.61  E(vib)   ...       0.04 
freq.     884.94  E(vib)   ...       0.04 
freq.     921.61  E(vib)   ...       0.03 
freq.     931.20  E(vib)   ...       0.03 
freq.     941.25  E(vib)   ...       0.03 
freq.     974.77  E(vib)   ...       0.03 
freq.     991.30  E(vib)   ...       0.02 
freq.    1027.20  E(vib)   ...       0.02 
freq.    1046.65  E(vib)   ...       0.02 
freq.    1059.41  E(vib)   ...       0.02 
freq.    1076.21  E(vib)   ...       0.02 
freq.    1103.65  E(vib)   ...       0.02 
freq.    1114.08  E(vib)   ...       0.01 
freq.    1150.71  E(vib)   ...       0.01 
freq.    1174.58  E(vib)   ...       0.01 
freq.    1201.03  E(vib)   ...       0.01 
freq.    1248.03  E(vib)   ...       0.01 
freq.    1274.46  E(vib)   ...       0.01 
freq.    1300.47  E(vib)   ...       0.01 
freq.    1317.37  E(vib)   ...       0.01 
freq.    1347.66  E(vib)   ...       0.01 
freq.    1352.56  E(vib)   ...       0.01 
freq.    1358.90  E(vib)   ...       0.01 
freq.    1398.01  E(vib)   ...       0.00 
freq.    1403.27  E(vib)   ...       0.00 
freq.    1427.91  E(vib)   ...       0.00 
freq.    1438.12  E(vib)   ...       0.00 
freq.    1446.43  E(vib)   ...       0.00 
freq.    1456.66  E(vib)   ...       0.00 
freq.    1487.33  E(vib)   ...       0.00 
freq.    1501.83  E(vib)   ...       0.00 
freq.    1515.64  E(vib)   ...       0.00 
freq.    1519.11  E(vib)   ...       0.00 
freq.    1523.48  E(vib)   ...       0.00 
freq.    1525.61  E(vib)   ...       0.00 
freq.    1529.35  E(vib)   ...       0.00 
freq.    1533.12  E(vib)   ...       0.00 
freq.    1771.79  E(vib)   ...       0.00 
freq.    1866.12  E(vib)   ...       0.00 
freq.    3070.74  E(vib)   ...       0.00 
freq.    3092.24  E(vib)   ...       0.00 
freq.    3094.45  E(vib)   ...       0.00 
freq.    3099.81  E(vib)   ...       0.00 
freq.    3111.07  E(vib)   ...       0.00 
freq.    3112.24  E(vib)   ...       0.00 
freq.    3115.20  E(vib)   ...       0.00 
freq.    3152.68  E(vib)   ...       0.00 
freq.    3159.83  E(vib)   ...       0.00 
freq.    3194.40  E(vib)   ...       0.00 
freq.    3198.10  E(vib)   ...       0.00 
freq.    3202.58  E(vib)   ...       0.00 
freq.    3203.98  E(vib)   ...       0.00 
freq.    3213.50  E(vib)   ...       0.00 
freq.    3215.23  E(vib)   ...       0.00 
freq.    3298.86  E(vib)   ...       0.00 

------------
INNER ENERGY
------------

The inner energy is: U= E(el) + E(ZPE) + E(vib) + E(rot) + E(trans)
    E(el)   - is the total energy from the electronic structure calculation
              = E(kin-el) + E(nuc-el) + E(el-el) + E(nuc-nuc)
    E(ZPE)  - the the zero temperature vibrational energy from the frequency calculation
    E(vib)  - the the finite temperature correction to E(ZPE) due to population
              of excited vibrational states
    E(rot)  - is the rotational thermal energy
    E(trans)- is the translational thermal energy

Summary of contributions to the inner energy U:
Electronic energy                ...    -82.68226698 Eh
Zero point energy                ...      0.24585555 Eh     154.28 kcal/mol
Thermal vibrational correction   ...      0.00793845 Eh       4.98 kcal/mol
Thermal rotational correction    ...      0.00141627 Eh       0.89 kcal/mol
Thermal translational correction ...      0.00141627 Eh       0.89 kcal/mol
-----------------------------------------------------------------------
Total thermal energy                    -82.42564044 Eh


Summary of corrections to the electronic energy:
(perhaps to be used in another calculation)
Total thermal correction                  0.01077099 Eh       6.76 kcal/mol
Non-thermal (ZPE) correction              0.24585555 Eh     154.28 kcal/mol
-----------------------------------------------------------------------
Total correction                          0.25662654 Eh     161.04 kcal/mol


--------
ENTHALPY
--------

The enthalpy is H = U + kB*T
                kB is Boltzmann's constant
Total thermal energy              ...    -82.42564044 Eh 
Thermal Enthalpy correction       ...      0.00094421 Eh       0.59 kcal/mol
-----------------------------------------------------------------------
Total Enthalpy                    ...    -82.42469623 Eh


Note: Only C1 symmetry has been detected, increase convergence thresholds 
      if your molecule has a higher symmetry. Symmetry factor of 1.0 is   
      used for the rotational entropy correction. 
 

Note: Rotational entropy computed according to Herzberg 
Infrared and Raman Spectra, Chapter V,1, Van Nostrand Reinhold, 1945 
Point Group:  C1, Symmetry Number:   1  
Rotational constants in cm-1:     0.073300     0.021858     0.019509 

Vibrational entropy computed according to the QRRHO of S. Grimme
Chem.Eur.J. 2012 18 9955 using a reference frequency of 100.0 cm-1


-------
ENTROPY
-------

The entropy contributions are T*S = T*(S(el)+S(vib)+S(rot)+S(trans))
     S(el)   - electronic entropy
     S(vib)  - vibrational entropy
     S(rot)  - rotational entropy
     S(trans)- translational entropy
The entropies will be listed as multiplied by the temperature to get
units of energy

Electronic entropy                ...      0.00000000 Eh      0.00 kcal/mol
Vibrational entropy               ...      0.01340678 Eh      8.41 kcal/mol
Rotational entropy                ...      0.01440793 Eh      9.04 kcal/mol
Translational entropy             ...      0.01946646 Eh     12.22 kcal/mol
-----------------------------------------------------------------------
Final entropy term                ...      0.04728117 Eh     29.67 kcal/mol

In case the symmetry of your molecule has not been determined correctly
or in case you have a reason to use a different symmetry number we print 
out the resulting rotational entropy values for sn=1,12:

 non-linear molecules -----------------------------------
|  sn= 1 | S(rot)=       0.01440793 Eh      9.04 kcal/mol|
|  sn= 2 | S(rot)=       0.01375347 Eh      8.63 kcal/mol|
|  sn= 3 | S(rot)=       0.01337064 Eh      8.39 kcal/mol|
|  sn= 4 | S(rot)=       0.01309902 Eh      8.22 kcal/mol|
|  sn= 5 | S(rot)=       0.01288833 Eh      8.09 kcal/mol|
|  sn= 6 | S(rot)=       0.01271618 Eh      7.98 kcal/mol|
|  sn= 7 | S(rot)=       0.01257064 Eh      7.89 kcal/mol|
|  sn= 8 | S(rot)=       0.01244456 Eh      7.81 kcal/mol|
|  sn= 9 | S(rot)=       0.01233335 Eh      7.74 kcal/mol|
|  sn=10 | S(rot)=       0.01223387 Eh      7.68 kcal/mol|
|  sn=11 | S(rot)=       0.01214388 Eh      7.62 kcal/mol|
|  sn=12 | S(rot)=       0.01206173 Eh      7.57 kcal/mol|
 linear molecules ---------------------------------------
|  Dinfh | S(rot)=       0.00904294 Eh      5.67 kcal/mol|
|  Cinfv | S(rot)=       0.00969740 Eh      6.09 kcal/mol|
 --------------------------------------------------------


-------------------
GIBBS FREE ENERGY
-------------------

The Gibbs free energy is G = H - T*S

Total enthalpy                    ...    -82.42469623 Eh 
Total entropy correction          ...     -0.04728117 Eh    -29.67 kcal/mol
-----------------------------------------------------------------------
Final Gibbs free energy         ...    -82.47197740 Eh

For completeness - the Gibbs free energy minus the electronic energy
G-E(el)                           ...      0.21028958 Eh    131.96 kcal/mol


Maximum memory used throughout the entire PROP-calculation: 127.3 MB

--------------------------------
SUGGESTED CITATIONS FOR THIS RUN
--------------------------------

Below you find a list of papers that are relevant to this ORCA run
We neither can nor want to force you to cite these papers, but we appreciate if you do
You receive ORCA, which is the product of decades of hard work by many enthusiastic individuals, for free
The only thing we kindly ask in return is that you cite our papers,
We deeply appreciate it, if you show your appreciation for ORCA by not just citing the generic ORCA reference.

Please note that relegating all ORCA citations to the supporting information does *not* help us.
SI sections are not indexed - citations you put there will not count into any citation statistics
But we need these citations in order to attract the funding resources that allow us to do what we are doing

Therefore, if you are a happy ORCA user, please consider citing a few of the papers listed below in the main body of your paper

In addition to the list printed below, the program has created the file ./output/_z_dihydrocarvone/_z_dihydrocarvone.bibtex that contains the list in bibtex format
You can import this file easily into all common literature databanks and citation aid programs


List of essential papers. We consider these as the minimum necessary citations

  1. Neese,F.
     Software update: the ORCA program system, version 5.0
     WIRES Comput. Molec. Sci., 2022 12(1)e1606
     doi.org/10.1002/wcms.1606
  2. Mueller,M.; Hansen,A.; Grimme,S.
     wB97X-3c: A composite range-separated hybrid DFT method with a molecule-optimized polarized valence double-zeta basis set
     J. Chem. Phys., 2023 158 014103
     doi.org/10.1063/5.0133026

List of papers to cite with high priority. The work reported in these papers was absolutely
necessary for this run to complete.
Our perspective: the developers of density functionals and basis sets usually get cited in chemistry papers
Good! But without the algorithms to do something with them, the functionals or basis sets would not do anything.
Hence, in our opinion, the algorithm design and method developments papers are equally worthy of getting cited

  1. Neese,F.
     An improvement of the resolution of the identity approximation for the formation of the Coulomb matrix
     J. Comp. Chem., 2003 24(14)1740-1747
     doi.org/10.1002/jcc.10318
  2. Neese,F.; Wennmohs,F.; Hansen,A.; Becker,U.
     Efficient, approximate and parallel Hartree-Fock and hybrid DFT calculations. A 'chain-of-spheres' algorithm for the Hartree-Fock exchange
     Chem. Phys., 2009 356(1-3)98-109
     doi.org/10.1016/j.chemphys.2008.10.036
  3. Bykov,D.; Petrenko,T.; Izsak,R.; Kossmann,S.; Becker,U.; Valeev,E.; Neese,F.
     Efficient implementation of the analytic second derivatives of Hartree-Fock and hybrid DFT energies: a detailed analysis of different approximations
     Molec. Phys., 2015 113 1961-1977
     doi.org/10.1080/00268976.2015.1025114
  4. Helmich-Paris,B.; de Souza,B.; Neese,F.; Izsák,R.
     An improved chain of spheres for exchange algorithm
     J. Chem. Phys., 2021 155 104109
     doi.org/doi: 10.1063/5.0058766.
  5. Neese,F.
     The SHARK Integral Generation and Digestion System
     J. Comp. Chem., 2022  1-16
     doi.org/10.1002/jcc.26942
  6. Caldeweyher,E.; Bannwarth,C.; Grimme,S.
     Extension of the D3 dispersion coefficient model
     J. Chem. Phys., 2017 147 034112
     doi.org/10.1063/1.4993215
  7. Caldeweyher,E.; Ehlert,S.; Hansen,A.; Neugebauer,H.; Spicher,S.; Bannwarth,C.; Grimme,S.
     A generally applicable atomic-charge dependent London dispersion correction
     J. Chem. Phys., 2019 150 154122
     doi.org/10.1063/1.5090222
  8. Caldeweyher,E.; Mewes,J.; Ehlert,S.; Grimme,S.
     Extension and evaluation of the D4 London-dispersion model for periodic systems
     Phys. Chem. Chem. Phys., 2020 22(16)8499-8512
     doi.org/10.1039/D0CP00502A
  9. Wittmann,L.; Gordiy,I.; Friede,M.; Helmich-Paris,B.; Grimme,S.; Hansen,A.; Bursch,M.
     Extension of the D3 and D4 London Dispersion Corrections to the full Actinides Series
     Phys. Chem. Chem. Phys., 2024 26(32)21379-21394
     doi.org/https://doi.org/10.1039/D4CP01514B 

List of suggested additional citations. These are papers that are important in the 'surrounding' of 
of this run, or papers that preceded the highly important papers. If you like your results we are grateful for a citation.

  1. Izsak,R.; Neese,F.
     An overlap fitted chain of spheres exchange method
     J. Chem. Phys., 2011 135 144105
     doi.org/10.1063/1.3646921
  2. Izsak,R.; Hansen,A.; Neese,F.
     The resolution of identity and chain of spheres approximations for the LPNO-CCSD singles Fock term
     Molec. Phys., 2012 110 2413-2417
     doi.org/10.1080/00268976.2012.687466
  3. Neese,F.
     The ORCA program system
     WIRES Comput. Molec. Sci., 2012 2(1)73-78
     doi.org/10.1002/wcms.81
  4. Izsak,R.; Neese,F.; Klopper,W.
     Robust fitting techniques in the chain of spheres approximation to the Fock exchange: The role of the complementary space
     J. Chem. Phys., 2013 139 
     doi.org/10.1063/1.4819264
  5. Neese,F.
     Software update: the ORCA program system, version 4.0
     WIRES Comput. Molec. Sci., 2018 8(1)1-6
     doi.org/10.1002/wcms.1327
  6. Neese,F.; Wennmohs,F.; Becker,U.; Riplinger,C.
     The ORCA quantum chemistry program package
     J. Chem. Phys., 2020 152 Art. No. L224108
     doi.org/10.1063/5.0004608

List of optional additional citations

  1. Neese,F.
     Approximate second-order SCF convergence for spin unrestricted wavefunctions
     Chem. Phys. Lett., 2000 325(1-3)93-98
     doi.org/10.1016/s0009-2614(00)00662-x

Timings for individual modules:

Sum of individual times          ...      759.686 sec (=  12.661 min)
Startup calculation              ...       38.295 sec (=   0.638 min)   5.0 %
SCF iterations                   ...      446.338 sec (=   7.439 min)  58.8 %
Property integrals               ...       54.764 sec (=   0.913 min)   7.2 %
SCF Response                     ...       38.604 sec (=   0.643 min)   5.1 %
Property calculations            ...       93.057 sec (=   1.551 min)  12.2 %
SCF Gradient evaluation          ...       88.476 sec (=   1.475 min)  11.6 %
Geometry relaxation              ...        0.153 sec (=   0.003 min)   0.0 %
                             ****ORCA TERMINATED NORMALLY****
TOTAL RUN TIME: 0 days 0 hours 12 minutes 45 seconds 370 msec
