
                                 *****************
                                 * O   R   C   A *
                                 *****************

                                            #,                                       
                                            ###                                      
                                            ####                                     
                                            #####                                    
                                            ######                                   
                                           ########,                                 
                                     ,,################,,,,,                         
                               ,,#################################,,                 
                          ,,##########################################,,             
                       ,#########################################, ''#####,          
                    ,#############################################,,   '####,        
                  ,##################################################,,,,####,       
                ,###########''''           ''''###############################       
              ,#####''   ,,,,##########,,,,          '''####'''          '####       
            ,##' ,,,,###########################,,,                        '##       
           ' ,,###''''                  '''############,,,                           
         ,,##''                                '''############,,,,        ,,,,,,###''
      ,#''                                            '''#######################'''  
     '                                                          ''''####''''         
             ,#######,   #######,   ,#######,      ##                                
            ,#'     '#,  ##    ##  ,#'     '#,    #''#        ,####,   ,####,        
            ##       ##  ##   ,#'  ##            #'  '#       #'       #'  '#        
            ##       ##  #######   ##           ,######,      #####,   #    #        
            '#,     ,#'  ##    ##  '#,     ,#' ,#      #,     #,   #   #,  ,#        
             '#######'   ##     ##  '#######'  #'      '#     '####' # '####'        



                #########################################################
                #                        -***-                          #
                #          Department of theory and spectroscopy        #
                #                                                       #
                #                      Frank Neese                      #
                #                                                       #
                #     Directorship, Architecture, Infrastructure        #
                #                    SHARK, DRIVERS                     #
                #        Core code/Algorithms in most modules           #
                #                                                       #
                #        Max Planck Institute fuer Kohlenforschung      #
                #                Kaiser Wilhelm Platz 1                 #
                #                 D-45470 Muelheim/Ruhr                 #
                #                      Germany                          #
                #                                                       #
                #                  All rights reserved                  #
                #                        -***-                          #
                #########################################################


                         Program Version 6.0.1  -  RELEASE   -


 With contributions from (in alphabetic order):
[Max-Planck-Institut fuer Kohlenforschung]                               
  Daniel Aravena         : Magnetic Suceptibility                        
  Michael Atanasov       : Ab Initio Ligand Field Theory (pilot matlab implementation)
  Alexander A. Auer      : GIAO ZORA, VPT2 properties, NMR spectrum      
  Ute Becker             : All parallelization in ORCA, NUMFREQ, NUMCALC 
  Giovanni Bistoni       : ED, misc. LED, open-shell LED, HFLD           
  Martin Brehm           : Molecular dynamics                            
  Dmytro Bykov           : pre 5.0 version of the SCF Hessian            
  Marcos Casanova-Páez   : Triplet and SCS-CIS(D). UHF-(DLPNO)-IP/EA/STEOM-CCSD. UHF-CVS-IP/STEOM-CCSD   
  Vijay G. Chilkuri      : MRCI spin determinant printing, contributions to CSF-ICE 
  Pauline Colinet        : FMM embedding                                 
  Dipayan Datta          : RHF DLPNO-CCSD density                        
  Achintya Kumar Dutta   : EOM-CC, STEOM-CC                              
  Nicolas Foglia         : Exact transition moments, OPA infrastructure, MCD improvements    
  Dmitry Ganyushin       : Spin-Orbit,Spin-Spin,Magnetic field MRCI      
  Miquel Garcia-Rates    : C-PCM and meta-GGA Hessian, CCSD/C-PCM, Gaussian charge scheme 
  Tiago L. C. Gouveia    : GS-ROHF, GS-ROCIS                             
  Yang Guo               : DLPNO-NEVPT2, F12-NEVPT2, CIM, IAO-localization        
  Andreas Hansen         : Spin unrestricted coupled pair/coupled cluster methods 
  Ingolf Harden          : AUTO-CI MPn and infrastructure                
  Benjamin Helmich-Paris : MC-RPA, TRAH-(SCF,CASSCF), AVAS, COSX integrals, SCF dyn. polar. 
  Lee Huntington         : MR-EOM, pCC                                   
  Robert Izsak           : Overlap fitted RIJCOSX, COSX-SCS-MP3, EOM     
  Riya Kayal             : Wick's Theorem for AUTO-CI, AUTO-CI UHF-CCSDT 
  Emily Kempfer          : AUTO-CI, RHF CISDT and CCSDT                  
  Christian Kollmar      : KDIIS, OOCD, Brueckner-CCSD(T), CCSD density, CASPT2, CASPT2-K, improved NEVPT2 
  Axel Koslowski         : Symmetry handling                             
  Simone Kossmann        : meta-GGA functionals, TD-DFT gradient, OOMP2, (MP2 Hessian; deprecated post 5.0) 
  Lucas Lang             : DCDCAS                                        
  Marvin Lechner         : AUTO-CI (C++ implementation), FIC-MRCC        
  Spencer Leger          : CASSCF response                               
  Dagmar Lenk            : GEPOL surface, SMD, ORCA-2-JSON               
  Dimitrios Liakos       : Extrapolation schemes; Compound Job, initial MDCI parallelization 
  Dimitrios Manganas     : Further ROCIS development; embedding schemes. LFT, Crystal Embedding 
  Dimitrios Pantazis     : SARC Basis sets                               
  Anastasios Papadopoulos: AUTO-CI, single reference methods and gradients 
  Taras Petrenko         : pre 6.0 DFT Hessian and TD-DFT gradient, (ASA, deprecated), ECA, 1-Electron XAS/XES, NRVS 
  Peter Pinski           : DLPNO-MP2, DLPNO-MP2 Gradient                 
  Christoph Reimann      : Effective Core Potentials                     
  Marius Retegan         : Local ZFS, SOC                                
  Christoph Riplinger    : Optimizer, TS searches, QM/MM, DLPNO-CCSD(T), (RO)-DLPNO pert. Triples 
  Michael Roemelt        : Original ROCIS implementation                 
  Masaaki Saitow         : Open-shell DLPNO-CCSD energy and density      
  Barbara Sandhoefer     : DKH picture change effects                    
  Kantharuban Sivalingam : CASSCF convergence/infrastructure, NEVPT2 and variants, FIC-MRCI 
  Bernardo de Souza      : ESD, SOC TD-DFT                               
  Georgi L. Stoychev     : AutoAux, RI-MP2 NMR, DLPNO-MP2 response, X2C  
  Van Anh Tran           : RI-MP2 g-tensors                              
  Willem Van den Heuvel  : Paramagnetic NMR                              
  Zikuan Wang            : NOTCH, Electric field optimization            
  Frank Wennmohs         : Technical directorship and infrastructure     
  Hang Xu                : AUTO-CI-Response properties                   
                                                                         
[FACCTs GmbH]                                                            
  Markus Bursch, Miquel Garcia-Rates, Christoph Riplinger, Bernardo de Souza, Georgi L. Stoychev 
                                                                 
  APM, Basis sets (HGBS, AHGBS, def-TZVP (Ac-Lr), def2-XVPD (La-Lu)), CI-OPT, improved COSX, DLPNO-Multilevel,           
  DOCKER, DRACO, updates on ESD, GOAT, IRC, LR-CPCM, MBIS, meta-GGA TD-DFT gradient, ML-optimized integration grids, 
  MM, NACMEs, nearIR, NEB, NEB-TS, NL-DFT gradient (VV10), 2- and 3-layer-ONIOM, interface openCOSMO-RS, QMMM,   
  Crystal-QMMM, SF, symmetry and pop. for TD-DFT, r2SCAN hybrids, SOLVATOR                                   
                                                                         
[Other institutions]                                                     
  V. Asgeirsson          : NEB                                           
  Christoph Bannwarth    : sTDA-DFT, sTD-DFT, PBEh-3c, B97-3c, D3        
  Sebastian Ehlert       : rSCAN, r2SCAN, r2SCAN-3c, D4, dhf basis sets  
  Marvin Friede          : D4 for Fr, Ra, Ac-Lr                          
  Lars Goerigk           : TD-DFT with DH, B97 family of functionals     
  Stefan Grimme          : VdW corrections, initial TS optimization, DFT functionals, gCP, sTDA/sTD-DF 
  Waldemar Hujo          : DFT-NL                                        
  H. Jonsson             : NEB                                           
  Holger Kruse           : gCP                                           
  Marcel Mueller         : wB97X-3c, vDZP basis set                      
  Hagen Neugebauer       : wr2SCAN                                       
  Tobias Risthaus        : range-separated hybrid DFT                    
  Lukas Wittmann         : regularized MP2, r2SCAN double-hybrids, wr2SCAN        
                                                                         
We gratefully acknowledge several colleagues who have allowed us to      
interface, adapt or use parts of their codes:                            
  Ed Valeev, F. Pavosevic, A. Kumar             : LibInt (2-el integral package), F12 methods 
  Garnet Chan, S. Sharma, J. Yang, R. Olivares  : DMRG                   
  Ulf Ekstrom                                   : XCFun DFT Library      
  Mihaly Kallay                                 : mrcc  (arbitrary order and MRCC methods)
  Frank Weinhold                                : gennbo (NPA and NBO analysis)           
  Simon Mueller                                 : openCOSMO-RS                            
  Christopher J. Cramer and Donald G. Truhlar   : smd solvation model                     
  S Lehtola, MJT Oliveira, MAL Marques          : LibXC Library                           
  Liviu Ungur et al                             : ANISO software                          


 Your calculation uses the libint2 library for the computation of 2-el integrals
 For citations please refer to: http://libint.valeyev.net

 Your ORCA version has been built with support for libXC version: 6.2.2
 For citations please refer to: https://libxc.gitlab.io

 This ORCA versions uses:
   CBLAS   interface :  Fast vector & matrix operations
   LAPACKE interface :  Fast linear algebra routines
   SCALAPACK package :  Parallel linear algebra routines
   Shared memory     :  Shared parallel matrices
   BLAS/LAPACK       :  OpenBLAS 0.3.27  USE64BITINT DYNAMIC_ARCH NO_AFFINITY SkylakeX SINGLE_THREADED
        Core in use  :  SkylakeX
   Copyright (c) 2011-2014, The OpenBLAS Project


Your calculation utilizes the atom-pairwise dispersion correction
based on EEQ partial charges (D4)


================================================================================

cite the ECPs for C  [vDZP-ECP] as follows:
   B-Ne (ecp-2-mwb), Al-Ar (ecp-10-mwb), Ga-Kr (ecp-28-mwb), Y-Cd (ecp-28-mwb), In-Xe (ecp-46-mwb):
     A. Bergner, M. Dolg, W. Küchle, H. Stoll, and H. Preuß, Mol. Phys. 80, 1431 (1993)., T. Leininger, A. Berning, A. Nicklass, H. Stoll, H.-J. Werner, and H.-J.Flad, Chem. Phys. 217, 19 (1997).
   Na-Mg, K-Ca, Rb-Sr, Cs-Ba (CRENBL):
     L. Fernandez Pacios and P. A. Christiansen, J. Chem. Phys. 82, 2664 (1985)., M. M. Hurley, L. F. Pacios, P. A. Christiansen, R. B. Ross, and W. C. Ermler, J. Chem. Phys. 84, 6840 (1986)., L. A. LaJohn, P. A. Christiansen, R. B. Ross, T. Atashroo, and W. C. Ermler, J. Chem. Phys. 87, 2812 (1987)., R. B. Ross, J. M. Powers, T. Atashroo, W. C. Ermler, L. A. LaJohn, and P. A. Christiansen, J. Chem. Phys. 93, 6654 (1990). 
   Sc-Zn (ecp-10-mdf):
     M. Dolg, U. Wedig, H. Stoll, and H. Preuss, J. Chem. Phys. 86, 866 (1986). 
   Y-Cd (ecp-28-mwb), Hf-Hg (ecp-60-mwb):
     D. Andrae, U. Häußermann, M. Dolg, H. Stoll, and H. Preuß, Theor. Chim. Acta 77, 123 (1990). 
   La (ecp-46-mwb):
     M. Dolg, H. Stoll, and H. Preuss, J. Chem. Phys. 90, 1730 (1989)., M. Dolg, H. Stoll, and H. Preuss, Theor. Chim. Acta 85, 441 (1993).
   Ce-Lu (SBKJC-ecp):
     T. R. Cundari and W. J. Stevens, J. Chem. Phys. 98, 5555 (1993).
   Tl-Rn (ecp-78-mwb):
     W. Küchle, M. Dolg, H. Stoll, and H. Preuss, Mol. Phys. 74, 1245 (1991).

ECP parameters for C  [vDZP-ECP] have been obtained from:
MM, AH, SG, J. Chem. Phys. 158, 014103 (2023), 10.1063/5.0133026

----- Orbital basis set information -----
Your calculation utilizes the basis: vDZP
   Marcel Mueller, Andreas Hansen, Stefan Grimme 
   J. Chem. Phys. 158, 014103 (2023). DOI: 10.1063/5.0133026

----- AuxJ basis set information -----
Your calculation utilizes the auxiliary basis: def2/J
   F. Weigend, Phys. Chem. Chem. Phys. 8, 1057 (2006).

================================================================================
                                        WARNINGS
                       Please study these warnings very carefully!
================================================================================

WARNING: Frozen-Core approximation turned on, but there are no core electrons.
  ===> : Turning off frozen-core approximation


WARNING: Geometry Optimization
  ===> : Switching off AutoStart
         For restart on a previous wavefunction, please use MOREAD

================================================================================
                                       INPUT FILE
================================================================================
NAME = ./output/p_cymene/p_cymene.inp
|  1> ! wB97X-3c OPT FREQ TightSCF
|  2> %pal
|  3>   nprocs 40
|  4> end
|  5> * xyz 0 1
|  6> C      3.832881     0.097376    -0.039766
|  7> C      2.333597     0.056604    -0.061004
|  8> C      1.598986     0.493909     1.050256
|  9> C      0.203117     0.422108     1.046370
| 10> C     -0.482374    -0.101056    -0.066405
| 11> C      0.260837    -0.555341    -1.169876
| 12> C      1.656839    -0.482751    -1.164201
| 13> C     -1.997134    -0.186785    -0.084582
| 14> C     -2.631116     1.205401     0.019986
| 15> C     -2.511274    -1.111949     1.024728
| 16> H      4.236060     0.223231    -1.067228
| 17> H      4.221774    -0.849969     0.388415
| 18> H      4.193033     0.948535     0.576586
| 19> H      2.106682     0.891458     1.920491
| 20> H     -0.340403     0.771967     1.914356
| 21> H     -0.238387    -0.970419    -2.036548
| 22> H      2.209799    -0.847001    -2.021336
| 23> H     -2.331421    -0.623292    -1.052409
| 24> H     -3.733909     1.129959    -0.091330
| 25> H     -2.407440     1.675619     1.001006
| 26> H     -2.244919     1.861157    -0.789540
| 27> H     -3.611772    -1.235872     0.936522
| 28> H     -2.282543    -0.698552     2.029898
| 29> H     -2.040912    -2.114335     0.932633
| 30> *
| 31> 
| 32>                          ****END OF INPUT****
================================================================================

                       *****************************
                       * Geometry Optimization Run *
                       *****************************

Geometry optimization settings:
Update method            Update   .... BFGS
Choice of coordinates    CoordSys .... (2022) Redundant Internals
Initial Hessian          InHess   .... Almloef's Model
Max. no of cycles        MaxIter  .... 72

Convergence Tolerances:
Energy Change            TolE     ....  5.0000e-06 Eh
Max. Gradient            TolMAXG  ....  3.0000e-04 Eh/bohr
RMS Gradient             TolRMSG  ....  1.0000e-04 Eh/bohr
Max. Displacement        TolMAXD  ....  4.0000e-03 bohr
RMS Displacement         TolRMSD  ....  2.0000e-03 bohr
Strict Convergence                .... False

------------------------------------------------------------------------------
                        ORCA OPTIMIZATION COORDINATE SETUP
------------------------------------------------------------------------------

The optimization will be done in redundant internal coordinates (2022)
Making redundant internal coordinates   ...  (2022 redundants) done
Evaluating the initial hessian          ...  (Almloef) done
Evaluating the coordinates              ...  done
Calculating the B-matrix                .... done
Calculating the G-matrix                .... done
Diagonalizing the G-matrix              .... done
Small eigenvalue found = 2.341e-02
Small eigenvalue found = 2.592e-02
The first mode is                       ....   46
The number of degrees of freedom        ....   66

    -----------------------------------------------------------------
                    Redundant Internal Coordinates


    -----------------------------------------------------------------
         Definition                    Initial Value    Approx d2E/dq
    -----------------------------------------------------------------
      1. B(C   1,C   0)                  1.5000         0.417118   
      2. B(C   2,C   1)                  1.4021         0.597708   
      3. B(C   3,C   2)                  1.3977         0.607326   
      4. B(C   4,C   3)                  1.4078         0.585274   
      5. B(C   5,C   4)                  1.4058         0.589477   
      6. B(C   6,C   1)                  1.4021         0.597581   
      7. B(C   6,C   5)                  1.3979         0.606925   
      8. B(C   7,C   4)                  1.5173         0.391427   
      9. B(C   8,C   7)                  1.5333         0.369055   
     10. B(C   9,C   7)                  1.5332         0.369149   
     11. B(H  10,C   0)                  1.1109         0.333502   
     12. B(H  11,C   0)                  1.1100         0.334625   
     13. B(H  12,C   0)                  1.1109         0.333502   
     14. B(H  13,C   2)                  1.0831         0.369342   
     15. B(H  14,C   3)                  1.0822         0.370531   
     16. B(H  15,C   5)                  1.0829         0.369640   
     17. B(H  16,C   6)                  1.0831         0.369333   
     18. B(H  17,C   7)                  1.1131         0.330811   
     19. B(H  18,C   8)                  1.1110         0.333412   
     20. B(H  19,C   8)                  1.1106         0.333797   
     21. B(H  20,C   8)                  1.1111         0.333268   
     22. B(H  21,C   9)                  1.1110         0.333413   
     23. B(H  22,C   9)                  1.1107         0.333772   
     24. B(H  23,C   9)                  1.1111         0.333266   
     25. A(H  10,C   0,H  12)          107.9805         0.283949   
     26. A(H  10,C   0,H  11)          109.0458         0.284097   
     27. A(H  11,C   0,H  12)          109.0456         0.284097   
     28. A(C   1,C   0,H  12)          110.6545         0.326111   
     29. A(C   1,C   0,H  10)          110.6555         0.326111   
     30. A(C   1,C   0,H  11)          109.4182         0.326291   
     31. A(C   0,C   1,C   6)          120.2674         0.401840   
     32. A(C   2,C   1,C   6)          119.3865         0.428377   
     33. A(C   0,C   1,C   2)          120.2652         0.401855   
     34. A(C   1,C   2,H  13)          120.3780         0.352236   
     35. A(C   1,C   2,C   3)          120.3333         0.429622   
     36. A(C   3,C   2,H  13)          119.2887         0.353189   
     37. A(C   2,C   3,C   4)          120.5022         0.428005   
     38. A(C   4,C   3,H  14)          120.6341         0.351177   
     39. A(C   2,C   3,H  14)          118.8633         0.353381   
     40. A(C   5,C   4,C   7)          120.0077         0.396419   
     41. A(C   3,C   4,C   5)          118.8881         0.425724   
     42. A(C   3,C   4,C   7)          121.1032         0.395922   
     43. A(C   4,C   5,C   6)          120.5291         0.428504   
     44. A(C   4,C   5,H  15)          120.5536         0.351459   
     45. A(C   6,C   5,H  15)          118.9170         0.353198   
     46. A(C   5,C   6,H  16)          119.2855         0.353148   
     47. A(C   1,C   6,H  16)          120.3711         0.352222   
     48. A(C   1,C   6,C   5)          120.3434         0.429555   
     49. A(C   9,C   7,H  17)          106.9626         0.319222   
     50. A(C   8,C   7,H  17)          106.9289         0.319208   
     51. A(C   4,C   7,H  17)          109.4142         0.322295   
     52. A(C   8,C   7,C   9)          111.0925         0.361860   
     53. A(C   4,C   7,C   9)          111.1121         0.365519   
     54. A(C   4,C   7,C   8)          111.1410         0.365503   
     55. A(C   7,C   8,H  18)          109.9952         0.319617   
     56. A(H  19,C   8,H  20)          108.8858         0.283957   
     57. A(H  18,C   8,H  20)          108.1862         0.283906   
     58. A(C   7,C   8,H  20)          110.0274         0.319594   
     59. A(H  18,C   8,H  19)          108.4916         0.283976   
     60. A(C   7,C   8,H  19)          111.1846         0.319677   
     61. A(H  22,C   9,H  23)          108.8824         0.283953   
     62. A(H  21,C   9,H  23)          108.1880         0.283906   
     63. A(C   7,C   9,H  23)          110.0260         0.319607   
     64. A(H  21,C   9,H  22)          108.5042         0.283973   
     65. A(C   7,C   9,H  22)          111.1699         0.319686   
     66. A(C   7,C   9,H  21)          110.0008         0.319630   
     67. D(C   6,C   1,C   0,H  11)    -88.3638         0.012871   
     68. D(C   2,C   1,C   0,H  10)   -151.4791         0.012871   
     69. D(C   2,C   1,C   0,H  12)    -31.8312         0.012871   
     70. D(C   2,C   1,C   0,H  11)     88.3444         0.012871   
     71. D(C   6,C   1,C   0,H  10)     31.8127         0.012871   
     72. D(C   3,C   2,C   1,C   0)   -178.2269         0.024618   
     73. D(H  13,C   2,C   1,C   6)    178.5482         0.024618   
     74. D(H  13,C   2,C   1,C   0)      1.8110         0.024618   
     75. D(C   3,C   2,C   1,C   6)     -1.4897         0.024618   
     76. D(H  14,C   3,C   2,H  13)      0.3383         0.025461   
     77. D(H  14,C   3,C   2,C   1)   -179.6242         0.025461   
     78. D(C   4,C   3,C   2,H  13)   -179.4363         0.025461   
     79. D(C   4,C   3,C   2,C   1)      0.6012         0.025461   
     80. D(C   5,C   4,C   3,H  14)   -179.4747         0.023554   
     81. D(C   5,C   4,C   3,C   2)      0.2959         0.023554   
     82. D(C   7,C   4,C   3,H  14)      0.1616         0.023554   
     83. D(C   7,C   4,C   3,C   2)    179.9322         0.023554   
     84. D(H  15,C   5,C   4,C   7)     -0.1563         0.023911   
     85. D(H  15,C   5,C   4,C   3)    179.4841         0.023911   
     86. D(C   6,C   5,C   4,C   7)   -179.9360         0.023911   
     87. D(C   6,C   5,C   4,C   3)     -0.2956         0.023911   
     88. D(H  16,C   6,C   5,H  15)     -0.3454         0.025426   
     89. D(H  16,C   6,C   5,C   4)    179.4379         0.025426   
     90. D(C   1,C   6,C   5,H  15)    179.6150         0.025426   
     91. D(C   1,C   6,C   5,C   4)     -0.6018         0.025426   
     92. D(H  16,C   6,C   1,C   2)   -178.5498         0.024607   
     93. D(H  16,C   6,C   1,C   0)     -1.8127         0.024607   
     94. D(C   5,C   6,C   1,C   2)      1.4903         0.024607   
     95. D(C   5,C   6,C   1,C   0)    178.2274         0.024607   
     96. D(C   8,C   7,C   4,C   5)   -118.4799         0.011395   
     97. D(C   8,C   7,C   4,C   3)     61.8878         0.011395   
     98. D(H  17,C   7,C   4,C   3)    179.7471         0.011395   
     99. D(C   9,C   7,C   4,C   5)    117.2627         0.011395   
    100. D(C   9,C   7,C   4,C   3)    -62.3696         0.011395   
    101. D(H  19,C   8,C   7,H  17)    175.5254         0.010891   
    102. D(H  19,C   8,C   7,C   9)     59.1491         0.010891   
    103. D(H  19,C   8,C   7,C   4)    -65.1194         0.010891   
    104. D(H  18,C   8,C   7,H  17)     55.3270         0.010891   
    105. D(H  18,C   8,C   7,C   9)    -61.0494         0.010891   
    106. D(H  18,C   8,C   7,C   4)    174.6821         0.010891   
    107. D(H  22,C   9,C   7,H  17)   -175.6334         0.010897   
    108. D(H  22,C   9,C   7,C   8)    -59.2778         0.010897   
    109. D(H  22,C   9,C   7,C   4)     65.0071         0.010897   
    110. D(H  21,C   9,C   7,H  17)    -55.4249         0.010897   
    111. D(H  21,C   9,C   7,C   8)     60.9307         0.010897   
    112. D(H  21,C   9,C   7,C   4)   -174.7845         0.010897   
    -----------------------------------------------------------------

Number of atoms                         .... 24
Number of degrees of freedom            .... 112


         *************************************************************
         *                GEOMETRY OPTIMIZATION CYCLE   1            *
         *************************************************************
---------------------------------
CARTESIAN COORDINATES (ANGSTROEM)
---------------------------------
  C      3.832881    0.097376   -0.039766
  C      2.333597    0.056604   -0.061004
  C      1.598986    0.493909    1.050256
  C      0.203117    0.422108    1.046370
  C     -0.482374   -0.101056   -0.066405
  C      0.260837   -0.555341   -1.169876
  C      1.656839   -0.482751   -1.164201
  C     -1.997134   -0.186785   -0.084582
  C     -2.631116    1.205401    0.019986
  C     -2.511274   -1.111949    1.024728
  H      4.236060    0.223231   -1.067228
  H      4.221774   -0.849969    0.388415
  H      4.193033    0.948535    0.576586
  H      2.106682    0.891458    1.920491
  H     -0.340403    0.771967    1.914356
  H     -0.238387   -0.970419   -2.036548
  H      2.209799   -0.847001   -2.021336
  H     -2.331421   -0.623292   -1.052409
  H     -3.733909    1.129959   -0.091330
  H     -2.407440    1.675619    1.001006
  H     -2.244919    1.861157   -0.789540
  H     -3.611772   -1.235872    0.936522
  H     -2.282543   -0.698552    2.029898
  H     -2.040912   -2.114335    0.932633

----------------------------
CARTESIAN COORDINATES (A.U.)
----------------------------
  NO LB      ZA    FRAG     MASS         X           Y           Z
   0 C     4.0000*   0    12.011    7.243095    0.184014   -0.075147
   1 C     4.0000*   0    12.011    4.409859    0.106966   -0.115281
   2 C     4.0000*   0    12.011    3.021646    0.933353    1.984696
   3 C     4.0000*   0    12.011    0.383836    0.797669    1.977353
   4 C     4.0000*   0    12.011   -0.911555   -0.190968   -0.125487
   5 C     4.0000*   0    12.011    0.492910   -1.049442   -2.210745
   6 C     4.0000*   0    12.011    3.130972   -0.912267   -2.200021
   7 C     4.0000*   0    12.011   -3.774036   -0.352972   -0.159837
   8 C     4.0000*   0    12.011   -4.972089    2.277878    0.037768
   9 C     4.0000*   0    12.011   -4.745620   -2.101279    1.936455
  10 H     1.0000    0     1.008    8.004993    0.421845   -2.016769
  11 H     1.0000    0     1.008    7.977997   -1.606209    0.733998
  12 H     1.0000    0     1.008    7.923684    1.792471    1.089590
  13 H     1.0000    0     1.008    3.981052    1.684611    3.629202
  14 H     1.0000    0     1.008   -0.643268    1.458806    3.617609
  15 H     1.0000    0     1.008   -0.450486   -1.833826   -3.848518
  16 H     1.0000    0     1.008    4.175915   -1.600600   -3.819771
  17 H     1.0000    0     1.008   -4.405747   -1.177851   -1.988765
  18 H     1.0000    0     1.008   -7.056065    2.135313   -0.172589
  19 H     1.0000    0     1.008   -4.549402    3.166461    1.891627
  20 H     1.0000    0     1.008   -4.242282    3.517077   -1.492014
  21 H     1.0000    0     1.008   -6.825260   -2.335460    1.769770
  22 H     1.0000    0     1.008   -4.313381   -1.320072    3.835951
  23 H     1.0000    0     1.008   -3.856765   -3.995514    1.762421
* core charge reduced due to ECP

--------------------------------
INTERNAL COORDINATES (ANGSTROEM)
--------------------------------
 C      0   0   0     0.000000000000     0.00000000     0.00000000
 C      1   0   0     1.499988640385     0.00000000     0.00000000
 C      2   1   0     1.402065537679   120.26519007     0.00000000
 C      3   2   1     1.397719839509   120.33330168   181.77311830
 C      4   3   2     1.407787868467   120.50215873     0.60118217
 C      5   4   3     1.405839855598   118.88810084     0.29590098
 C      6   5   4     1.397899530628   120.52908025   359.70440984
 C      5   4   3     1.517292892744   121.10321700   179.93219112
 C      8   5   4     1.533313243125   111.14097060    61.88781949
 C      8   5   4     1.533243960561   111.11211034   297.63042279
 H      1   2   3     1.110887459876   110.65546553   208.52091520
 H      1   2   3     1.109972649769   109.41821192    88.34443441
 H      1   2   3     1.110887435472   110.65450044   328.16879603
 H      3   2   1     1.083101745471   120.37795017     1.81102759
 H      4   3   2     1.082226873847   118.86333498   180.37582371
 H      6   5   4     1.082882590055   120.55358898   179.48408477
 H      7   6   5     1.083108135102   119.28549544   179.43786701
 H      8   5   4     1.113092656227   109.41421731   179.74707988
 H      9   8   5     1.110961362095   109.99522898   174.68213970
 H      9   8   5     1.110646730919   111.18455932   294.88062127
 H      9   8   5     1.111078934649   110.02739548    55.59490904
 H     10   8   5     1.110960420703   110.00083558   185.21553118
 H     10   8   5     1.110667222380   111.16991532    65.00707116
 H     10   8   5     1.111080372010   110.02601243   304.30757876

---------------------------
INTERNAL COORDINATES (A.U.)
---------------------------
 C      0   0   0     0.000000000000     0.00000000     0.00000000
 C      1   0   0     2.834567734321     0.00000000     0.00000000
 C      2   1   0     2.649519888022   120.26519007     0.00000000
 C      3   2   1     2.641307708621   120.33330168   181.77311830
 C      4   3   2     2.660333526059   120.50215873     0.60118217
 C      5   4   3     2.656652315231   118.88810084     0.29590098
 C      6   5   4     2.641647275623   120.52908025   359.70440984
 C      5   4   3     2.867268032230   121.10321700   179.93219112
 C      8   5   4     2.897542107022   111.14097060    61.88781949
 C      8   5   4     2.897411181949   111.11211034   297.63042279
 H      1   2   3     2.099273064773   110.65546553   208.52091520
 H      1   2   3     2.097544324206   109.41821192    88.34443441
 H      1   2   3     2.099273018656   110.65450044   328.16879603
 H      3   2   1     2.046765674112   120.37795017     1.81102759
 H      4   3   2     2.045112406341   118.86333498   180.37582371
 H      6   5   4     2.046351530395   120.55358898   179.48408477
 H      7   6   5     2.046777748766   119.28549544   179.43786701
 H      8   5   4     2.103440281948   109.41421731   179.74707988
 H      9   8   5     2.099412719729   109.99522898   174.68213970
 H      9   8   5     2.098818152971   111.18455932   294.88062127
 H      9   8   5     2.099634899656   110.02739548    55.59490904
 H     10   8   5     2.099410940755   110.00083558   185.21553118
 H     10   8   5     2.098856876222   111.16991532    65.00707116
 H     10   8   5     2.099637615873   110.02601243   304.30757876

---------------------
BASIS SET INFORMATION
---------------------
There are 2 groups of distinct atoms

 Group   1 Type C   : 6s6p2d contracted to 2s2p1d pattern {42/42/2}
 Group   2 Type H   : 8s2p contracted to 2s1p pattern {53/2}

Atom   0C    basis set group =>   1
Atom   1C    basis set group =>   1
Atom   2C    basis set group =>   1
Atom   3C    basis set group =>   1
Atom   4C    basis set group =>   1
Atom   5C    basis set group =>   1
Atom   6C    basis set group =>   1
Atom   7C    basis set group =>   1
Atom   8C    basis set group =>   1
Atom   9C    basis set group =>   1
Atom  10H    basis set group =>   2
Atom  11H    basis set group =>   2
Atom  12H    basis set group =>   2
Atom  13H    basis set group =>   2
Atom  14H    basis set group =>   2
Atom  15H    basis set group =>   2
Atom  16H    basis set group =>   2
Atom  17H    basis set group =>   2
Atom  18H    basis set group =>   2
Atom  19H    basis set group =>   2
Atom  20H    basis set group =>   2
Atom  21H    basis set group =>   2
Atom  22H    basis set group =>   2
Atom  23H    basis set group =>   2
---------------------------------
AUXILIARY/J BASIS SET INFORMATION
---------------------------------
There are 2 groups of distinct atoms

 Group   1 Type C   : 12s5p4d2f1g contracted to 6s4p3d1f1g pattern {711111/2111/211/2/1}
 Group   2 Type H   : 5s2p1d contracted to 3s1p1d pattern {311/2/1}

Atom   0C    basis set group =>   1
Atom   1C    basis set group =>   1
Atom   2C    basis set group =>   1
Atom   3C    basis set group =>   1
Atom   4C    basis set group =>   1
Atom   5C    basis set group =>   1
Atom   6C    basis set group =>   1
Atom   7C    basis set group =>   1
Atom   8C    basis set group =>   1
Atom   9C    basis set group =>   1
Atom  10H    basis set group =>   2
Atom  11H    basis set group =>   2
Atom  12H    basis set group =>   2
Atom  13H    basis set group =>   2
Atom  14H    basis set group =>   2
Atom  15H    basis set group =>   2
Atom  16H    basis set group =>   2
Atom  17H    basis set group =>   2
Atom  18H    basis set group =>   2
Atom  19H    basis set group =>   2
Atom  20H    basis set group =>   2
Atom  21H    basis set group =>   2
Atom  22H    basis set group =>   2
Atom  23H    basis set group =>   2
-------------------------
ECP PARAMETER INFORMATION
-------------------------

 Group 1, Type C  ECP vDZP-ECP (replacing 2 core electrons, lmax=3)

Atom   0C    ECP group =>   1
Atom   1C    ECP group =>   1
Atom   2C    ECP group =>   1
Atom   3C    ECP group =>   1
Atom   4C    ECP group =>   1
Atom   5C    ECP group =>   1
Atom   6C    ECP group =>   1
Atom   7C    ECP group =>   1
Atom   8C    ECP group =>   1
Atom   9C    ECP group =>   1



           ************************************************************
           *        Program running with 40 parallel MPI-processes    *
           *              working on a common directory               *
           ************************************************************
------------------------------------------------------------------------------
                             ORCA STARTUP CALCULATIONS
                           -- RI-GTO INTEGRALS CHOSEN --
------------------------------------------------------------------------------
------------------------------------------------------------------------------
                   ___                                                        
                  /   \      - P O W E R E D   B Y -                         
                 /     \                                                     
                 |  |  |   _    _      __       _____    __    __             
                 |  |  |  | |  | |    /  \     |  _  \  |  |  /  |          
                  \  \/   | |  | |   /    \    | | | |  |  | /  /          
                 / \  \   | |__| |  /  /\  \   | |_| |  |  |/  /          
                |  |  |   |  __  | /  /__\  \  |    /   |      \           
                |  |  |   | |  | | |   __   |  |    \   |  |\   \          
                \     /   | |  | | |  |  |  |  | |\  \  |  | \   \       
                 \___/    |_|  |_| |__|  |__|  |_| \__\ |__|  \__/        
                                                                              
                      - O R C A' S   B I G   F R I E N D -                    
                                      &                                       
                       - I N T E G R A L  F E E D E R -                       
                                                                              
 v1 FN, 2020, v2 2021, v3 2022-2024                                           
------------------------------------------------------------------------------


----------------------
SHARK INTEGRAL PACKAGE
----------------------

Number of atoms                             ...     24
Number of basis functions                   ...    200
Number of shells                            ...     92
Maximum angular momentum                    ...      2
Integral batch strategy                     ... SHARK/LIBINT Hybrid
RI-J (if used) integral strategy            ... SPLIT-RIJ (Revised 2003 algorithm where possible)
Printlevel                                  ...      1
Contraction scheme used                     ... SEGMENTED contraction
Prescreening option                         ... SCHWARTZ
   Thresh                                   ... 2.500e-11
   Tcut                                     ... 2.500e-12
   Tpresel                                  ... 2.500e-12 
Coulomb Range Separation                    ... NOT USED
Exchange Range Separation                   ... Long Range
   Mu parameter                             ... 3.000e-01
   Scaling (regular/separated)              ... 1.670e-01 8.330e-01
Multipole approximations                    ... NOT USED
Finite Nucleus Model                        ... NOT USED
CABS basis                                  ... NOT available
Auxiliary Coulomb fitting basis             ... AVAILABLE
   # of basis functions in Aux-J            ...    644
   # of shells in Aux-J                     ...    220
   Maximum angular momentum in Aux-J        ...      4
Auxiliary J/K fitting basis                 ... NOT available
Auxiliary Correlation fitting basis         ... NOT available
Auxiliary 'external' fitting basis          ... NOT available

Checking pre-screening integrals            ... done (  0.0 sec) Dimension = 92
Check shell pair data                       ... done (  0.0 sec)
Shell pair information
Shell pair cut-off parameter TPreSel        ...   2.5e-12
Total number of shell pairs                 ...      4278
Shell pairs after pre-screening             ...      4251
Total number of primitive shell pairs       ...     39686
Primitive shell pairs kept                  ...     31711
          la=0 lb=0:   1171 shell pairs
          la=1 lb=0:   1618 shell pairs
          la=1 lb=1:    587 shell pairs
          la=2 lb=0:    480 shell pairs
          la=2 lb=1:    340 shell pairs
          la=2 lb=2:     55 shell pairs

Calculating one electron integrals          ... done (  0.0 sec)
Calculating ECP integrals                   ... done (  0.1 sec)
Calculating RI/J V-Matrix + Cholesky decomp.... done (  0.0 sec)
Calculating Nuclear repulsion               ... done (  0.0 sec) ENN=    264.526105551404 Eh

Diagonalization of the overlap matrix:
Smallest eigenvalue                        ... 3.928e-04
Time for diagonalization                   ...    0.006 sec
Threshold for overlap eigenvalues          ... 1.000e-07
Number of eigenvalues below threshold      ... 0
Time for construction of square roots      ...    0.004 sec
Total time needed                          ...    0.012 sec

-------------------
DFT GRID GENERATION
-------------------

General Integration Accuracy     IntAcc      ... 4.388
Radial Grid Type                 RadialGrid  ... OptM3 with GC (2021)
Angular Grid (max. ang.)         AngularGrid ... 4 (Lebedev-302)
Angular grid pruning method      GridPruning ... 4 (adaptive)
Weight generation scheme         WeightScheme... mBecke (2022)
Basis function cutoff            BFCut       ... 1.0000e-11
Integration weight cutoff        WCut        ... 1.0000e-14
Partially contracted basis set               ... off
Rotationally invariant grid construction     ... off
Angular grids for H and He will be reduced by one unit

Total number of grid points                  ...   104697
Total number of batches                      ...     1649
Average number of points per batch           ...       63
Average number of grid points per atom       ...     4362

--------------------
COSX GRID GENERATION
--------------------

GRIDX 1
-------
General Integration Accuracy     IntAcc      ... 3.816
Radial Grid Type                 RadialGrid  ... OptM3 with GC (2021)
Angular Grid (max. ang.)         AngularGrid ... 1 (Lebedev-50)
Angular grid pruning method      GridPruning ... 4 (adaptive)
Weight generation scheme         WeightScheme... mBecke (2022)
Basis function cutoff            BFCut       ... 1.0000e-11
Integration weight cutoff        WCut        ... 1.0000e-14
Partially contracted basis set               ... on
Rotationally invariant grid construction     ... off
Angular grids for H and He will be reduced by one unit

Total number of grid points                  ...    13405
Total number of batches                      ...      119
Average number of points per batch           ...      112
Average number of grid points per atom       ...      559
UseSFitting                                  ... on

GRIDX 2
-------
General Integration Accuracy     IntAcc      ... 4.020
Radial Grid Type                 RadialGrid  ... OptM3 with GC (2021)
Angular Grid (max. ang.)         AngularGrid ... 2 (Lebedev-110)
Angular grid pruning method      GridPruning ... 4 (adaptive)
Weight generation scheme         WeightScheme... mBecke (2022)
Basis function cutoff            BFCut       ... 1.0000e-11
Integration weight cutoff        WCut        ... 1.0000e-14
Partially contracted basis set               ... on
Rotationally invariant grid construction     ... off
Angular grids for H and He will be reduced by one unit

Total number of grid points                  ...    28263
Total number of batches                      ...      235
Average number of points per batch           ...      120
Average number of grid points per atom       ...     1178
UseSFitting                                  ... on

GRIDX 3
-------
General Integration Accuracy     IntAcc      ... 4.338
Radial Grid Type                 RadialGrid  ... OptM3 with GC (2021)
Angular Grid (max. ang.)         AngularGrid ... 3 (Lebedev-194)
Angular grid pruning method      GridPruning ... 4 (adaptive)
Weight generation scheme         WeightScheme... mBecke (2022)
Basis function cutoff            BFCut       ... 1.0000e-11
Integration weight cutoff        WCut        ... 1.0000e-14
Partially contracted basis set               ... on
Rotationally invariant grid construction     ... off
Angular grids for H and He will be reduced by one unit

Total number of grid points                  ...    61712
Total number of batches                      ...      494
Average number of points per batch           ...      124
Average number of grid points per atom       ...     2571
UseSFitting                                  ... on
Initializing property integral containers    ... done (  0.0 sec)

SHARK setup successfully completed in   3.5 seconds

Maximum memory used throughout the entire STARTUP-calculation: 29.3 MB


           ************************************************************
           *        Program running with 40 parallel MPI-processes    *
           *              working on a common directory               *
           ************************************************************
-------------------------------------------------------------------------------
                                 ORCA GUESS
                   Start orbitals & Density for SCF / CASSCF
-------------------------------------------------------------------------------

------------
SCF SETTINGS
------------
Hamiltonian:
 Density Functional     Method          .... DFT(GTOs)
 Exchange Functional    Exchange        .... WB97X-V
 Correlation Functional Correlation     .... WB97X-V
 Gradients option       PostSCFGGA      .... off
 Hybrid DFT is turned on
   Fraction HF Exchange ScalHFX         ....  0.167000
   Scaling of DF-GGA-X  ScalDFX         ....  0.000000
   Scaling of DF-GGA-C  ScalDFC         ....  1.000000
   Scaling of DF-LDA-C  ScalLDAC        ....  1.000000
   Perturbative correction              ....  0.000000
 Long-range corrected/Screened/Range-Separated Hybrid DFT is turned on
   Amount of maximum screened exact exchange              ....  0.833000
   Range separation parameter mu (erf(mu*r12)/r12)        ....  0.300000
   NL short-range parameter             ....  6.000000
   NL long-range parameter              ....  0.010000
 RI-approximation to the Coulomb term is turned on
   Number of AuxJ basis functions       .... 644
   RIJ-COSX (HFX calculated with COS-X)).... on


General Settings:
 Integral files         IntName         .... ./output/p_cymene/p_cymene
 Hartree-Fock type      HFTyp           .... RHF
 Total Charge           Charge          ....    0
 Multiplicity           Mult            ....    1
 Number of Electrons    NEL             ....   54
 Basis Dimension        Dim             ....  200
 Nuclear Repulsion      ENuc            ....    264.5261055514 Eh

Convergence Acceleration:
 AO-DIIS                CNVDIIS         .... on
   Start iteration      DIISMaxIt       ....    12
   Startup error        DIISStart       ....  0.200000
   # of expansion vecs  DIISMaxEq       ....     5
   Bias factor          DIISBfac        ....   1.050
   Max. coefficient     DIISMaxC        ....  10.000
 MO-DIIS                CNVKDIIS        .... off
 Trust-Rad. Augm. Hess. CNVTRAH         .... auto
   Auto Start mean grad. ratio tolernc. ....  1.125000
   Auto Start start iteration           ....    50
   Auto Start num. interpolation iter.  ....    10
   Max. Number of Micro iterations      ....    24
   Max. Number of Macro iterations      .... Maxiter - #DIIS iter
   Number of Davidson start vectors     ....     2
   Converg. threshold    (grad. norm)   ....   1.000e-05
   Grad. Scal. Fac. for Micro threshold ....   0.100
   Minimum threshold for Micro iter.    ....   1.000e-02
   NR start threshold (gradient norm)   ....   1.000e-04
   Initial trust radius                 ....   0.400
   Minimum AH scaling param. (alpha)    ....   1.000
   Maximum AH scaling param. (alpha)    .... 1000.000
   Quad. conv. algorithm                .... NR
   White noise on init. David. guess    .... on
   Maximum white noise                  ....   0.010
   Pseudo random numbers                .... off
   Inactive MOs                         .... canonical
   Orbital update algorithm             .... Taylor
   Preconditioner                       .... Diag
   Full preconditioner red. dimension   ....   250
 SOSCF                  CNVSOSCF        .... on
   Start iteration      SOSCFMaxIt      ....   150
   Startup grad/error   SOSCFStart      ....  0.003300
   Hessian update       SOSCFHessUp     .... L-BFGS
 Level Shifting         CNVShift        .... on
   Level shift para.    LevelShift      ....    0.2500
   Turn off err/grad.   ShiftErr        ....    0.0010
 Zerner damping         CNVZerner       .... off
 Static damping         CNVDamp         .... on
   Fraction old density DampFac         ....    0.7000
   Max. Damping (<1)    DampMax         ....    0.9800
   Min. Damping (>=0)   DampMin         ....    0.0000
   Turn off err/grad.   DampErr         ....    0.1000

SCF Procedure:
 Maximum # iterations   MaxIter         ....   125
 SCF integral mode      SCFMode         .... Direct
   Integral package                     .... SHARK and LIBINT hybrid scheme
 Reset frequency        DirectResetFreq ....    20
 Integral Threshold     Thresh          ....  2.500e-11 Eh
 Primitive CutOff       TCut            ....  2.500e-12 Eh

Convergence Tolerance:
 Convergence Check Mode ConvCheckMode   .... Total+1el-Energy
 Convergence forced     ConvForced      .... 0
 Energy Change          TolE            ....  1.000e-08 Eh
 1-El. energy change                    ....  1.000e-05 Eh
 Orbital Gradient       TolG            ....  1.000e-05
 Orbital Rotation angle TolX            ....  1.000e-05
 DIIS Error             TolErr          ....  5.000e-07

------------------------------
INITIAL GUESS: MODEL POTENTIAL
------------------------------
Loading Hartree-Fock densities                     ... done
Atomic calculation to generate a density for atom 0 (C  with ECP)
  Multiplicity assumed   :    1
  Atomic configuration   : 1s2 2s2 2p2 
  Number of open shells  : 1
  Command: /home/aspe232/Project/Software/ORCA/6_0_1/build/orca ./output/p_cymene/p_cymene_atom6.inp "" > ./output/p_cymene/p_cymene_atom6.out
Returned from the atomic calculation with res=0
Calculating cut-offs                               ... done
Initializing the effective Hamiltonian             ... done
Setting up the integral package (SHARK)            ... done
Starting the Coulomb interaction                   ... done (   0.0 sec)
Making the grid                                    ... done (   0.7 sec)
Mapping shells                                     ... done
Starting the XC term evaluation                    ... done (   0.1 sec)
  promolecular density results
     # of electrons  =     73.995544175
     EX              =    -36.643300206
     EC              =     -2.955718888
     EX+EC           =    -39.599019094
Transforming the Hamiltonian                       ... done (   0.0 sec)
Diagonalizing the Hamiltonian                      ... done (   0.0 sec)
Back transforming the eigenvectors                 ... done (   0.0 sec)
Now organizing SCF variables                       ... done
                      ------------------
                      INITIAL GUESS DONE (   1.4 sec)
                      ------------------
             **** ENERGY FILE WAS UPDATED (./output/p_cymene/p_cymene.en.tmp) ****
Finished Guess after   1.9 sec
Maximum memory used throughout the entire GUESS-calculation: 18.2 MB


           ************************************************************
           *        Program running with 40 parallel MPI-processes    *
           *              working on a common directory               *
           ************************************************************

-------------------------------------------------------------------------------------------
                                      ORCA LEAN-SCF
                              memory conserving SCF solver
-------------------------------------------------------------------------------------------

----------------------------------------D-I-I-S--------------------------------------------
Iteration    Energy (Eh)           Delta-E    RMSDP     MaxDP     DIISErr   Damp  Time(sec)
-------------------------------------------------------------------------------------------
               ***  Starting incremental Fock matrix formation  ***
    1    -64.9826126592855644     0.00e+00  4.35e-03  7.57e-02  1.86e-01  0.700   3.5
    2    -65.1438445835377138    -1.61e-01  3.23e-03  5.37e-02  1.13e-01  0.700   3.1
                               ***Turning on AO-DIIS***
    3    -65.2305215710541120    -8.67e-02  1.75e-03  3.04e-02  5.95e-02  0.700   3.2
    4    -65.2817230551138437    -5.12e-02  3.78e-03  6.39e-02  3.80e-02  0.000   3.0
    5    -65.3886543889695986    -1.07e-01  2.29e-04  3.54e-03  3.63e-03  0.000   3.0
                              *** Initializing SOSCF ***
---------------------------------------S-O-S-C-F--------------------------------------
Iteration    Energy (Eh)           Delta-E    RMSDP     MaxDP     MaxGrad    Time(sec)
--------------------------------------------------------------------------------------
    6    -65.3888739634521698    -2.20e-04  1.00e-04  1.58e-03  9.38e-04     2.8
               *** Restarting incremental Fock matrix formation ***
    7    -65.3888686922730926     5.27e-06  5.60e-05  1.14e-03  3.45e-04     3.5
    8    -65.3888732467964360    -4.55e-06  2.65e-05  4.55e-04  2.29e-04     3.2
    9    -65.3888750146104485    -1.77e-06  6.60e-06  1.41e-04  6.32e-05     3.4
   10    -65.3888750553030036    -4.07e-08  2.37e-06  6.47e-05  3.27e-05     3.1
   11    -65.3888750642317973    -8.93e-09  7.70e-07  1.81e-05  6.09e-06     2.9
                 **** Energy Check signals convergence ****

               *****************************************************
               *                     SUCCESS                       *
               *           SCF CONVERGED AFTER  11 CYCLES          *
               *****************************************************

Recomputing exchange energy using gridx3       ... done (    3.012 sec)
Old exchange energy                            :    -10.201478403 Eh
New exchange energy                            :    -10.201502827 Eh
Exchange energy change after final integration :     -0.000024424 Eh
Total energy after final integration           :    -65.388899489 Eh
             **** ENERGY FILE WAS UPDATED (./output/p_cymene/p_cymene.en.tmp) ****

----------------
TOTAL SCF ENERGY
----------------

Total Energy       :        -65.38889948860407 Eh           -1779.32241 eV

Components:
Nuclear Repulsion  :        264.52610555140421 Eh            7198.12128 eV
Electronic Energy  :       -329.91498061563601 Eh           -8977.44303 eV
One Electron Energy:       -620.25361279775916 Eh          -16877.95886 eV
Two Electron Energy:        290.33863218212315 Eh            7900.51584 eV

Virial components:
Potential Energy   :       -116.07835234726279 Eh           -3158.65255 eV
Kinetic Energy     :         50.68945285865873 Eh            1379.33014 eV
Virial Ratio       :          2.28999024059172

DFT components:
N(Alpha)           :       27.000019329124 electrons
N(Beta)            :       27.000019329124 electrons
N(Total)           :       54.000038658249 electrons
E(X)               :      -10.384019509123 Eh       
E(C)               :       -2.009798995241 Eh       
E(XC)              :      -12.393818504364 Eh       

---------------
SCF CONVERGENCE
---------------

  Last Energy change         ...    8.9288e-09  Tolerance :   1.0000e-08
  Last MAX-Density change    ...    1.8050e-05  Tolerance :   1.0000e-07
  Last RMS-Density change    ...    7.7038e-07  Tolerance :   5.0000e-09
  Last DIIS Error            ...    9.3811e-04  Tolerance :   5.0000e-07
  Last Orbital Gradient      ...    6.0922e-06  Tolerance :   1.0000e-05
  Last Orbital Rotation      ...    1.7971e-05  Tolerance :   1.0000e-05


----------------
ORBITAL ENERGIES
----------------

  NO   OCC          E(Eh)            E(eV) 
   0   2.0000      -1.000273       -27.2188 
   1   2.0000      -0.946506       -25.7557 
   2   2.0000      -0.889883       -24.2149 
   3   2.0000      -0.880218       -23.9519 
   4   2.0000      -0.812775       -22.1167 
   5   2.0000      -0.810247       -22.0480 
   6   2.0000      -0.738194       -20.0873 
   7   2.0000      -0.721389       -19.6300 
   8   2.0000      -0.682418       -18.5695 
   9   2.0000      -0.613727       -16.7004 
  10   2.0000      -0.585358       -15.9284 
  11   2.0000      -0.569948       -15.5091 
  12   2.0000      -0.545322       -14.8390 
  13   2.0000      -0.537241       -14.6191 
  14   2.0000      -0.535453       -14.5704 
  15   2.0000      -0.529420       -14.4063 
  16   2.0000      -0.522102       -14.2071 
  17   2.0000      -0.493409       -13.4263 
  18   2.0000      -0.489746       -13.3267 
  19   2.0000      -0.471344       -12.8259 
  20   2.0000      -0.460309       -12.5256 
  21   2.0000      -0.450137       -12.2489 
  22   2.0000      -0.438940       -11.9442 
  23   2.0000      -0.428089       -11.6489 
  24   2.0000      -0.421302       -11.4642 
  25   2.0000      -0.344556        -9.3758 
  26   2.0000      -0.322560        -8.7773 
  27   0.0000       0.066372         1.8061 
  28   0.0000       0.071922         1.9571 
  29   0.0000       0.087387         2.3779 
  30   0.0000       0.094049         2.5592 
  31   0.0000       0.099268         2.7012 
  32   0.0000       0.116141         3.1604 
  33   0.0000       0.124265         3.3814 
  34   0.0000       0.124660         3.3922 
  35   0.0000       0.141605         3.8533 
  36   0.0000       0.150060         4.0833 
  37   0.0000       0.154579         4.2063 
*Only the first 10 virtual orbitals were printed.

                    ********************************
                    * MULLIKEN POPULATION ANALYSIS *
                    ********************************

-----------------------
MULLIKEN ATOMIC CHARGES
-----------------------
   0 C :   -0.098391
   1 C :   -0.065015
   2 C :    0.000111
   3 C :    0.003121
   4 C :   -0.053121
   5 C :   -0.004817
   6 C :   -0.002134
   7 C :   -0.112807
   8 C :   -0.068843
   9 C :   -0.068362
  10 H :    0.044574
  11 H :    0.061465
  12 H :    0.044189
  13 H :    0.012760
  14 H :    0.008037
  15 H :    0.012695
  16 H :    0.012310
  17 H :    0.038677
  18 H :    0.034648
  19 H :    0.033211
  20 H :    0.050018
  21 H :    0.034730
  22 H :    0.033290
  23 H :    0.049654
Sum of atomic charges:   -0.0000000

--------------------------------
MULLIKEN REDUCED ORBITAL CHARGES
--------------------------------
  0 C s       :     0.956954  s :     0.956954
      pz      :     1.053680  p :     3.067163
      px      :     0.960452
      py      :     1.053031
      dz2     :     0.012637  d :     0.074274
      dxz     :     0.016126
      dyz     :     0.011538
      dx2y2   :     0.016231
      dxy     :     0.017742

  1 C s       :     1.059057  s :     1.059057
      pz      :     0.993488  p :     2.884672
      px      :     0.928116
      py      :     0.963069
      dz2     :     0.028710  d :     0.121286
      dxz     :     0.033782
      dyz     :     0.016959
      dx2y2   :     0.019228
      dxy     :     0.022608

  2 C s       :     1.004286  s :     1.004286
      pz      :     0.971155  p :     2.902041
      px      :     0.961531
      py      :     0.969355
      dz2     :     0.018920  d :     0.093562
      dxz     :     0.030490
      dyz     :     0.010635
      dx2y2   :     0.012914
      dxy     :     0.020603

  3 C s       :     0.998693  s :     0.998693
      pz      :     0.972700  p :     2.905168
      px      :     0.962799
      py      :     0.969669
      dz2     :     0.018571  d :     0.093018
      dxz     :     0.030947
      dyz     :     0.009702
      dx2y2   :     0.013118
      dxy     :     0.020680

  4 C s       :     1.039051  s :     1.039051
      pz      :     0.994626  p :     2.895817
      px      :     0.930865
      py      :     0.970325
      dz2     :     0.028044  d :     0.118253
      dxz     :     0.032660
      dyz     :     0.016982
      dx2y2   :     0.018858
      dxy     :     0.021709

  5 C s       :     1.004709  s :     1.004709
      pz      :     0.976724  p :     2.906392
      px      :     0.965903
      py      :     0.963765
      dz2     :     0.018736  d :     0.093716
      dxz     :     0.030139
      dyz     :     0.010525
      dx2y2   :     0.013367
      dxy     :     0.020949

  6 C s       :     1.003739  s :     1.003739
      pz      :     0.973556  p :     2.905088
      px      :     0.963144
      py      :     0.968387
      dz2     :     0.018562  d :     0.093307
      dxz     :     0.030884
      dyz     :     0.009743
      dx2y2   :     0.013634
      dxy     :     0.020485

  7 C s       :     1.045439  s :     1.045439
      pz      :     1.026340  p :     2.940584
      px      :     0.946525
      py      :     0.967719
      dz2     :     0.025473  d :     0.126784
      dxz     :     0.018548
      dyz     :     0.025539
      dx2y2   :     0.030564
      dxy     :     0.026659

  8 C s       :     0.966748  s :     0.966748
      pz      :     1.041156  p :     3.027786
      px      :     1.020843
      py      :     0.965787
      dz2     :     0.014127  d :     0.074309
      dxz     :     0.004726
      dyz     :     0.022989
      dx2y2   :     0.021456
      dxy     :     0.011012

  9 C s       :     0.966776  s :     0.966776
      pz      :     0.991063  p :     3.027279
      px      :     1.027284
      py      :     1.008933
      dz2     :     0.023850  d :     0.074307
      dxz     :     0.006839
      dyz     :     0.013023
      dx2y2   :     0.020070
      dxy     :     0.010525

 10 H s       :     0.911580  s :     0.911580
      pz      :     0.021372  p :     0.043846
      px      :     0.011990
      py      :     0.010484

 11 H s       :     0.894801  s :     0.894801
      pz      :     0.011994  p :     0.043734
      px      :     0.011884
      py      :     0.019857

 12 H s       :     0.911960  s :     0.911960
      pz      :     0.014136  p :     0.043850
      px      :     0.011600
      py      :     0.018114

 13 H s       :     0.937145  s :     0.937145
      pz      :     0.020711  p :     0.050095
      px      :     0.013344
      py      :     0.016040

 14 H s       :     0.941360  s :     0.941360
      pz      :     0.020774  p :     0.050602
      px      :     0.014214
      py      :     0.015614

 15 H s       :     0.937066  s :     0.937066
      pz      :     0.020721  p :     0.050239
      px      :     0.013371
      py      :     0.016146

 16 H s       :     0.937616  s :     0.937616
      pz      :     0.020517  p :     0.050075
      px      :     0.014022
      py      :     0.015535

 17 H s       :     0.920625  s :     0.920625
      pz      :     0.019167  p :     0.040698
      px      :     0.009948
      py      :     0.011583

 18 H s       :     0.922163  s :     0.922163
      pz      :     0.010094  p :     0.043189
      px      :     0.023223
      py      :     0.009872

 19 H s       :     0.923202  s :     0.923202
      pz      :     0.020402  p :     0.043587
      px      :     0.010742
      py      :     0.012444

 20 H s       :     0.907402  s :     0.907402
      pz      :     0.016716  p :     0.042580
      px      :     0.011111
      py      :     0.014753

 21 H s       :     0.922082  s :     0.922082
      pz      :     0.010006  p :     0.043188
      px      :     0.023094
      py      :     0.010088

 22 H s       :     0.923126  s :     0.923126
      pz      :     0.021389  p :     0.043584
      px      :     0.010785
      py      :     0.011410

 23 H s       :     0.907759  s :     0.907759
      pz      :     0.009762  p :     0.042587
      px      :     0.011991
      py      :     0.020834



                     *******************************
                     * LOEWDIN POPULATION ANALYSIS *
                     *******************************

----------------------
LOEWDIN ATOMIC CHARGES
----------------------
   0 C :   -0.115354
   1 C :   -0.050478
   2 C :   -0.041215
   3 C :   -0.034692
   4 C :   -0.029812
   5 C :   -0.039285
   6 C :   -0.042395
   7 C :   -0.089493
   8 C :   -0.113703
   9 C :   -0.113626
  10 H :    0.054139
  11 H :    0.054826
  12 H :    0.054003
  13 H :    0.043575
  14 H :    0.040202
  15 H :    0.042325
  16 H :    0.043201
  17 H :    0.054074
  18 H :    0.046711
  19 H :    0.044293
  20 H :    0.050871
  21 H :    0.046748
  22 H :    0.044349
  23 H :    0.050737

-------------------------------
LOEWDIN REDUCED ORBITAL CHARGES
-------------------------------
  0 C s       :     0.776746  s :     0.776746
      pz      :     1.062397  p :     3.100586
      px      :     0.972713
      py      :     1.065476
      dz2     :     0.039009  d :     0.238022
      dxz     :     0.055720
      dyz     :     0.036924
      dx2y2   :     0.050606
      dxy     :     0.055763

  1 C s       :     0.786464  s :     0.786464
      pz      :     1.007861  p :     2.883005
      px      :     0.976048
      py      :     0.899095
      dz2     :     0.090495  d :     0.381008
      dxz     :     0.108237
      dyz     :     0.053551
      dx2y2   :     0.061137
      dxy     :     0.067588

  2 C s       :     0.798320  s :     0.798320
      pz      :     1.006027  p :     2.941735
      px      :     1.020027
      py      :     0.915681
      dz2     :     0.059196  d :     0.301161
      dxz     :     0.104184
      dyz     :     0.032629
      dx2y2   :     0.045751
      dxy     :     0.059401

  3 C s       :     0.795885  s :     0.795885
      pz      :     1.007144  p :     2.938759
      px      :     1.020199
      py      :     0.911416
      dz2     :     0.058344  d :     0.300048
      dxz     :     0.105490
      dyz     :     0.030575
      dx2y2   :     0.045832
      dxy     :     0.059808

  4 C s       :     0.784513  s :     0.784513
      pz      :     1.002279  p :     2.874549
      px      :     0.976400
      py      :     0.895871
      dz2     :     0.089076  d :     0.370750
      dxz     :     0.104116
      dyz     :     0.052916
      dx2y2   :     0.061356
      dxy     :     0.063286

  5 C s       :     0.799115  s :     0.799115
      pz      :     1.004266  p :     2.938049
      px      :     1.021150
      py      :     0.912633
      dz2     :     0.058576  d :     0.302120
      dxz     :     0.102943
      dyz     :     0.032859
      dx2y2   :     0.046999
      dxy     :     0.060743

  6 C s       :     0.798866  s :     0.798866
      pz      :     1.004530  p :     2.943186
      px      :     1.022079
      py      :     0.916576
      dz2     :     0.057731  d :     0.300343
      dxz     :     0.104952
      dyz     :     0.030769
      dx2y2   :     0.046958
      dxy     :     0.059932

  7 C s       :     0.754029  s :     0.754029
      pz      :     1.014901  p :     2.947707
      px      :     0.961120
      py      :     0.971686
      dz2     :     0.078623  d :     0.387757
      dxz     :     0.059264
      dyz     :     0.078904
      dx2y2   :     0.092298
      dxy     :     0.078668

  8 C s       :     0.780910  s :     0.780910
      pz      :     1.061402  p :     3.088717
      px      :     1.044265
      py      :     0.983051
      dz2     :     0.045203  d :     0.244076
      dxz     :     0.014765
      dyz     :     0.077983
      dx2y2   :     0.070551
      dxy     :     0.035574

  9 C s       :     0.780941  s :     0.780941
      pz      :     1.010656  p :     3.088584
      px      :     1.050220
      py      :     1.027708
      dz2     :     0.080817  d :     0.244102
      dxz     :     0.021951
      dyz     :     0.041282
      dx2y2   :     0.065765
      dxy     :     0.034286

 10 H s       :     0.801995  s :     0.801995
      pz      :     0.062349  p :     0.143866
      px      :     0.040735
      py      :     0.040782

 11 H s       :     0.797873  s :     0.797873
      pz      :     0.044314  p :     0.147301
      px      :     0.043673
      py      :     0.059314

 12 H s       :     0.802091  s :     0.802091
      pz      :     0.048839  p :     0.143906
      px      :     0.039949
      py      :     0.055118

 13 H s       :     0.806769  s :     0.806769
      pz      :     0.058863  p :     0.149656
      px      :     0.042552
      py      :     0.048241

 14 H s       :     0.808408  s :     0.808408
      pz      :     0.059200  p :     0.151390
      px      :     0.045391
      py      :     0.046800

 15 H s       :     0.807030  s :     0.807030
      pz      :     0.059052  p :     0.150645
      px      :     0.043125
      py      :     0.048468

 16 H s       :     0.806950  s :     0.806950
      pz      :     0.058751  p :     0.149849
      px      :     0.044227
      py      :     0.046870

 17 H s       :     0.801270  s :     0.801270
      pz      :     0.063437  p :     0.144655
      px      :     0.037121
      py      :     0.044097

 18 H s       :     0.808055  s :     0.808055
      pz      :     0.040428  p :     0.145234
      px      :     0.066503
      py      :     0.038303

 19 H s       :     0.810099  s :     0.810099
      pz      :     0.061042  p :     0.145608
      px      :     0.040972
      py      :     0.043594

 20 H s       :     0.804542  s :     0.804542
      pz      :     0.053497  p :     0.144587
      px      :     0.042220
      py      :     0.048870

 21 H s       :     0.808031  s :     0.808031
      pz      :     0.039261  p :     0.145221
      px      :     0.066411
      py      :     0.039549

 22 H s       :     0.810077  s :     0.810077
      pz      :     0.061963  p :     0.145574
      px      :     0.041132
      py      :     0.042479

 23 H s       :     0.804667  s :     0.804667
      pz      :     0.039051  p :     0.144596
      px      :     0.044010
      py      :     0.061535



                      *****************************
                      * MAYER POPULATION ANALYSIS *
                      *****************************

  NA   - Mulliken gross atomic population
  ZA   - Total nuclear charge
  QA   - Mulliken gross atomic charge
  VA   - Mayer's total valence
  BVA  - Mayer's bonded valence
  FA   - Mayer's free valence

  ATOM       NA         ZA         QA         VA         BVA        FA
  0 C      4.0984     4.0000    -0.0984     3.9774     3.9774    -0.0000
  1 C      4.0650     4.0000    -0.0650     4.1258     4.1258     0.0000
  2 C      3.9999     4.0000     0.0001     4.0752     4.0752     0.0000
  3 C      3.9969     4.0000     0.0031     4.0693     4.0693    -0.0000
  4 C      4.0531     4.0000    -0.0531     4.0942     4.0942     0.0000
  5 C      4.0048     4.0000    -0.0048     4.0855     4.0855    -0.0000
  6 C      4.0021     4.0000    -0.0021     4.0676     4.0676    -0.0000
  7 C      4.1128     4.0000    -0.1128     4.0665     4.0665    -0.0000
  8 C      4.0688     4.0000    -0.0688     3.9563     3.9563    -0.0000
  9 C      4.0684     4.0000    -0.0684     3.9558     3.9558    -0.0000
 10 H      0.9554     1.0000     0.0446     1.0282     1.0282    -0.0000
 11 H      0.9385     1.0000     0.0615     1.0151     1.0151    -0.0000
 12 H      0.9558     1.0000     0.0442     1.0284     1.0284    -0.0000
 13 H      0.9872     1.0000     0.0128     1.0434     1.0434     0.0000
 14 H      0.9920     1.0000     0.0080     1.0374     1.0374    -0.0000
 15 H      0.9873     1.0000     0.0127     1.0455     1.0455    -0.0000
 16 H      0.9877     1.0000     0.0123     1.0455     1.0455    -0.0000
 17 H      0.9613     1.0000     0.0387     1.0091     1.0091    -0.0000
 18 H      0.9654     1.0000     0.0346     1.0269     1.0269    -0.0000
 19 H      0.9668     1.0000     0.0332     1.0269     1.0269    -0.0000
 20 H      0.9500     1.0000     0.0500     1.0200     1.0200    -0.0000
 21 H      0.9653     1.0000     0.0347     1.0267     1.0267     0.0000
 22 H      0.9667     1.0000     0.0333     1.0268     1.0268     0.0000
 23 H      0.9503     1.0000     0.0497     1.0201     1.0201    -0.0000

  Mayer bond orders larger than 0.100000
B(  0-C ,  1-C ) :   1.0232 B(  0-C , 10-H ) :   0.9905 B(  0-C , 11-H ) :   0.9769 
B(  0-C , 12-H ) :   0.9905 B(  1-C ,  2-C ) :   1.4346 B(  1-C ,  6-C ) :   1.4461 
B(  2-C ,  3-C ) :   1.4637 B(  2-C , 13-H ) :   0.9893 B(  3-C ,  4-C ) :   1.4376 
B(  3-C , 14-H ) :   0.9902 B(  4-C ,  5-C ) :   1.4552 B(  4-C ,  7-C ) :   1.0205 
B(  5-C ,  6-C ) :   1.4461 B(  5-C , 15-H ) :   0.9895 B(  6-C , 16-H ) :   0.9890 
B(  7-C ,  8-C ) :   0.9899 B(  7-C ,  9-C ) :   0.9897 B(  7-C , 17-H ) :   0.9986 
B(  8-C , 18-H ) :   0.9953 B(  8-C , 19-H ) :   0.9929 B(  8-C , 20-H ) :   0.9954 
B(  9-C , 21-H ) :   0.9953 B(  9-C , 22-H ) :   0.9929 B(  9-C , 23-H ) :   0.9954 


-------
TIMINGS
-------

Total SCF time: 0 days 0 hours 0 min 41 sec 

Total time                  ....      41.690 sec
Sum of individual times     ....      39.829 sec  ( 95.5%)

SCF preparation             ....       2.152 sec  (  5.2%)
Fock matrix formation       ....      36.394 sec  ( 87.3%)
  Startup                   ....       0.213 sec  (  0.6% of F)
  Split-RI-J                ....       1.164 sec  (  3.2% of F)
  Chain of spheres X        ....      16.415 sec  ( 45.1% of F)
  XC integration            ....      17.952 sec  ( 49.3% of F)
    XC Preparation          ....       0.000 sec  (  0.0% of XC)
    Basis function eval.    ....       0.397 sec  (  2.2% of XC)
    Density eval.           ....       0.158 sec  (  0.9% of XC)
    XC-Functional eval.     ....       0.138 sec  (  0.8% of XC)
    XC-Potential eval.      ....       0.253 sec  (  1.4% of XC)
Diagonalization             ....       0.000 sec  (  0.0%)
Density matrix formation    ....       0.273 sec  (  0.7%)
Total Energy calculation    ....       0.214 sec  (  0.5%)
Population analysis         ....       0.129 sec  (  0.3%)
Orbital Transformation      ....       0.053 sec  (  0.1%)
Orbital Orthonormalization  ....       0.000 sec  (  0.0%)
DIIS solution               ....       0.427 sec  (  1.0%)
SOSCF solution              ....       0.187 sec  (  0.4%)
Finished LeanSCF after  41.8 sec

Maximum memory used throughout the entire LEANSCF-calculation: 34.9 MB


           ************************************************************
           *        Program running with 40 parallel MPI-processes    *
           *              working on a common directory               *
           ************************************************************

------------------------------------------------------------------------------
                         ORCA PROPERTY INTEGRAL CALCULATIONS
------------------------------------------------------------------------------

GBWName                                   ... ./output/p_cymene/p_cymene.gbw
Number of atoms                           ...     24
Number of basis functions                 ...    200
Max core memory                           ...   1024 MB

Dipole integrals                          ... YES
Quadrupole integrals                      ...  NO
Linear momentum integrals                 ...  NO
Angular momentum integrals                ...  NO
Higher moments length integrals           ...  NO
Higher moments velocity integrals         ...  NO
Kinetic energy integrals                  ...  NO
GIAO right hand sides                     ...  NO
GIAO dipole derivative integrals          ...  NO
SOC integrals                             ...  NO
EPR diamagnetic integrals (GIAO)          ...  NO
EPR gauge integrals                       ...  NO
Field gradient integrals                  ...  NO (   0 nuclei)
Spin-dipole/Fermi contact integrals       ...  NO (   0 nuclei)
Contact density integrals                 ...  NO (   0 nuclei)
Nucleus-orbit integrals                   ...  NO (   0 nuclei)
Geometric perturbations                   ...  NO (  24 nuclei)

Choice of electric origin   ... Center of mass
Position of electric origin ... (  0.3508, -0.0252,  0.1314) 
Choice of magnetic origin   ... GIAO
Position of magnetic origin ... (  0.0000,  0.0000,  0.0000) 

Calculating integrals                     ... Electric Dipole (Length)     done (  0.0 sec)

Property integrals calculated in   0.0 sec

Maximum memory used throughout the entire PROPINT-calculation: 15.3 MB


-------------------------------------------------------------------------------
                          DFT DISPERSION CORRECTION                            
                                                                               
                                DFTD4 V3.4.0                                   
-------------------------------------------------------------------------------
The wB97X-3c composite method is recognized
Using three-body term ABC
Active option DFTDOPT                   ...         5   

-------------------------   ----------------
Dispersion correction           -0.028336847
-------------------------   ----------------


-------------------------   --------------------
FINAL SINGLE POINT ENERGY       -65.417236335784
-------------------------   --------------------



           ************************************************************
           *        Program running with 40 parallel MPI-processes    *
           *              working on a common directory               *
           ************************************************************
------------------------------------------------------------------------------
                         ORCA SCF GRADIENT CALCULATION
------------------------------------------------------------------------------

Nuc. rep. gradient        (SHARK) ... done (  0.0 sec)
HCore & Overlap gradient  (SHARK) ... done (  0.0 sec)
ECP gradient              (SHARK) ... done (  0.3 sec)
Split-RIJ-J gradient      (SHARK) ... done (  0.4 sec)
COSX-gradient                     ... done (  4.9 sec)
XC gradient                       ... done (  1.5 sec)
Dispersion correction             ... done (  0.1 sec)

-------------------
DISPERSION GRADIENT
-------------------

   1   C   :    0.000645836    0.000026294    0.000005760
   2   C   :    0.000417957    0.000025590   -0.000007780
   3   C   :    0.000206391    0.000248804    0.000527937
   4   C   :    0.000230525    0.000263433    0.000567596
   5   C   :   -0.000051687   -0.000054061   -0.000122608
   6   C   :    0.000085602   -0.000282825   -0.000653487
   7   C   :    0.000181645   -0.000222733   -0.000535902
   8   C   :   -0.000482503   -0.000070345   -0.000106868
   9   C   :   -0.000519606    0.000528711   -0.000120112
  10   C   :   -0.000467904   -0.000491328    0.000323667
  11   H   :    0.000142565    0.000021751   -0.000022830
  12   H   :    0.000151787   -0.000040933    0.000022061
  13   H   :    0.000142525    0.000033136    0.000004718
  14   H   :    0.000035212    0.000072489    0.000159968
  15   H   :    0.000067354    0.000092236    0.000202841
  16   H   :    0.000009622   -0.000086248   -0.000195328
  17   H   :    0.000037296   -0.000068728   -0.000159493
  18   H   :   -0.000125328   -0.000039584   -0.000077769
  19   H   :   -0.000110783    0.000111728   -0.000036272
  20   H   :   -0.000137380    0.000172264    0.000005656
  21   H   :   -0.000127101    0.000165137   -0.000061473
  22   H   :   -0.000099373   -0.000111880    0.000060955
  23   H   :   -0.000122075   -0.000125025    0.000134902
  24   H   :   -0.000110579   -0.000167884    0.000083863

Difference to translation invariance:
           :    0.0000000000   -0.0000000000    0.0000000000

Difference to rotation invariance:
           :   -0.0000000000   -0.0000000000   -0.0000000000

Norm of the Dispersion gradient    ...    0.0020501454
RMS gradient                       ...    0.0002416120
MAX gradient                       ...    0.0006534872

------------------
CARTESIAN GRADIENT
------------------

   1   C   :   -0.008567710   -0.003093888    0.001110320
   2   C   :    0.005397747    0.003546129    0.000179710
   3   C   :    0.012497417    0.005475278    0.014348661
   4   C   :   -0.008354619    0.006841596    0.015272986
   5   C   :   -0.005752199    0.002041966    0.004591841
   6   C   :   -0.008241483   -0.007150278   -0.016325232
   7   C   :    0.010353524   -0.007167716   -0.013922946
   8   C   :    0.004951909    0.000177729    0.000482341
   9   C   :    0.003475192   -0.004095804    0.002756687
  10   C   :    0.002962524    0.005131507   -0.001273719
  11   H   :    0.003465640    0.003023866   -0.014130295
  12   H   :    0.001114650   -0.012283834    0.005420364
  13   H   :    0.002875205    0.012504980    0.007433595
  14   H   :   -0.000912146   -0.000008716    0.001617921
[...]
 10:    215.35   0.000047    0.24  0.000068  (-0.000530 -0.007524  0.003291)
 11:    239.01   0.000027    0.14  0.000035  ( 0.000084  0.005561 -0.002061)
 12:    263.49   0.000023    0.12  0.000027  (-0.004060  0.001060  0.003108)
 13:    297.75   0.000024    0.12  0.000026  ( 0.001178  0.001994  0.004506)
 14:    364.45   0.000027    0.14  0.000023  (-0.001517 -0.001827 -0.004153)
 15:    396.33   0.000385    1.95  0.000303  ( 0.000924 -0.015960  0.006906)
 16:    423.72   0.000002    0.01  0.000002  ( 0.000117 -0.000801  0.001004)
 17:    457.97   0.000014    0.07  0.000009  (-0.002869 -0.000960 -0.000332)
 18:    547.55   0.000050    0.25  0.000028  ( 0.000714  0.005211  0.000786)
 19:    560.81   0.004962   25.07  0.002761  ( 0.003584 -0.047959  0.021166)
 20:    668.54   0.000010    0.05  0.000005  ( 0.000472  0.000597  0.001992)
 21:    718.57   0.000082    0.42  0.000036  (-0.004503 -0.003866 -0.000667)
 22:    756.21   0.000835    4.22  0.000345  (-0.000012 -0.016960  0.007545)
 23:    846.63   0.000867    4.38  0.000320  ( 0.001349 -0.016078  0.007707)
 24:    854.09   0.006159   31.12  0.002250  (-0.000386  0.043626 -0.018626)
 25:    870.31   0.000006    0.03  0.000002  ( 0.000032  0.000391 -0.001404)
 26:    939.08   0.000138    0.70  0.000046  ( 0.003492 -0.002371 -0.005282)
 27:    952.89   0.000192    0.97  0.000063  (-0.000158  0.007326 -0.003044)
 28:    986.12   0.000145    0.73  0.000046  (-0.002908  0.005594 -0.002482)
 29:    994.36   0.000037    0.19  0.000012  ( 0.000006  0.003091 -0.001402)
 30:   1010.24   0.000000    0.00  0.000000  ( 0.000114 -0.000286  0.000088)
 31:   1027.71   0.000065    0.33  0.000020  (-0.004407 -0.000087  0.000430)
 32:   1060.54   0.000979    4.95  0.000288  ( 0.016653  0.002063 -0.002576)
 33:   1087.72   0.002061   10.41  0.000591  (-0.017815  0.015115 -0.006739)
 34:   1103.07   0.002769   13.99  0.000783  ( 0.027593  0.002957  0.003617)
 35:   1157.28   0.001833    9.26  0.000494  ( 0.004532 -0.008476 -0.020046)
 36:   1172.11   0.000206    1.04  0.000055  ( 0.000153 -0.006812  0.002884)
 37:   1201.21   0.000131    0.66  0.000034  (-0.005676 -0.000661 -0.001201)
 38:   1232.26   0.000091    0.46  0.000023  ( 0.004595 -0.000570 -0.001260)
 39:   1273.96   0.000007    0.04  0.000002  ( 0.000060  0.001219  0.000459)
 40:   1277.07   0.000309    1.56  0.000075  (-0.008564  0.000621 -0.001294)
 41:   1331.26   0.000547    2.77  0.000128  (-0.011126 -0.001337 -0.001658)
 42:   1361.39   0.000466    2.35  0.000107  ( 0.010253  0.000914  0.000902)
 43:   1381.40   0.000081    0.41  0.000018  (-0.000184  0.003899 -0.001773)
 44:   1413.52   0.000894    4.52  0.000197  (-0.013775  0.000510  0.002709)
 45:   1435.19   0.002343   11.84  0.000509  (-0.001024  0.020647 -0.009059)
 46:   1448.56   0.000229    1.16  0.000049  ( 0.006483 -0.000635  0.002615)
 47:   1451.18   0.001615    8.16  0.000347  (-0.011341  0.005692  0.013645)
 48:   1486.13   0.000129    0.65  0.000027  ( 0.003668 -0.001179 -0.003487)
 49:   1515.12   0.000018    0.09  0.000004  (-0.000189  0.001802 -0.000584)
 50:   1519.37   0.000824    4.16  0.000169  (-0.000594  0.012038 -0.004890)
 51:   1520.51   0.001751    8.85  0.000359  (-0.000447 -0.017447  0.007406)
 52:   1526.42   0.004169   21.07  0.000852  (-0.002263  0.011278  0.026834)
 53:   1532.36   0.001727    8.73  0.000352  ( 0.001388  0.007506  0.017129)
 54:   1537.57   0.001716    8.67  0.000348  ( 0.013369  0.006075  0.011516)
 55:   1601.13   0.005881   29.72  0.001146  (-0.033837 -0.000941 -0.000642)
 56:   1687.21   0.000042    0.21  0.000008  ( 0.000876 -0.001056 -0.002442)
 57:   1734.90   0.000073    0.37  0.000013  (-0.003174 -0.000334 -0.001720)
 58:   3097.58   0.006093   30.79  0.000614  ( 0.001706 -0.022821  0.009496)
 59:   3099.89   0.005986   30.25  0.000603  ( 0.016117 -0.006168 -0.017459)
 60:   3102.75   0.004167   21.06  0.000419  (-0.018017 -0.004541 -0.008593)
 61:   3107.50   0.006059   30.62  0.000608  ( 0.024662  0.000100  0.000416)
 62:   3186.40   0.000009    0.05  0.000001  ( 0.000035  0.000941 -0.000194)
 63:   3189.80   0.009446   47.74  0.000924  (-0.026239 -0.007664 -0.013302)
 64:   3191.74   0.001509    7.63  0.000148  (-0.003731 -0.010541  0.004747)
 65:   3196.16   0.002063   10.43  0.000201  ( 0.001000 -0.012908  0.005819)
 66:   3197.35   0.004098   20.71  0.000400  (-0.012884  0.005598  0.014236)
 67:   3209.42   0.001350    6.82  0.000131  ( 0.000407 -0.004531 -0.010515)
 68:   3232.36   0.002312   11.68  0.000223  (-0.014901 -0.000953 -0.000535)
 69:   3234.27   0.001097    5.54  0.000106  ( 0.009765  0.001659  0.002784)
 70:   3250.15   0.004780   24.16  0.000459  (-0.001873  0.008382  0.019627)
 71:   3253.68   0.001014    5.12  0.000097  (-0.000697  0.003951  0.009007)

* The epsilon (eps) is given for a Dirac delta lineshape.
** The dipole moment derivative (T) already includes vibrational overlap.

The first frequency considered to be a vibration is 6
The total number of vibrations considered is 66


--------------------------
THERMOCHEMISTRY AT 298.15K
--------------------------

Temperature         ...   298.15 K
Pressure            ...     1.00 atm
Total Mass          ...   134.22 AMU
Quasi RRHO          ...     True
Cut-Off Frequency   ...     1.00 cm^-1

Throughout the following assumptions are being made:
  (1) The electronic state is orbitally nondegenerate
  (2) There are no thermally accessible electronically excited states
  (3) Hindered rotations indicated by low frequency modes are not
      treated as such but are treated as vibrations and this may
      cause some error
  (4) All equations used are the standard statistical mechanics
      equations for an ideal gas
  (5) All vibrations are strictly harmonic

freq.      29.59  E(vib)   ...       0.55 
freq.      39.28  E(vib)   ...       0.54 
freq.      95.62  E(vib)   ...       0.47 
freq.     195.32  E(vib)   ...       0.36 
freq.     215.35  E(vib)   ...       0.34 
freq.     239.01  E(vib)   ...       0.32 
freq.     263.49  E(vib)   ...       0.29 
freq.     297.75  E(vib)   ...       0.27 
freq.     364.45  E(vib)   ...       0.22 
freq.     396.33  E(vib)   ...       0.20 
freq.     423.72  E(vib)   ...       0.18 
freq.     457.97  E(vib)   ...       0.16 
freq.     547.55  E(vib)   ...       0.12 
freq.     560.81  E(vib)   ...       0.11 
freq.     668.54  E(vib)   ...       0.08 
freq.     718.57  E(vib)   ...       0.07 
freq.     756.21  E(vib)   ...       0.06 
freq.     846.63  E(vib)   ...       0.04 
freq.     854.09  E(vib)   ...       0.04 
freq.     870.31  E(vib)   ...       0.04 
freq.     939.08  E(vib)   ...       0.03 
freq.     952.89  E(vib)   ...       0.03 
freq.     986.12  E(vib)   ...       0.02 
freq.     994.36  E(vib)   ...       0.02 
freq.    1010.24  E(vib)   ...       0.02 
freq.    1027.71  E(vib)   ...       0.02 
freq.    1060.54  E(vib)   ...       0.02 
freq.    1087.72  E(vib)   ...       0.02 
freq.    1103.07  E(vib)   ...       0.02 
freq.    1157.28  E(vib)   ...       0.01 
freq.    1172.11  E(vib)   ...       0.01 
freq.    1201.21  E(vib)   ...       0.01 
freq.    1232.26  E(vib)   ...       0.01 
freq.    1273.96  E(vib)   ...       0.01 
freq.    1277.07  E(vib)   ...       0.01 
freq.    1331.26  E(vib)   ...       0.01 
freq.    1361.39  E(vib)   ...       0.01 
freq.    1381.40  E(vib)   ...       0.01 
freq.    1413.52  E(vib)   ...       0.00 
freq.    1435.19  E(vib)   ...       0.00 
freq.    1448.56  E(vib)   ...       0.00 
freq.    1451.18  E(vib)   ...       0.00 
freq.    1486.13  E(vib)   ...       0.00 
freq.    1515.12  E(vib)   ...       0.00 
freq.    1519.37  E(vib)   ...       0.00 
freq.    1520.51  E(vib)   ...       0.00 
freq.    1526.42  E(vib)   ...       0.00 
freq.    1532.36  E(vib)   ...       0.00 
freq.    1537.57  E(vib)   ...       0.00 
freq.    1601.13  E(vib)   ...       0.00 
freq.    1687.21  E(vib)   ...       0.00 
freq.    1734.90  E(vib)   ...       0.00 
freq.    3097.58  E(vib)   ...       0.00 
freq.    3099.89  E(vib)   ...       0.00 
freq.    3102.75  E(vib)   ...       0.00 
freq.    3107.50  E(vib)   ...       0.00 
freq.    3186.40  E(vib)   ...       0.00 
freq.    3189.80  E(vib)   ...       0.00 
freq.    3191.74  E(vib)   ...       0.00 
freq.    3196.16  E(vib)   ...       0.00 
freq.    3197.35  E(vib)   ...       0.00 
freq.    3209.42  E(vib)   ...       0.00 
freq.    3232.36  E(vib)   ...       0.00 
freq.    3234.27  E(vib)   ...       0.00 
freq.    3250.15  E(vib)   ...       0.00 
freq.    3253.68  E(vib)   ...       0.00 

------------
INNER ENERGY
------------

The inner energy is: U= E(el) + E(ZPE) + E(vib) + E(rot) + E(trans)
    E(el)   - is the total energy from the electronic structure calculation
              = E(kin-el) + E(nuc-el) + E(el-el) + E(nuc-nuc)
    E(ZPE)  - the the zero temperature vibrational energy from the frequency calculation
    E(vib)  - the the finite temperature correction to E(ZPE) due to population
              of excited vibrational states
    E(rot)  - is the rotational thermal energy
    E(trans)- is the translational thermal energy

Summary of contributions to the inner energy U:
Electronic energy                ...    -65.42279404 Eh
Zero point energy                ...      0.21721989 Eh     136.31 kcal/mol
Thermal vibrational correction   ...      0.00756963 Eh       4.75 kcal/mol
Thermal rotational correction    ...      0.00141627 Eh       0.89 kcal/mol
Thermal translational correction ...      0.00141627 Eh       0.89 kcal/mol
-----------------------------------------------------------------------
Total thermal energy                    -65.19517197 Eh


Summary of corrections to the electronic energy:
(perhaps to be used in another calculation)
Total thermal correction                  0.01040218 Eh       6.53 kcal/mol
Non-thermal (ZPE) correction              0.21721989 Eh     136.31 kcal/mol
-----------------------------------------------------------------------
Total correction                          0.22762207 Eh     142.83 kcal/mol


--------
ENTHALPY
--------

The enthalpy is H = U + kB*T
                kB is Boltzmann's constant
Total thermal energy              ...    -65.19517197 Eh 
Thermal Enthalpy correction       ...      0.00094421 Eh       0.59 kcal/mol
-----------------------------------------------------------------------
Total Enthalpy                    ...    -65.19422776 Eh


Note: Only C1 symmetry has been detected, increase convergence thresholds 
      if your molecule has a higher symmetry. Symmetry factor of 1.0 is   
      used for the rotational entropy correction. 
 

Note: Rotational entropy computed according to Herzberg 
Infrared and Raman Spectra, Chapter V,1, Van Nostrand Reinhold, 1945 
Point Group:  C1, Symmetry Number:   1  
Rotational constants in cm-1:     0.110531     0.024580     0.023177 

Vibrational entropy computed according to the QRRHO of S. Grimme
Chem.Eur.J. 2012 18 9955 using a reference frequency of 100.0 cm-1


-------
ENTROPY
-------

The entropy contributions are T*S = T*(S(el)+S(vib)+S(rot)+S(trans))
     S(el)   - electronic entropy
     S(vib)  - vibrational entropy
     S(rot)  - rotational entropy
     S(trans)- translational entropy
The entropies will be listed as multiplied by the temperature to get
units of energy

Electronic entropy                ...      0.00000000 Eh      0.00 kcal/mol
Vibrational entropy               ...      0.01311418 Eh      8.23 kcal/mol
Rotational entropy                ...      0.01407729 Eh      8.83 kcal/mol
Translational entropy             ...      0.01928809 Eh     12.10 kcal/mol
-----------------------------------------------------------------------
Final entropy term                ...      0.04647955 Eh     29.17 kcal/mol

In case the symmetry of your molecule has not been determined correctly
or in case you have a reason to use a different symmetry number we print 
out the resulting rotational entropy values for sn=1,12:

 non-linear molecules -----------------------------------
|  sn= 1 | S(rot)=       0.01407729 Eh      8.83 kcal/mol|
|  sn= 2 | S(rot)=       0.01342284 Eh      8.42 kcal/mol|
|  sn= 3 | S(rot)=       0.01304000 Eh      8.18 kcal/mol|
|  sn= 4 | S(rot)=       0.01276838 Eh      8.01 kcal/mol|
|  sn= 5 | S(rot)=       0.01255769 Eh      7.88 kcal/mol|
|  sn= 6 | S(rot)=       0.01238555 Eh      7.77 kcal/mol|
|  sn= 7 | S(rot)=       0.01224000 Eh      7.68 kcal/mol|
|  sn= 8 | S(rot)=       0.01211392 Eh      7.60 kcal/mol|
|  sn= 9 | S(rot)=       0.01200271 Eh      7.53 kcal/mol|
|  sn=10 | S(rot)=       0.01190323 Eh      7.47 kcal/mol|
|  sn=11 | S(rot)=       0.01181324 Eh      7.41 kcal/mol|
|  sn=12 | S(rot)=       0.01173109 Eh      7.36 kcal/mol|
 linear molecules ---------------------------------------
|  Dinfh | S(rot)=       0.00888028 Eh      5.57 kcal/mol|
|  Cinfv | S(rot)=       0.00953473 Eh      5.98 kcal/mol|
 --------------------------------------------------------


-------------------
GIBBS FREE ENERGY
-------------------

The Gibbs free energy is G = H - T*S

Total enthalpy                    ...    -65.19422776 Eh 
Total entropy correction          ...     -0.04647955 Eh    -29.17 kcal/mol
-----------------------------------------------------------------------
Final Gibbs free energy         ...    -65.24070731 Eh

For completeness - the Gibbs free energy minus the electronic energy
G-E(el)                           ...      0.18208672 Eh    114.26 kcal/mol


Maximum memory used throughout the entire PROP-calculation: 101.4 MB

--------------------------------
SUGGESTED CITATIONS FOR THIS RUN
--------------------------------

Below you find a list of papers that are relevant to this ORCA run
We neither can nor want to force you to cite these papers, but we appreciate if you do
You receive ORCA, which is the product of decades of hard work by many enthusiastic individuals, for free
The only thing we kindly ask in return is that you cite our papers,
We deeply appreciate it, if you show your appreciation for ORCA by not just citing the generic ORCA reference.

Please note that relegating all ORCA citations to the supporting information does *not* help us.
SI sections are not indexed - citations you put there will not count into any citation statistics
But we need these citations in order to attract the funding resources that allow us to do what we are doing

Therefore, if you are a happy ORCA user, please consider citing a few of the papers listed below in the main body of your paper

In addition to the list printed below, the program has created the file ./output/p_cymene/p_cymene.bibtex that contains the list in bibtex format
You can import this file easily into all common literature databanks and citation aid programs


List of essential papers. We consider these as the minimum necessary citations

  1. Neese,F.
     Software update: the ORCA program system, version 5.0
     WIRES Comput. Molec. Sci., 2022 12(1)e1606
     doi.org/10.1002/wcms.1606
  2. Mueller,M.; Hansen,A.; Grimme,S.
     wB97X-3c: A composite range-separated hybrid DFT method with a molecule-optimized polarized valence double-zeta basis set
     J. Chem. Phys., 2023 158 014103
     doi.org/10.1063/5.0133026

List of papers to cite with high priority. The work reported in these papers was absolutely
necessary for this run to complete.
Our perspective: the developers of density functionals and basis sets usually get cited in chemistry papers
Good! But without the algorithms to do something with them, the functionals or basis sets would not do anything.
Hence, in our opinion, the algorithm design and method developments papers are equally worthy of getting cited

  1. Neese,F.
     An improvement of the resolution of the identity approximation for the formation of the Coulomb matrix
     J. Comp. Chem., 2003 24(14)1740-1747
     doi.org/10.1002/jcc.10318
  2. Neese,F.; Wennmohs,F.; Hansen,A.; Becker,U.
     Efficient, approximate and parallel Hartree-Fock and hybrid DFT calculations. A 'chain-of-spheres' algorithm for the Hartree-Fock exchange
     Chem. Phys., 2009 356(1-3)98-109
     doi.org/10.1016/j.chemphys.2008.10.036
  3. Bykov,D.; Petrenko,T.; Izsak,R.; Kossmann,S.; Becker,U.; Valeev,E.; Neese,F.
     Efficient implementation of the analytic second derivatives of Hartree-Fock and hybrid DFT energies: a detailed analysis of different approximations
     Molec. Phys., 2015 113 1961-1977
     doi.org/10.1080/00268976.2015.1025114
  4. Helmich-Paris,B.; de Souza,B.; Neese,F.; Izsák,R.
     An improved chain of spheres for exchange algorithm
     J. Chem. Phys., 2021 155 104109
     doi.org/doi: 10.1063/5.0058766.
  5. Neese,F.
     The SHARK Integral Generation and Digestion System
     J. Comp. Chem., 2022  1-16
     doi.org/10.1002/jcc.26942
  6. Caldeweyher,E.; Bannwarth,C.; Grimme,S.
     Extension of the D3 dispersion coefficient model
     J. Chem. Phys., 2017 147 034112
     doi.org/10.1063/1.4993215
  7. Caldeweyher,E.; Ehlert,S.; Hansen,A.; Neugebauer,H.; Spicher,S.; Bannwarth,C.; Grimme,S.
     A generally applicable atomic-charge dependent London dispersion correction
     J. Chem. Phys., 2019 150 154122
     doi.org/10.1063/1.5090222
  8. Caldeweyher,E.; Mewes,J.; Ehlert,S.; Grimme,S.
     Extension and evaluation of the D4 London-dispersion model for periodic systems
     Phys. Chem. Chem. Phys., 2020 22(16)8499-8512
     doi.org/10.1039/D0CP00502A
  9. Wittmann,L.; Gordiy,I.; Friede,M.; Helmich-Paris,B.; Grimme,S.; Hansen,A.; Bursch,M.
     Extension of the D3 and D4 London Dispersion Corrections to the full Actinides Series
     Phys. Chem. Chem. Phys., 2024 26(32)21379-21394
     doi.org/https://doi.org/10.1039/D4CP01514B 

List of suggested additional citations. These are papers that are important in the 'surrounding' of 
of this run, or papers that preceded the highly important papers. If you like your results we are grateful for a citation.

  1. Izsak,R.; Neese,F.
     An overlap fitted chain of spheres exchange method
     J. Chem. Phys., 2011 135 144105
     doi.org/10.1063/1.3646921
  2. Izsak,R.; Hansen,A.; Neese,F.
     The resolution of identity and chain of spheres approximations for the LPNO-CCSD singles Fock term
     Molec. Phys., 2012 110 2413-2417
     doi.org/10.1080/00268976.2012.687466
  3. Neese,F.
     The ORCA program system
     WIRES Comput. Molec. Sci., 2012 2(1)73-78
     doi.org/10.1002/wcms.81
  4. Izsak,R.; Neese,F.; Klopper,W.
     Robust fitting techniques in the chain of spheres approximation to the Fock exchange: The role of the complementary space
     J. Chem. Phys., 2013 139 
     doi.org/10.1063/1.4819264
  5. Neese,F.
     Software update: the ORCA program system, version 4.0
     WIRES Comput. Molec. Sci., 2018 8(1)1-6
     doi.org/10.1002/wcms.1327
  6. Neese,F.; Wennmohs,F.; Becker,U.; Riplinger,C.
     The ORCA quantum chemistry program package
     J. Chem. Phys., 2020 152 Art. No. L224108
     doi.org/10.1063/5.0004608

List of optional additional citations

  1. Neese,F.
     Approximate second-order SCF convergence for spin unrestricted wavefunctions
     Chem. Phys. Lett., 2000 325(1-3)93-98
     doi.org/10.1016/s0009-2614(00)00662-x

Timings for individual modules:

Sum of individual times          ...      393.547 sec (=   6.559 min)
Startup calculation              ...       21.923 sec (=   0.365 min)   5.6 %
SCF iterations                   ...      195.169 sec (=   3.253 min)  49.6 %
Property integrals               ...       38.462 sec (=   0.641 min)   9.8 %
SCF Response                     ...       30.819 sec (=   0.514 min)   7.8 %
Property calculations            ...       66.696 sec (=   1.112 min)  16.9 %
SCF Gradient evaluation          ...       40.383 sec (=   0.673 min)  10.3 %
Geometry relaxation              ...        0.095 sec (=   0.002 min)   0.0 %
                             ****ORCA TERMINATED NORMALLY****
TOTAL RUN TIME: 0 days 0 hours 6 minutes 36 seconds 467 msec
