
                                 *****************
                                 * O   R   C   A *
                                 *****************

                                            #,                                       
                                            ###                                      
                                            ####                                     
                                            #####                                    
                                            ######                                   
                                           ########,                                 
                                     ,,################,,,,,                         
                               ,,#################################,,                 
                          ,,##########################################,,             
                       ,#########################################, ''#####,          
                    ,#############################################,,   '####,        
                  ,##################################################,,,,####,       
                ,###########''''           ''''###############################       
              ,#####''   ,,,,##########,,,,          '''####'''          '####       
            ,##' ,,,,###########################,,,                        '##       
           ' ,,###''''                  '''############,,,                           
         ,,##''                                '''############,,,,        ,,,,,,###''
      ,#''                                            '''#######################'''  
     '                                                          ''''####''''         
             ,#######,   #######,   ,#######,      ##                                
            ,#'     '#,  ##    ##  ,#'     '#,    #''#        ,####,   ,####,        
            ##       ##  ##   ,#'  ##            #'  '#       #'       #'  '#        
            ##       ##  #######   ##           ,######,      #####,   #    #        
            '#,     ,#'  ##    ##  '#,     ,#' ,#      #,     #,   #   #,  ,#        
             '#######'   ##     ##  '#######'  #'      '#     '####' # '####'        



                #########################################################
                #                        -***-                          #
                #          Department of theory and spectroscopy        #
                #                                                       #
                #                      Frank Neese                      #
                #                                                       #
                #     Directorship, Architecture, Infrastructure        #
                #                    SHARK, DRIVERS                     #
                #        Core code/Algorithms in most modules           #
                #                                                       #
                #        Max Planck Institute fuer Kohlenforschung      #
                #                Kaiser Wilhelm Platz 1                 #
                #                 D-45470 Muelheim/Ruhr                 #
                #                      Germany                          #
                #                                                       #
                #                  All rights reserved                  #
                #                        -***-                          #
                #########################################################


                         Program Version 6.0.1  -  RELEASE   -


 With contributions from (in alphabetic order):
[Max-Planck-Institut fuer Kohlenforschung]                               
  Daniel Aravena         : Magnetic Suceptibility                        
  Michael Atanasov       : Ab Initio Ligand Field Theory (pilot matlab implementation)
  Alexander A. Auer      : GIAO ZORA, VPT2 properties, NMR spectrum      
  Ute Becker             : All parallelization in ORCA, NUMFREQ, NUMCALC 
  Giovanni Bistoni       : ED, misc. LED, open-shell LED, HFLD           
  Martin Brehm           : Molecular dynamics                            
  Dmytro Bykov           : pre 5.0 version of the SCF Hessian            
  Marcos Casanova-Páez   : Triplet and SCS-CIS(D). UHF-(DLPNO)-IP/EA/STEOM-CCSD. UHF-CVS-IP/STEOM-CCSD   
  Vijay G. Chilkuri      : MRCI spin determinant printing, contributions to CSF-ICE 
  Pauline Colinet        : FMM embedding                                 
  Dipayan Datta          : RHF DLPNO-CCSD density                        
  Achintya Kumar Dutta   : EOM-CC, STEOM-CC                              
  Nicolas Foglia         : Exact transition moments, OPA infrastructure, MCD improvements    
  Dmitry Ganyushin       : Spin-Orbit,Spin-Spin,Magnetic field MRCI      
  Miquel Garcia-Rates    : C-PCM and meta-GGA Hessian, CCSD/C-PCM, Gaussian charge scheme 
  Tiago L. C. Gouveia    : GS-ROHF, GS-ROCIS                             
  Yang Guo               : DLPNO-NEVPT2, F12-NEVPT2, CIM, IAO-localization        
  Andreas Hansen         : Spin unrestricted coupled pair/coupled cluster methods 
  Ingolf Harden          : AUTO-CI MPn and infrastructure                
  Benjamin Helmich-Paris : MC-RPA, TRAH-(SCF,CASSCF), AVAS, COSX integrals, SCF dyn. polar. 
  Lee Huntington         : MR-EOM, pCC                                   
  Robert Izsak           : Overlap fitted RIJCOSX, COSX-SCS-MP3, EOM     
  Riya Kayal             : Wick's Theorem for AUTO-CI, AUTO-CI UHF-CCSDT 
  Emily Kempfer          : AUTO-CI, RHF CISDT and CCSDT                  
  Christian Kollmar      : KDIIS, OOCD, Brueckner-CCSD(T), CCSD density, CASPT2, CASPT2-K, improved NEVPT2 
  Axel Koslowski         : Symmetry handling                             
  Simone Kossmann        : meta-GGA functionals, TD-DFT gradient, OOMP2, (MP2 Hessian; deprecated post 5.0) 
  Lucas Lang             : DCDCAS                                        
  Marvin Lechner         : AUTO-CI (C++ implementation), FIC-MRCC        
  Spencer Leger          : CASSCF response                               
  Dagmar Lenk            : GEPOL surface, SMD, ORCA-2-JSON               
  Dimitrios Liakos       : Extrapolation schemes; Compound Job, initial MDCI parallelization 
  Dimitrios Manganas     : Further ROCIS development; embedding schemes. LFT, Crystal Embedding 
  Dimitrios Pantazis     : SARC Basis sets                               
  Anastasios Papadopoulos: AUTO-CI, single reference methods and gradients 
  Taras Petrenko         : pre 6.0 DFT Hessian and TD-DFT gradient, (ASA, deprecated), ECA, 1-Electron XAS/XES, NRVS 
  Peter Pinski           : DLPNO-MP2, DLPNO-MP2 Gradient                 
  Christoph Reimann      : Effective Core Potentials                     
  Marius Retegan         : Local ZFS, SOC                                
  Christoph Riplinger    : Optimizer, TS searches, QM/MM, DLPNO-CCSD(T), (RO)-DLPNO pert. Triples 
  Michael Roemelt        : Original ROCIS implementation                 
  Masaaki Saitow         : Open-shell DLPNO-CCSD energy and density      
  Barbara Sandhoefer     : DKH picture change effects                    
  Kantharuban Sivalingam : CASSCF convergence/infrastructure, NEVPT2 and variants, FIC-MRCI 
  Bernardo de Souza      : ESD, SOC TD-DFT                               
  Georgi L. Stoychev     : AutoAux, RI-MP2 NMR, DLPNO-MP2 response, X2C  
  Van Anh Tran           : RI-MP2 g-tensors                              
  Willem Van den Heuvel  : Paramagnetic NMR                              
  Zikuan Wang            : NOTCH, Electric field optimization            
  Frank Wennmohs         : Technical directorship and infrastructure     
  Hang Xu                : AUTO-CI-Response properties                   
                                                                         
[FACCTs GmbH]                                                            
  Markus Bursch, Miquel Garcia-Rates, Christoph Riplinger, Bernardo de Souza, Georgi L. Stoychev 
                                                                 
  APM, Basis sets (HGBS, AHGBS, def-TZVP (Ac-Lr), def2-XVPD (La-Lu)), CI-OPT, improved COSX, DLPNO-Multilevel,           
  DOCKER, DRACO, updates on ESD, GOAT, IRC, LR-CPCM, MBIS, meta-GGA TD-DFT gradient, ML-optimized integration grids, 
  MM, NACMEs, nearIR, NEB, NEB-TS, NL-DFT gradient (VV10), 2- and 3-layer-ONIOM, interface openCOSMO-RS, QMMM,   
  Crystal-QMMM, SF, symmetry and pop. for TD-DFT, r2SCAN hybrids, SOLVATOR                                   
                                                                         
[Other institutions]                                                     
  V. Asgeirsson          : NEB                                           
  Christoph Bannwarth    : sTDA-DFT, sTD-DFT, PBEh-3c, B97-3c, D3        
  Sebastian Ehlert       : rSCAN, r2SCAN, r2SCAN-3c, D4, dhf basis sets  
  Marvin Friede          : D4 for Fr, Ra, Ac-Lr                          
  Lars Goerigk           : TD-DFT with DH, B97 family of functionals     
  Stefan Grimme          : VdW corrections, initial TS optimization, DFT functionals, gCP, sTDA/sTD-DF 
  Waldemar Hujo          : DFT-NL                                        
  H. Jonsson             : NEB                                           
  Holger Kruse           : gCP                                           
  Marcel Mueller         : wB97X-3c, vDZP basis set                      
  Hagen Neugebauer       : wr2SCAN                                       
  Tobias Risthaus        : range-separated hybrid DFT                    
  Lukas Wittmann         : regularized MP2, r2SCAN double-hybrids, wr2SCAN        
                                                                         
We gratefully acknowledge several colleagues who have allowed us to      
interface, adapt or use parts of their codes:                            
  Ed Valeev, F. Pavosevic, A. Kumar             : LibInt (2-el integral package), F12 methods 
  Garnet Chan, S. Sharma, J. Yang, R. Olivares  : DMRG                   
  Ulf Ekstrom                                   : XCFun DFT Library      
  Mihaly Kallay                                 : mrcc  (arbitrary order and MRCC methods)
  Frank Weinhold                                : gennbo (NPA and NBO analysis)           
  Simon Mueller                                 : openCOSMO-RS                            
  Christopher J. Cramer and Donald G. Truhlar   : smd solvation model                     
  S Lehtola, MJT Oliveira, MAL Marques          : LibXC Library                           
  Liviu Ungur et al                             : ANISO software                          


 Your calculation uses the libint2 library for the computation of 2-el integrals
 For citations please refer to: http://libint.valeyev.net

 Your ORCA version has been built with support for libXC version: 6.2.2
 For citations please refer to: https://libxc.gitlab.io

 This ORCA versions uses:
   CBLAS   interface :  Fast vector & matrix operations
   LAPACKE interface :  Fast linear algebra routines
   SCALAPACK package :  Parallel linear algebra routines
   Shared memory     :  Shared parallel matrices
   BLAS/LAPACK       :  OpenBLAS 0.3.27  USE64BITINT DYNAMIC_ARCH NO_AFFINITY SkylakeX SINGLE_THREADED
        Core in use  :  SkylakeX
   Copyright (c) 2011-2014, The OpenBLAS Project


Your calculation utilizes the atom-pairwise dispersion correction
based on EEQ partial charges (D4)


================================================================================

cite the ECPs for C  [vDZP-ECP] as follows:
   B-Ne (ecp-2-mwb), Al-Ar (ecp-10-mwb), Ga-Kr (ecp-28-mwb), Y-Cd (ecp-28-mwb), In-Xe (ecp-46-mwb):
     A. Bergner, M. Dolg, W. Küchle, H. Stoll, and H. Preuß, Mol. Phys. 80, 1431 (1993)., T. Leininger, A. Berning, A. Nicklass, H. Stoll, H.-J. Werner, and H.-J.Flad, Chem. Phys. 217, 19 (1997).
   Na-Mg, K-Ca, Rb-Sr, Cs-Ba (CRENBL):
     L. Fernandez Pacios and P. A. Christiansen, J. Chem. Phys. 82, 2664 (1985)., M. M. Hurley, L. F. Pacios, P. A. Christiansen, R. B. Ross, and W. C. Ermler, J. Chem. Phys. 84, 6840 (1986)., L. A. LaJohn, P. A. Christiansen, R. B. Ross, T. Atashroo, and W. C. Ermler, J. Chem. Phys. 87, 2812 (1987)., R. B. Ross, J. M. Powers, T. Atashroo, W. C. Ermler, L. A. LaJohn, and P. A. Christiansen, J. Chem. Phys. 93, 6654 (1990). 
   Sc-Zn (ecp-10-mdf):
     M. Dolg, U. Wedig, H. Stoll, and H. Preuss, J. Chem. Phys. 86, 866 (1986). 
   Y-Cd (ecp-28-mwb), Hf-Hg (ecp-60-mwb):
     D. Andrae, U. Häußermann, M. Dolg, H. Stoll, and H. Preuß, Theor. Chim. Acta 77, 123 (1990). 
   La (ecp-46-mwb):
     M. Dolg, H. Stoll, and H. Preuss, J. Chem. Phys. 90, 1730 (1989)., M. Dolg, H. Stoll, and H. Preuss, Theor. Chim. Acta 85, 441 (1993).
   Ce-Lu (SBKJC-ecp):
     T. R. Cundari and W. J. Stevens, J. Chem. Phys. 98, 5555 (1993).
   Tl-Rn (ecp-78-mwb):
     W. Küchle, M. Dolg, H. Stoll, and H. Preuss, Mol. Phys. 74, 1245 (1991).

ECP parameters for C  [vDZP-ECP] have been obtained from:
MM, AH, SG, J. Chem. Phys. 158, 014103 (2023), 10.1063/5.0133026

----- Orbital basis set information -----
Your calculation utilizes the basis: vDZP
   Marcel Mueller, Andreas Hansen, Stefan Grimme 
   J. Chem. Phys. 158, 014103 (2023). DOI: 10.1063/5.0133026

----- AuxJ basis set information -----
Your calculation utilizes the auxiliary basis: def2/J
   F. Weigend, Phys. Chem. Chem. Phys. 8, 1057 (2006).

================================================================================
                                        WARNINGS
                       Please study these warnings very carefully!
================================================================================

WARNING: Frozen-Core approximation turned on, but there are no core electrons.
  ===> : Turning off frozen-core approximation


WARNING: Geometry Optimization
  ===> : Switching off AutoStart
         For restart on a previous wavefunction, please use MOREAD

================================================================================
                                       INPUT FILE
================================================================================
NAME = ./output/gamma_cadinene/gamma_cadinene.inp
|  1> ! wB97X-3c OPT FREQ TightSCF
|  2> %pal
|  3>   nprocs 40
|  4> end
|  5> * xyz 0 1
|  6> C      2.708256    -2.096968    -1.748056
|  7> C      2.098369    -1.279725    -0.642820
|  8> C      0.773409    -1.065668    -0.613927
|  9> C      0.154617    -0.247478     0.511094
| 10> C      1.016836     1.016585     0.872367
| 11> C      2.523854     0.863296     0.498051
| 12> C      2.958228    -0.600625     0.390113
| 13> C      0.471780     2.344143     0.341330
| 14> C      1.056549     3.492176     0.727044
| 15> C     -0.773639     2.452052    -0.514201
| 16> C     -1.397324     1.112889    -0.906881
| 17> C     -1.340124     0.101813     0.255743
| 18> C     -2.272554    -1.136399     0.000638
| 19> C     -2.001772    -2.296734     0.976953
| 20> C     -3.761218    -0.750491     0.109850
| 21> H      3.810616    -2.164499    -1.637755
| 22> H      2.479244    -1.631465    -2.729985
| 23> H      2.290742    -3.125705    -1.726081
| 24> H      0.152589    -1.490047    -1.396356
| 25> H      0.197724    -0.895767     1.413502
| 26> H      0.974590     1.100057     1.983024
| 27> H      2.726866     1.354608    -0.480678
| 28> H      3.154995     1.369918     1.260342
| 29> H      2.829034    -1.104961     1.372361
| 30> H      4.033032    -0.648344     0.112876
| 31> H      0.672335     4.453129     0.396848
| 32> H      1.920057     3.491160     1.384698
| 33> H     -0.534880     3.016608    -1.442121
| 34> H     -1.532391     3.038691     0.050068
| 35> H     -0.874586     0.709339    -1.800885
| 36> H     -2.440430     1.316343    -1.217788
| 37> H     -1.716023     0.606958     1.175354
| 38> H     -2.107633    -1.518947    -1.029848
| 39> H     -2.043435    -1.940037     2.028490
| 40> H     -1.011523    -2.756655     0.780556
| 41> H     -2.753940    -3.103906     0.845881
| 42> H     -4.061480    -0.049250    -0.692795
| 43> H     -3.975775    -0.287110     1.096660
| 44> H     -4.404997    -1.648984    -0.003667
| 45> *
| 46> 
| 47>                          ****END OF INPUT****
================================================================================

                       *****************************
                       * Geometry Optimization Run *
                       *****************************

Geometry optimization settings:
Update method            Update   .... BFGS
Choice of coordinates    CoordSys .... (2022) Redundant Internals
Initial Hessian          InHess   .... Almloef's Model
Max. no of cycles        MaxIter  .... 117

Convergence Tolerances:
Energy Change            TolE     ....  5.0000e-06 Eh
Max. Gradient            TolMAXG  ....  3.0000e-04 Eh/bohr
RMS Gradient             TolRMSG  ....  1.0000e-04 Eh/bohr
Max. Displacement        TolMAXD  ....  4.0000e-03 bohr
RMS Displacement         TolRMSD  ....  2.0000e-03 bohr
Strict Convergence                .... False

------------------------------------------------------------------------------
                        ORCA OPTIMIZATION COORDINATE SETUP
------------------------------------------------------------------------------

The optimization will be done in redundant internal coordinates (2022)
Making redundant internal coordinates   ...  (2022 redundants) done
Evaluating the initial hessian          ...  (Almloef) done
Evaluating the coordinates              ...  done
Calculating the B-matrix                .... done
Calculating the G-matrix                .... done
Diagonalizing the G-matrix              .... done
Small eigenvalue found = 1.165e-02
Small eigenvalue found = 2.358e-02
Small eigenvalue found = 2.584e-02
The first mode is                       ....   94
The number of degrees of freedom        ....  111

    -----------------------------------------------------------------
                    Redundant Internal Coordinates


    -----------------------------------------------------------------
         Definition                    Initial Value    Approx d2E/dq
    -----------------------------------------------------------------
      1. B(C   1,C   0)                  1.5038         0.411328   
      2. B(C   2,C   1)                  1.3425         0.744047   
      3. B(C   3,C   2)                  1.5225         0.384009   
      4. B(C   4,C   3)                  1.5722         0.319933   
      5. B(C   5,C   4)                  1.5604         0.334153   
      6. B(C   6,C   5)                  1.5308         0.372457   
      7. B(C   6,C   1)                  1.5058         0.408282   
      8. B(C   7,C   4)                  1.5302         0.373307   
      9. B(C   8,C   7)                  1.3449         0.737429   
     10. B(C   9,C   7)                  1.5148         0.395015   
     11. B(C  10,C   9)                  1.5286         0.375537   
     12. B(C  11,C  10)                  1.5418         0.357687   
     13. B(C  11,C   3)                  1.5561         0.339415   
     14. B(C  12,C  11)                  1.5709         0.321478   
     15. B(C  13,C  12)                  1.5404         0.359546   
     16. B(C  14,C  12)                  1.5417         0.357801   
     17. B(H  15,C   0)                  1.1099         0.334688   
     18. B(H  16,C   0)                  1.1106         0.333914   
     19. B(H  17,C   0)                  1.1105         0.334038   
     20. B(H  18,C   2)                  1.0852         0.366474   
     21. B(H  19,C   3)                  1.1120         0.332179   
     22. B(H  20,C   4)                  1.1146         0.328996   
     23. B(H  21,C   5)                  1.1138         0.329974   
     24. B(H  22,C   5)                  1.1118         0.332390   
     25. B(H  23,C   6)                  1.1117         0.332519   
     26. B(H  24,C   6)                  1.1110         0.333353   
     27. B(H  25,C   8)                  1.0863         0.365008   
     28. B(H  26,C   8)                  1.0854         0.366198   
     29. B(H  27,C   9)                  1.1121         0.332021   
     30. B(H  28,C   9)                  1.1128         0.331208   
     31. B(H  29,C  10)                  1.1115         0.332797   
     32. B(H  30,C  10)                  1.1073         0.337919   
     33. B(H  31,C  11)                  1.1145         0.329081   
     34. B(H  32,C  12)                  1.1115         0.332746   
     35. B(H  33,C  13)                  1.1112         0.333156   
     36. B(H  34,C  13)                  1.1094         0.335372   
     37. B(H  35,C  13)                  1.1111         0.333286   
     38. B(H  36,C  14)                  1.1073         0.337914   
     39. B(H  37,C  14)                  1.1111         0.333238   
     40. B(H  38,C  14)                  1.1111         0.333196   
     41. A(C   1,C   0,H  17)          109.6597         0.325448   
     42. A(H  16,C   0,H  17)          109.1646         0.284074   
     43. A(C   1,C   0,H  16)          109.7802         0.325428   
     44. A(H  15,C   0,H  16)          108.5529         0.284160   
     45. A(C   1,C   0,H  15)          111.2741         0.325552   
     46. A(H  15,C   0,H  17)          108.3664         0.284177   
     47. A(C   0,C   1,C   2)          120.1824         0.416715   
     48. A(C   2,C   1,C   6)          118.4838         0.416164   
     49. A(C   0,C   1,C   6)          121.1754         0.375090   
     50. A(C   3,C   2,H  18)          120.6906         0.326733   
     51. A(C   1,C   2,H  18)          119.1266         0.365126   
     52. A(C   1,C   2,C   3)          120.1807         0.411656   
     53. A(C   2,C   3,C  11)          112.9405         0.359140   
     54. A(C   2,C   3,C   4)          112.2704         0.355550   
     55. A(C   2,C   3,H  19)          105.7004         0.321504   
     56. A(C  11,C   3,H  19)          107.5341         0.315098   
     57. A(C   4,C   3,H  19)          105.1296         0.312093   
     58. A(C   4,C   3,C  11)          112.5833         0.348206   
     59. A(C   5,C   4,C   7)          110.2430         0.356470   
     60. A(C   3,C   4,C   5)          113.3009         0.347291   
     61. A(C   3,C   4,H  20)          105.5693         0.311608   
     62. A(C   5,C   4,H  20)          106.4399         0.313810   
     63. A(C   3,C   4,C   7)          114.9892         0.353850   
     64. A(C   7,C   4,H  20)          105.5061         0.319519   
     65. A(C   4,C   5,C   6)          112.6385         0.356332   
     66. A(H  21,C   5,H  22)          107.3387         0.283333   
     67. A(C   6,C   5,H  22)          108.8463         0.319936   
     68. A(C   4,C   5,H  22)          109.8176         0.314332   
     69. A(C   6,C   5,H  21)          107.9486         0.319555   
     70. A(C   4,C   5,H  21)          110.0908         0.313961   
     71. A(H  23,C   6,H  24)          108.2656         0.283799   
     72. A(C   5,C   6,H  24)          109.4616         0.320087   
     73. A(C   1,C   6,H  24)          111.2153         0.324941   
     74. A(C   5,C   6,H  23)          109.7895         0.319956   
     75. A(C   1,C   6,H  23)          109.5806         0.324807   
     76. A(C   1,C   6,C   5)          108.5187         0.368734   
     77. A(C   8,C   7,C   9)          117.3003         0.413071   
     78. A(C   4,C   7,C   9)          123.4121         0.366794   
     79. A(C   4,C   7,C   8)          119.0896         0.408951   
     80. A(H  25,C   8,H  26)          117.7988         0.292230   
     81. A(C   7,C   8,H  26)          121.2574         0.364521   
     82. A(C   7,C   8,H  25)          120.9412         0.364318   
     83. A(C   7,C   9,C  10)          114.7169         0.367168   
     84. A(C  10,C   9,H  28)          108.2956         0.320180   
     85. A(C   7,C   9,H  28)          108.1656         0.322841   
     86. A(C  10,C   9,H  27)          108.5417         0.320308   
     87. A(C   7,C   9,H  27)          109.3230         0.322971   
     88. A(H  27,C   9,H  28)          107.5699         0.283449   
     89. A(H  29,C  10,H  30)          106.4940         0.284437   
     90. A(C   9,C  10,H  30)          107.1888         0.321232   
     91. A(C  11,C  10,H  29)          110.5473         0.317894   
     92. A(C   9,C  10,H  29)          109.4403         0.320431   
     93. A(C   9,C  10,C  11)          111.4480         0.360988   
     94. A(C  11,C  10,H  30)          111.5405         0.318686   
     95. A(C  12,C  11,H  31)          106.9212         0.311864   
     96. A(C  10,C  11,H  31)          108.2071         0.317313   
     97. A(C   3,C  11,H  31)          106.8766         0.314619   
     98. A(C  10,C  11,C  12)          111.8646         0.351586   
     99. A(C   3,C  11,C  12)          114.8272         0.348488   
    100. A(C   3,C  11,C  10)          107.8526         0.354833   
    101. A(C  13,C  12,C  14)          108.2632         0.358342   
    102. A(C  11,C  12,C  14)          111.3666         0.351605   
    103. A(C  11,C  12,C  13)          112.7352         0.351895   
    104. A(C  14,C  12,H  32)          107.1629         0.317902   
    105. A(C  13,C  12,H  32)          107.5938         0.318155   
    106. A(C  11,C  12,H  32)          109.4979         0.312423   
    107. A(H  34,C  13,H  35)          106.3927         0.284167   
    108. A(H  33,C  13,H  35)          108.6306         0.283875   
    109. A(C  12,C  13,H  35)          110.6991         0.318239   
    110. A(H  33,C  13,H  34)          109.5171         0.284150   
    111. A(C  12,C  13,H  34)          110.9156         0.318563   
    112. A(C  12,C  13,H  33)          110.5723         0.318218   
    113. A(H  37,C  14,H  38)          108.4264         0.283873   
    114. A(H  36,C  14,H  38)          106.3155         0.284489   
    115. A(C  12,C  14,H  38)          110.4750         0.317972   
    116. A(H  36,C  14,H  37)          109.1052         0.284495   
    117. A(C  12,C  14,H  37)          110.7172         0.317979   
    118. A(C  12,C  14,H  36)          111.6537         0.318702   
    119. D(C   2,C   1,C   0,H  16)     58.7920         0.012528   
    120. D(C   2,C   1,C   0,H  15)    178.9831         0.012528   
    121. D(C   6,C   1,C   0,H  16)   -116.5647         0.012528   
    122. D(C   2,C   1,C   0,H  17)    -61.1381         0.012528   
    123. D(C   6,C   1,C   0,H  15)      3.6264         0.012528   
    124. D(C   3,C   2,C   1,C   6)     -5.0027         0.039420   
    125. D(H  18,C   2,C   1,C   0)      0.0387         0.039420   
    126. D(C   3,C   2,C   1,C   0)    179.5169         0.039420   
    127. D(H  18,C   2,C   1,C   6)    175.5191         0.039420   
    128. D(H  19,C   3,C   2,C   1)    -72.5322         0.010990   
    129. D(C  11,C   3,C   2,H  18)    -10.3720         0.010990   
    130. D(C  11,C   3,C   2,C   1)    170.1581         0.010990   
    131. D(C   4,C   3,C   2,H  18)   -138.9775         0.010990   
    132. D(C   4,C   3,C   2,C   1)     41.5526         0.010990   
    133. D(C   5,C   4,C   3,C   2)    -24.6458         0.008391   
    134. D(C   7,C   4,C   3,H  19)   -142.1601         0.008391   
    135. D(C   7,C   4,C   3,C  11)    -25.3867         0.008391   
    136. D(C   7,C   4,C   3,C   2)    103.4059         0.008391   
    137. D(C   5,C   4,C   3,H  19)     89.7882         0.008391   
    138. D(C   5,C   4,C   3,C  11)   -153.4384         0.008391   
    139. D(H  21,C   5,C   4,H  20)   -146.6354         0.009070   
    140. D(H  21,C   5,C   4,C   7)    -32.6877         0.009070   
    141. D(H  21,C   5,C   4,C   3)     97.7840         0.009070   
    142. D(C   6,C   5,C   4,H  20)     92.8296         0.009070   
    143. D(C   6,C   5,C   4,C   7)   -153.2227         0.009070   
    144. D(C   6,C   5,C   4,C   3)    -22.7510         0.009070   
    145. D(H  23,C   6,C   1,C   2)     74.5071         0.012350   
    146. D(H  23,C   6,C   1,C   0)   -110.0592         0.012350   
    147. D(C   5,C   6,C   1,C   2)    -45.3681         0.012350   
    148. D(H  24,C   6,C   1,C   0)      9.6053         0.012350   
    149. D(C   5,C   6,C   1,C   0)    130.0655         0.012350   
    150. D(H  23,C   6,C   5,H  22)     60.2060         0.011081   
    151. D(H  23,C   6,C   5,H  21)    176.4105         0.011081   
    152. D(H  23,C   6,C   5,C   4)    -61.8325         0.011081   
    153. D(C   1,C   6,C   5,H  22)    179.9509         0.011081   
    154. D(C   1,C   6,C   5,H  21)    -63.8446         0.011081   
    155. D(C   1,C   6,C   5,C   4)     57.9124         0.011081   
    156. D(C   9,C   7,C   4,C   5)    127.3412         0.010423   
    157. D(C   9,C   7,C   4,C   3)     -2.2292         0.010423   
    158. D(C   8,C   7,C   4,H  20)     56.6263         0.010423   
    159. D(C   8,C   7,C   4,C   5)    -57.9150         0.010423   
    160. D(C   8,C   7,C   4,C   3)    172.5146         0.010423   
    161. D(H  26,C   8,C   7,C   9)    176.6649         0.038657   
    162. D(H  26,C   8,C   7,C   4)      1.6015         0.038657   
    163. D(H  25,C   8,C   7,C   9)     -2.7339         0.038657   
    164. D(H  25,C   8,C   7,C   4)   -177.7972         0.038657   
    165. D(H  28,C   9,C   7,C   4)    116.3959         0.011594   
    166. D(H  27,C   9,C   7,C   8)     58.4188         0.011594   
    167. D(H  27,C   9,C   7,C   4)   -126.7499         0.011594   
    168. D(C  10,C   9,C   7,C   8)   -179.4156         0.011594   
    169. D(C  10,C   9,C   7,C   4)     -4.5843         0.011594   
    170. D(H  29,C  10,C   9,H  28)    155.6220         0.011254   
    171. D(H  29,C  10,C   9,H  27)     39.1191         0.011254   
    172. D(H  29,C  10,C   9,C   7)    -83.4692         0.011254   
    173. D(C  11,C  10,C   9,H  28)    -81.7929         0.011254   
    174. D(C  11,C  10,C   9,H  27)    161.7042         0.011254   
    175. D(C  11,C  10,C   9,C   7)     39.1159         0.011254   
    176. D(C  12,C  11,C   3,C   4)   -175.4438         0.009331   
    177. D(C  12,C  11,C   3,C   2)     56.1129         0.009331   
    178. D(C  10,C  11,C   3,H  19)    174.4304         0.009331   
    179. D(C  10,C  11,C   3,C   4)     59.0984         0.009331   
    180. D(C  12,C  11,C   3,H  19)    -60.1118         0.009331   
    181. D(C  10,C  11,C   3,C   2)    -69.3449         0.009331   
    182. D(C  12,C  11,C  10,H  30)     46.2763         0.010274   
    183. D(C  12,C  11,C  10,H  29)    -72.0130         0.010274   
    184. D(C  12,C  11,C  10,C   9)    166.0399         0.010274   
    185. D(C   3,C  11,C  10,H  30)    173.4734         0.010274   
    186. D(C   3,C  11,C  10,H  29)     55.1841         0.010274   
    187. D(C   3,C  11,C  10,C   9)    -66.7630         0.010274   
    188. D(C  14,C  12,C  11,H  31)     47.3530         0.008463   
    189. D(C  14,C  12,C  11,C  10)    -70.9404         0.008463   
    190. D(C  14,C  12,C  11,C   3)    165.7187         0.008463   
    191. D(C  13,C  12,C  11,H  31)    -74.5711         0.008463   
    192. D(C  13,C  12,C  11,C  10)    167.1355         0.008463   
    193. D(C  13,C  12,C  11,C   3)     43.7947         0.008463   
    194. D(H  34,C  13,C  12,H  32)     52.0836         0.010373   
    195. D(H  34,C  13,C  12,C  14)    167.5915         0.010373   
    196. D(H  34,C  13,C  12,C  11)    -68.7485         0.010373   
    197. D(H  33,C  13,C  12,H  32)    173.7824         0.010373   
    198. D(H  33,C  13,C  12,C  14)    -70.7096         0.010373   
    199. D(H  33,C  13,C  12,C  11)     52.9503         0.010373   
    200. D(H  37,C  14,C  12,H  32)   -175.7207         0.010280   
    201. D(H  37,C  14,C  12,C  13)     68.4905         0.010280   
    202. D(H  37,C  14,C  12,C  11)    -55.9892         0.010280   
    203. D(H  36,C  14,C  12,H  32)    -53.9409         0.010280   
    204. D(H  36,C  14,C  12,C  13)   -169.7298         0.010280   
    205. D(H  36,C  14,C  12,C  11)     65.7905         0.010280   
    -----------------------------------------------------------------

Number of atoms                         .... 39
Number of degrees of freedom            .... 205


         *************************************************************
         *                GEOMETRY OPTIMIZATION CYCLE   1            *
         *************************************************************
---------------------------------
CARTESIAN COORDINATES (ANGSTROEM)
---------------------------------
  C      2.708256   -2.096968   -1.748056
  C      2.098369   -1.279725   -0.642820
  C      0.773409   -1.065668   -0.613927
  C      0.154617   -0.247478    0.511094
  C      1.016836    1.016585    0.872367
  C      2.523854    0.863296    0.498051
  C      2.958228   -0.600625    0.390113
  C      0.471780    2.344143    0.341330
  C      1.056549    3.492176    0.727044
  C     -0.773639    2.452052   -0.514201
  C     -1.397324    1.112889   -0.906881
  C     -1.340124    0.101813    0.255743
  C     -2.272554   -1.136399    0.000638
  C     -2.001772   -2.296734    0.976953
  C     -3.761218   -0.750491    0.109850
  H      3.810616   -2.164499   -1.637755
  H      2.479244   -1.631465   -2.729985
  H      2.290742   -3.125705   -1.726081
  H      0.152589   -1.490047   -1.396356
  H      0.197724   -0.895767    1.413502
  H      0.974590    1.100057    1.983024
  H      2.726866    1.354608   -0.480678
  H      3.154995    1.369918    1.260342
  H      2.829034   -1.104961    1.372361
  H      4.033032   -0.648344    0.112876
  H      0.672335    4.453129    0.396848
  H      1.920057    3.491160    1.384698
  H     -0.534880    3.016608   -1.442121
  H     -1.532391    3.038691    0.050068
  H     -0.874586    0.709339   -1.800885
  H     -2.440430    1.316343   -1.217788
  H     -1.716023    0.606958    1.175354
  H     -2.107633   -1.518947   -1.029848
  H     -2.043435   -1.940037    2.028490
  H     -1.011523   -2.756655    0.780556
  H     -2.753940   -3.103906    0.845881
  H     -4.061480   -0.049250   -0.692795
  H     -3.975775   -0.287110    1.096660
  H     -4.404997   -1.648984   -0.003667

----------------------------
CARTESIAN COORDINATES (A.U.)
----------------------------
  NO LB      ZA    FRAG     MASS         X           Y           Z
   0 C     4.0000*   0    12.011    5.117862   -3.962695   -3.303347
   1 C     4.0000*   0    12.011    3.965343   -2.418330   -1.214754
   2 C     4.0000*   0    12.011    1.461531   -2.013821   -1.160154
   3 C     4.0000*   0    12.011    0.292184   -0.467666    0.965828
   4 C     4.0000*   0    12.011    1.921542    1.921067    1.648535
   5 C     4.0000*   0    12.011    4.769393    1.631393    0.941180
   6 C     4.0000*   0    12.011    5.590241   -1.135017    0.737207
   7 C     4.0000*   0    12.011    0.891535    4.429788    0.645020
   8 C     4.0000*   0    12.011    1.996588    6.599256    1.373914
   9 C     4.0000*   0    12.011   -1.461966    4.633707   -0.971699
  10 C     4.0000*   0    12.011   -2.640560    2.103055   -1.713757
  11 C     4.0000*   0    12.011   -2.532467    0.192399    0.483284
  12 C     4.0000*   0    12.011   -4.294505   -2.147483    0.001206
  13 C     4.0000*   0    12.011   -3.782801   -4.340198    1.846174
  14 C     4.0000*   0    12.011   -7.107672   -1.418222    0.207586
  15 H     1.0000    0     1.008    7.201021   -4.090310   -3.094908
  16 H     1.0000    0     1.008    4.685092   -3.083022   -5.158924
  17 H     1.0000    0     1.008    4.328875   -5.906726   -3.261820
  18 H     1.0000    0     1.008    0.288351   -2.815781   -2.638730
  19 H     1.0000    0     1.008    0.373644   -1.692754    2.671132
  20 H     1.0000    0     1.008    1.841708    2.078806    3.747372
  21 H     1.0000    0     1.008    5.153030    2.559838   -0.908350
  22 H     1.0000    0     1.008    5.962077    2.588770    2.381701
  23 H     1.0000    0     1.008    5.346099   -2.088074    2.593386
  24 H     1.0000    0     1.008    7.621326   -1.225193    0.213305
  25 H     1.0000    0     1.008    1.270529    8.415194    0.749934
  26 H     1.0000    0     1.008    3.628382    6.597336    2.616700
  27 H     1.0000    0     1.008   -1.010777    5.700563   -2.725214
  28 H     1.0000    0     1.008   -2.895799    5.742294    0.094615
  29 H     1.0000    0     1.008   -1.652728    1.340456   -3.403179
  30 H     1.0000    0     1.008   -4.611744    2.487528   -2.301286
  31 H     1.0000    0     1.008   -3.242814    1.146984    2.221097
  32 H     1.0000    0     1.008   -3.982849   -2.870394   -1.946131
  33 H     1.0000    0     1.008   -3.861533   -3.666139    3.833291
  34 H     1.0000    0     1.008   -1.911501   -5.209323    1.475037
  35 H     1.0000    0     1.008   -5.204192   -5.865532    1.598483
  36 H     1.0000    0     1.008   -7.675085   -0.093069   -1.309193
  37 H     1.0000    0     1.008   -7.513126   -0.542559    2.072387
  38 H     1.0000    0     1.008   -8.324238   -3.116128   -0.006930
* core charge reduced due to ECP

--------------------------------
INTERNAL COORDINATES (ANGSTROEM)
--------------------------------
 C      0   0   0     0.000000000000     0.00000000     0.00000000
 C      1   0   0     1.503793499625     0.00000000     0.00000000
 C      2   1   0     1.342450820812   120.18243507     0.00000000
 C      3   2   1     1.522501450182   120.18070620   179.51685392
 C      4   3   2     1.572194343095   112.27043398    41.55262415
 C      5   4   3     1.560356766160   113.30092577   335.35419623
 C      2   1   3     1.505817018223   121.17538210   184.64328175
 C      5   4   3     1.530194948975   114.98923290   103.40587914
 C      8   5   4     1.344882835881   119.08963040   172.51462655
 C      8   5   4     1.514808941683   123.41210145   357.77081980
 C     10   8   5     1.528573878553   114.71692060   355.41568352
 C     11  10   8     1.541830432684   111.44803548    39.11588442
 C     12  11  10     1.570882943720   111.86458373   166.03992590
 C     13  12  11     1.540419158208   112.73517096   167.13554641
 C     13  12  11     1.541743412603   111.36656578   289.05957866
 H      1   2   3     1.109920860315   111.27406365   178.98308056
 H      1   2   3     1.110551259598   109.78020046    58.79201613
 H      1   2   3     1.110450654460   109.65965052   298.86192918
 H      3   2   1     1.085223547515   119.12662478     0.03870419
 H      4   3   2     1.111969891424   105.70035534   287.46779464
 H      5   4   3     1.114590180716   105.56933667   219.25796345
 H      6   5   4     1.113782657851   110.09081414    97.78400466
 H      6   5   4     1.111796915559   109.81758946   215.76095947
 H      7   2   1     1.111691065016   109.58060459   249.94075046
 H      7   2   1     1.111009043863   111.21533089     9.60531422
 H      9   8   5     1.086315085240   120.94121302   182.20280367
 H      9   8   5     1.085428893128   121.25737321     1.60151971
 H     10   8   5     1.112099304746   109.32304753   233.25008919
 H     10   8   5     1.112766560509   108.16556258   116.39588160
 H     11  10   8     1.111463346746   109.44027992   276.53078676
 H     11  10   8     1.107306109439   107.18877615   161.42218672
 H     12  11  10     1.114520489066   108.20714563    48.51505430
 H     13  12  11     1.111504972882   109.49787079    47.39729951
 H     14  13  12     1.111169931985   110.57231857    52.95033177
 H     14  13  12     1.109365670034   110.91555416   291.25145975
 H     14  13  12     1.111063997703   110.69910904   173.38713379
 H     15  13  12     1.107309895535   111.65370518    65.79052159
 H     15  13  12     1.111103340608   110.71723450   304.01079672
 H     15  13  12     1.111137786766   110.47504368   183.88185862

---------------------------
INTERNAL COORDINATES (A.U.)
---------------------------
 C      0   0   0     0.000000000000     0.00000000     0.00000000
 C      1   0   0     2.841757876262     0.00000000     0.00000000
 C      2   1   0     2.536864399592   120.18243507     0.00000000
 C      3   2   1     2.877110779341   120.18070620   179.51685392
 C      4   3   2     2.971016737749   112.27043398    41.55262415
 C      5   4   3     2.948646959253   113.30092577   335.35419623
 C      2   1   3     2.845581772239   121.17538210   184.64328175
 C      5   4   3     2.891649385073   114.98923290   103.40587914
 C      8   5   4     2.541460242026   119.08963040   172.51462655
 C      8   5   4     2.862574044996   123.41210145   357.77081980
 C     10   8   5     2.888586005931   114.71692060   355.41568352
 C     11  10   8     2.913637262719   111.44803548    39.11588442
 C     12  11  10     2.968538552078   111.86458373   166.03992590
 C     13  12  11     2.910970340458   112.73517096   167.13554641
 C     13  12  11     2.913472818596   111.36656578   289.05957866
 H      1   2   3     2.097446456321   111.27406365   178.98308056
 H      1   2   3     2.098637738321   109.78020046    58.79201613
 H      1   2   3     2.098447622162   109.65965052   298.86192918
 H      3   2   1     2.050775298887   119.12662478     0.03870419
 H      4   3   2     2.101318563958   105.70035534   287.46779464
 H      5   4   3     2.106270193111   105.56933667   219.25796345
 H      6   5   4     2.104744196049   110.09081414    97.78400466
 H      6   5   4     2.100991686944   109.81758946   215.76095947
 H      7   2   1     2.100791658407   109.58060459   249.94075046
 H      7   2   1     2.099502825211   111.21533089     9.60531422
 H      9   8   5     2.052838006252   120.94121302   182.20280367
 H      9   8   5     2.051163345856   121.25737321     1.60151971
 H     10   8   5     2.101563119695   109.32304753   233.25008919
 H     10   8   5     2.102824050347   108.16556258   116.39588160
 H     11  10   8     2.100361333242   109.44027992   276.53078676
 H     11  10   8     2.092505293258   107.18877615   161.42218672
 H     12  11  10     2.106138494978   108.20714563    48.51505430
 H     13  12  11     2.100439995238   109.49787079    47.39729951
 H     14  13  12     2.099806859699   110.57231857    52.95033177
 H     14  13  12     2.096397298739   110.91555416   291.25145975
 H     14  13  12     2.099606672919   110.69910904   173.38713379
 H     15  13  12     2.092512447942   111.65370518    65.79052159
 H     15  13  12     2.099681020234   110.71723450   304.01079672
 H     15  13  12     2.099746114039   110.47504368   183.88185862

---------------------
BASIS SET INFORMATION
---------------------
There are 2 groups of distinct atoms

 Group   1 Type C   : 6s6p2d contracted to 2s2p1d pattern {42/42/2}
 Group   2 Type H   : 8s2p contracted to 2s1p pattern {53/2}

Atom   0C    basis set group =>   1
Atom   1C    basis set group =>   1
Atom   2C    basis set group =>   1
Atom   3C    basis set group =>   1
Atom   4C    basis set group =>   1
Atom   5C    basis set group =>   1
Atom   6C    basis set group =>   1
Atom   7C    basis set group =>   1
Atom   8C    basis set group =>   1
Atom   9C    basis set group =>   1
Atom  10C    basis set group =>   1
Atom  11C    basis set group =>   1
Atom  12C    basis set group =>   1
Atom  13C    basis set group =>   1
Atom  14C    basis set group =>   1
Atom  15H    basis set group =>   2
Atom  16H    basis set group =>   2
Atom  17H    basis set group =>   2
Atom  18H    basis set group =>   2
Atom  19H    basis set group =>   2
Atom  20H    basis set group =>   2
Atom  21H    basis set group =>   2
Atom  22H    basis set group =>   2
Atom  23H    basis set group =>   2
Atom  24H    basis set group =>   2
Atom  25H    basis set group =>   2
Atom  26H    basis set group =>   2
Atom  27H    basis set group =>   2
Atom  28H    basis set group =>   2
Atom  29H    basis set group =>   2
Atom  30H    basis set group =>   2
Atom  31H    basis set group =>   2
Atom  32H    basis set group =>   2
Atom  33H    basis set group =>   2
Atom  34H    basis set group =>   2
Atom  35H    basis set group =>   2
Atom  36H    basis set group =>   2
Atom  37H    basis set group =>   2
Atom  38H    basis set group =>   2
---------------------------------
AUXILIARY/J BASIS SET INFORMATION
---------------------------------
There are 2 groups of distinct atoms

 Group   1 Type C   : 12s5p4d2f1g contracted to 6s4p3d1f1g pattern {711111/2111/211/2/1}
 Group   2 Type H   : 5s2p1d contracted to 3s1p1d pattern {311/2/1}

Atom   0C    basis set group =>   1
Atom   1C    basis set group =>   1
Atom   2C    basis set group =>   1
Atom   3C    basis set group =>   1
Atom   4C    basis set group =>   1
Atom   5C    basis set group =>   1
Atom   6C    basis set group =>   1
Atom   7C    basis set group =>   1
Atom   8C    basis set group =>   1
Atom   9C    basis set group =>   1
Atom  10C    basis set group =>   1
Atom  11C    basis set group =>   1
Atom  12C    basis set group =>   1
Atom  13C    basis set group =>   1
Atom  14C    basis set group =>   1
Atom  15H    basis set group =>   2
Atom  16H    basis set group =>   2
Atom  17H    basis set group =>   2
Atom  18H    basis set group =>   2
Atom  19H    basis set group =>   2
Atom  20H    basis set group =>   2
Atom  21H    basis set group =>   2
Atom  22H    basis set group =>   2
Atom  23H    basis set group =>   2
Atom  24H    basis set group =>   2
Atom  25H    basis set group =>   2
Atom  26H    basis set group =>   2
Atom  27H    basis set group =>   2
Atom  28H    basis set group =>   2
Atom  29H    basis set group =>   2
Atom  30H    basis set group =>   2
Atom  31H    basis set group =>   2
Atom  32H    basis set group =>   2
Atom  33H    basis set group =>   2
Atom  34H    basis set group =>   2
Atom  35H    basis set group =>   2
Atom  36H    basis set group =>   2
Atom  37H    basis set group =>   2
Atom  38H    basis set group =>   2
-------------------------
ECP PARAMETER INFORMATION
-------------------------

 Group 1, Type C  ECP vDZP-ECP (replacing 2 core electrons, lmax=3)

Atom   0C    ECP group =>   1
Atom   1C    ECP group =>   1
Atom   2C    ECP group =>   1
Atom   3C    ECP group =>   1
Atom   4C    ECP group =>   1
Atom   5C    ECP group =>   1
Atom   6C    ECP group =>   1
Atom   7C    ECP group =>   1
Atom   8C    ECP group =>   1
Atom   9C    ECP group =>   1
Atom  10C    ECP group =>   1
Atom  11C    ECP group =>   1
Atom  12C    ECP group =>   1
Atom  13C    ECP group =>   1
Atom  14C    ECP group =>   1



           ************************************************************
           *        Program running with 40 parallel MPI-processes    *
           *              working on a common directory               *
           ************************************************************
------------------------------------------------------------------------------
                             ORCA STARTUP CALCULATIONS
                           -- RI-GTO INTEGRALS CHOSEN --
------------------------------------------------------------------------------
------------------------------------------------------------------------------
                   ___                                                        
                  /   \      - P O W E R E D   B Y -                         
                 /     \                                                     
                 |  |  |   _    _      __       _____    __    __             
                 |  |  |  | |  | |    /  \     |  _  \  |  |  /  |          
                  \  \/   | |  | |   /    \    | | | |  |  | /  /          
                 / \  \   | |__| |  /  /\  \   | |_| |  |  |/  /          
                |  |  |   |  __  | /  /__\  \  |    /   |      \           
                |  |  |   | |  | | |   __   |  |    \   |  |\   \          
                \     /   | |  | | |  |  |  |  | |\  \  |  | \   \       
                 \___/    |_|  |_| |__|  |__|  |_| \__\ |__|  \__/        
                                                                              
                      - O R C A' S   B I G   F R I E N D -                    
                                      &                                       
                       - I N T E G R A L  F E E D E R -                       
                                                                              
 v1 FN, 2020, v2 2021, v3 2022-2024                                           
------------------------------------------------------------------------------


----------------------
SHARK INTEGRAL PACKAGE
----------------------

Number of atoms                             ...     39
Number of basis functions                   ...    315
Number of shells                            ...    147
Maximum angular momentum                    ...      2
Integral batch strategy                     ... SHARK/LIBINT Hybrid
RI-J (if used) integral strategy            ... SPLIT-RIJ (Revised 2003 algorithm where possible)
Printlevel                                  ...      1
Contraction scheme used                     ... SEGMENTED contraction
Prescreening option                         ... SCHWARTZ
   Thresh                                   ... 2.500e-11
   Tcut                                     ... 2.500e-12
   Tpresel                                  ... 2.500e-12 
Coulomb Range Separation                    ... NOT USED
Exchange Range Separation                   ... Long Range
   Mu parameter                             ... 3.000e-01
   Scaling (regular/separated)              ... 1.670e-01 8.330e-01
Multipole approximations                    ... NOT USED
Finite Nucleus Model                        ... NOT USED
CABS basis                                  ... NOT available
Auxiliary Coulomb fitting basis             ... AVAILABLE
   # of basis functions in Aux-J            ...    999
   # of shells in Aux-J                     ...    345
   Maximum angular momentum in Aux-J        ...      4
Auxiliary J/K fitting basis                 ... NOT available
Auxiliary Correlation fitting basis         ... NOT available
Auxiliary 'external' fitting basis          ... NOT available

Checking pre-screening integrals            ... done (  0.0 sec) Dimension = 147
Check shell pair data                       ... done (  0.0 sec)
Shell pair information
Shell pair cut-off parameter TPreSel        ...   2.5e-12
Total number of shell pairs                 ...     10878
Shell pairs after pre-screening             ...     10808
Total number of primitive shell pairs       ...    102036
Primitive shell pairs kept                  ...     77407
          la=0 lb=0:   3069 shell pairs
          la=1 lb=0:   4183 shell pairs
          la=1 lb=1:   1456 shell pairs
          la=2 lb=0:   1170 shell pairs
          la=2 lb=1:    810 shell pairs
          la=2 lb=2:    120 shell pairs

Calculating one electron integrals          ... done (  0.0 sec)
Calculating ECP integrals                   ... done (  0.2 sec)
Calculating RI/J V-Matrix + Cholesky decomp.... done (  0.0 sec)
Calculating Nuclear repulsion               ... done (  0.0 sec) ENN=    566.271957048845 Eh

Diagonalization of the overlap matrix:
Smallest eigenvalue                        ... 8.909e-04
Time for diagonalization                   ...    0.014 sec
Threshold for overlap eigenvalues          ... 1.000e-07
Number of eigenvalues below threshold      ... 0
Time for construction of square roots      ...    0.010 sec
Total time needed                          ...    0.027 sec

-------------------
DFT GRID GENERATION
-------------------

General Integration Accuracy     IntAcc      ... 4.388
Radial Grid Type                 RadialGrid  ... OptM3 with GC (2021)
Angular Grid (max. ang.)         AngularGrid ... 4 (Lebedev-302)
Angular grid pruning method      GridPruning ... 4 (adaptive)
Weight generation scheme         WeightScheme... mBecke (2022)
Basis function cutoff            BFCut       ... 1.0000e-11
Integration weight cutoff        WCut        ... 1.0000e-14
Partially contracted basis set               ... off
Rotationally invariant grid construction     ... off
Angular grids for H and He will be reduced by one unit

Total number of grid points                  ...   164922
Total number of batches                      ...     2596
Average number of points per batch           ...       63
Average number of grid points per atom       ...     4229

--------------------
COSX GRID GENERATION
--------------------

GRIDX 1
-------
General Integration Accuracy     IntAcc      ... 3.816
Radial Grid Type                 RadialGrid  ... OptM3 with GC (2021)
Angular Grid (max. ang.)         AngularGrid ... 1 (Lebedev-50)
Angular grid pruning method      GridPruning ... 4 (adaptive)
Weight generation scheme         WeightScheme... mBecke (2022)
Basis function cutoff            BFCut       ... 1.0000e-11
Integration weight cutoff        WCut        ... 1.0000e-14
Partially contracted basis set               ... on
Rotationally invariant grid construction     ... off
Angular grids for H and He will be reduced by one unit

Total number of grid points                  ...    21039
Total number of batches                      ...      190
Average number of points per batch           ...      110
Average number of grid points per atom       ...      539
UseSFitting                                  ... on

GRIDX 2
-------
General Integration Accuracy     IntAcc      ... 4.020
Radial Grid Type                 RadialGrid  ... OptM3 with GC (2021)
Angular Grid (max. ang.)         AngularGrid ... 2 (Lebedev-110)
Angular grid pruning method      GridPruning ... 4 (adaptive)
Weight generation scheme         WeightScheme... mBecke (2022)
Basis function cutoff            BFCut       ... 1.0000e-11
Integration weight cutoff        WCut        ... 1.0000e-14
Partially contracted basis set               ... on
Rotationally invariant grid construction     ... off
Angular grids for H and He will be reduced by one unit

Total number of grid points                  ...    43524
Total number of batches                      ...      358
Average number of points per batch           ...      121
Average number of grid points per atom       ...     1116
UseSFitting                                  ... on

GRIDX 3
-------
General Integration Accuracy     IntAcc      ... 4.338
Radial Grid Type                 RadialGrid  ... OptM3 with GC (2021)
Angular Grid (max. ang.)         AngularGrid ... 3 (Lebedev-194)
Angular grid pruning method      GridPruning ... 4 (adaptive)
Weight generation scheme         WeightScheme... mBecke (2022)
Basis function cutoff            BFCut       ... 1.0000e-11
Integration weight cutoff        WCut        ... 1.0000e-14
Partially contracted basis set               ... on
Rotationally invariant grid construction     ... off
Angular grids for H and He will be reduced by one unit

Total number of grid points                  ...    94510
Total number of batches                      ...      759
Average number of points per batch           ...      124
Average number of grid points per atom       ...     2423
UseSFitting                                  ... on
Initializing property integral containers    ... done (  0.0 sec)

SHARK setup successfully completed in   5.5 seconds

Maximum memory used throughout the entire STARTUP-calculation: 51.7 MB


           ************************************************************
           *        Program running with 40 parallel MPI-processes    *
           *              working on a common directory               *
           ************************************************************
-------------------------------------------------------------------------------
                                 ORCA GUESS
                   Start orbitals & Density for SCF / CASSCF
-------------------------------------------------------------------------------

------------
SCF SETTINGS
------------
Hamiltonian:
 Density Functional     Method          .... DFT(GTOs)
 Exchange Functional    Exchange        .... WB97X-V
 Correlation Functional Correlation     .... WB97X-V
 Gradients option       PostSCFGGA      .... off
 Hybrid DFT is turned on
   Fraction HF Exchange ScalHFX         ....  0.167000
   Scaling of DF-GGA-X  ScalDFX         ....  0.000000
   Scaling of DF-GGA-C  ScalDFC         ....  1.000000
   Scaling of DF-LDA-C  ScalLDAC        ....  1.000000
   Perturbative correction              ....  0.000000
 Long-range corrected/Screened/Range-Separated Hybrid DFT is turned on
   Amount of maximum screened exact exchange              ....  0.833000
   Range separation parameter mu (erf(mu*r12)/r12)        ....  0.300000
   NL short-range parameter             ....  6.000000
   NL long-range parameter              ....  0.010000
 RI-approximation to the Coulomb term is turned on
   Number of AuxJ basis functions       .... 999
   RIJ-COSX (HFX calculated with COS-X)).... on


General Settings:
 Integral files         IntName         .... ./output/gamma_cadinene/gamma_cadinene
 Hartree-Fock type      HFTyp           .... RHF
 Total Charge           Charge          ....    0
 Multiplicity           Mult            ....    1
 Number of Electrons    NEL             ....   84
 Basis Dimension        Dim             ....  315
 Nuclear Repulsion      ENuc            ....    566.2719570488 Eh

Convergence Acceleration:
 AO-DIIS                CNVDIIS         .... on
   Start iteration      DIISMaxIt       ....    12
   Startup error        DIISStart       ....  0.200000
   # of expansion vecs  DIISMaxEq       ....     5
   Bias factor          DIISBfac        ....   1.050
   Max. coefficient     DIISMaxC        ....  10.000
 MO-DIIS                CNVKDIIS        .... off
 Trust-Rad. Augm. Hess. CNVTRAH         .... auto
   Auto Start mean grad. ratio tolernc. ....  1.125000
   Auto Start start iteration           ....    50
   Auto Start num. interpolation iter.  ....    10
   Max. Number of Micro iterations      ....    24
   Max. Number of Macro iterations      .... Maxiter - #DIIS iter
   Number of Davidson start vectors     ....     2
   Converg. threshold    (grad. norm)   ....   1.000e-05
   Grad. Scal. Fac. for Micro threshold ....   0.100
   Minimum threshold for Micro iter.    ....   1.000e-02
   NR start threshold (gradient norm)   ....   1.000e-04
   Initial trust radius                 ....   0.400
   Minimum AH scaling param. (alpha)    ....   1.000
   Maximum AH scaling param. (alpha)    .... 1000.000
   Quad. conv. algorithm                .... NR
   White noise on init. David. guess    .... on
   Maximum white noise                  ....   0.010
   Pseudo random numbers                .... off
   Inactive MOs                         .... canonical
   Orbital update algorithm             .... Taylor
   Preconditioner                       .... Diag
   Full preconditioner red. dimension   ....   250
 SOSCF                  CNVSOSCF        .... on
   Start iteration      SOSCFMaxIt      ....   150
   Startup grad/error   SOSCFStart      ....  0.003300
   Hessian update       SOSCFHessUp     .... L-BFGS
 Level Shifting         CNVShift        .... on
   Level shift para.    LevelShift      ....    0.2500
   Turn off err/grad.   ShiftErr        ....    0.0010
 Zerner damping         CNVZerner       .... off
 Static damping         CNVDamp         .... on
   Fraction old density DampFac         ....    0.7000
   Max. Damping (<1)    DampMax         ....    0.9800
   Min. Damping (>=0)   DampMin         ....    0.0000
   Turn off err/grad.   DampErr         ....    0.1000

SCF Procedure:
 Maximum # iterations   MaxIter         ....   125
 SCF integral mode      SCFMode         .... Direct
   Integral package                     .... SHARK and LIBINT hybrid scheme
 Reset frequency        DirectResetFreq ....    20
 Integral Threshold     Thresh          ....  2.500e-11 Eh
 Primitive CutOff       TCut            ....  2.500e-12 Eh

Convergence Tolerance:
 Convergence Check Mode ConvCheckMode   .... Total+1el-Energy
 Convergence forced     ConvForced      .... 0
 Energy Change          TolE            ....  1.000e-08 Eh
 1-El. energy change                    ....  1.000e-05 Eh
 Orbital Gradient       TolG            ....  1.000e-05
 Orbital Rotation angle TolX            ....  1.000e-05
 DIIS Error             TolErr          ....  5.000e-07

------------------------------
INITIAL GUESS: MODEL POTENTIAL
------------------------------
Loading Hartree-Fock densities                     ... done
Atomic calculation to generate a density for atom 0 (C  with ECP)
  Multiplicity assumed   :    1
  Atomic configuration   : 1s2 2s2 2p2 
  Number of open shells  : 1
  Command: /home/aspe232/Project/Software/ORCA/6_0_1/build/orca ./output/gamma_cadinene/gamma_cadinene_atom6.inp "" > ./output/gamma_cadinene/gamma_cadinene_atom6.out
Returned from the atomic calculation with res=0
Calculating cut-offs                               ... done
Initializing the effective Hamiltonian             ... done
Setting up the integral package (SHARK)            ... done
Starting the Coulomb interaction                   ... done (   0.1 sec)
Making the grid                                    ... done (   1.0 sec)
Mapping shells                                     ... done
Starting the XC term evaluation                    ... done (   0.1 sec)
  promolecular density results
     # of electrons  =    113.976692373
     EX              =    -55.371336372
     EC              =     -4.559391014
     EX+EC           =    -59.930727387
Transforming the Hamiltonian                       ... done (   0.0 sec)
Diagonalizing the Hamiltonian                      ... done (   0.0 sec)
Back transforming the eigenvectors                 ... done (   0.0 sec)
Now organizing SCF variables                       ... done
                      ------------------
                      INITIAL GUESS DONE (   1.9 sec)
                      ------------------
             **** ENERGY FILE WAS UPDATED (./output/gamma_cadinene/gamma_cadinene.en.tmp) ****
Finished Guess after   2.9 sec
Maximum memory used throughout the entire GUESS-calculation: 34.6 MB


           ************************************************************
           *        Program running with 40 parallel MPI-processes    *
           *              working on a common directory               *
           ************************************************************

-------------------------------------------------------------------------------------------
                                      ORCA LEAN-SCF
                              memory conserving SCF solver
-------------------------------------------------------------------------------------------

----------------------------------------D-I-I-S--------------------------------------------
Iteration    Energy (Eh)           Delta-E    RMSDP     MaxDP     DIISErr   Damp  Time(sec)
-------------------------------------------------------------------------------------------
               ***  Starting incremental Fock matrix formation  ***
    1    -99.1976794479954833     0.00e+00  3.45e-03  8.22e-02  1.84e-01  0.700   8.7
    2    -99.4637045415743160    -2.66e-01  2.52e-03  5.96e-02  1.13e-01  0.700   5.9
                               ***Turning on AO-DIIS***
    3    -99.6031531611106402    -1.39e-01  1.32e-03  3.03e-02  6.14e-02  0.700   6.0
    4    -99.6853476187371825    -8.22e-02  2.85e-03  6.19e-02  3.84e-02  0.000   6.1
    5    -99.8577237943326281    -1.72e-01  2.09e-04  6.40e-03  6.28e-03  0.000   6.3
                              *** Initializing SOSCF ***
---------------------------------------S-O-S-C-F--------------------------------------
Iteration    Energy (Eh)           Delta-E    RMSDP     MaxDP     MaxGrad    Time(sec)
--------------------------------------------------------------------------------------
    6    -99.8581879466704549    -4.64e-04  9.98e-05  1.98e-03  1.93e-03     5.8
               *** Restarting incremental Fock matrix formation ***
    7    -99.8582986642716151    -1.11e-04  5.87e-05  1.27e-03  2.66e-04     8.2
    8    -99.8583135528608636    -1.49e-05  3.76e-05  9.63e-04  3.96e-04     7.4
    9    -99.8583183463188107    -4.79e-06  1.22e-05  2.05e-04  5.46e-05     7.2
   10    -99.8583187687407872    -4.22e-07  2.87e-06  6.51e-05  1.38e-05     6.9
   11    -99.8583187757403721    -7.00e-09  8.50e-07  2.66e-05  1.18e-05     6.4
                 **** Energy Check signals convergence ****

               *****************************************************
               *                     SUCCESS                       *
               *           SCF CONVERGED AFTER  11 CYCLES          *
               *****************************************************

Recomputing exchange energy using gridx3       ... done (    9.643 sec)
Old exchange energy                            :    -15.884473082 Eh
New exchange energy                            :    -15.884517410 Eh
Exchange energy change after final integration :     -0.000044327 Eh
Total energy after final integration           :    -99.858363103 Eh
             **** ENERGY FILE WAS UPDATED (./output/gamma_cadinene/gamma_cadinene.en.tmp) ****

----------------
TOTAL SCF ENERGY
----------------

Total Energy       :        -99.85836310275570 Eh           -2717.28420 eV

Components:
Nuclear Repulsion  :        566.27195704884548 Eh           15409.04333 eV
Electronic Energy  :       -666.13027582458585 Eh          -18126.32633 eV
One Electron Energy:      -1271.48921817512019 Eh          -34598.98060 eV
Two Electron Energy:        605.35894235053433 Eh           16472.65427 eV

Virial components:
Potential Energy   :       -177.72599971252154 Eh           -4836.17032 eV
Kinetic Energy     :         77.86763660976584 Eh            2118.88611 eV
Virial Ratio       :          2.28241163402964

DFT components:
N(Alpha)           :       42.000022264420 electrons
N(Beta)            :       42.000022264420 electrons
N(Total)           :       84.000044528840 electrons
E(X)               :      -16.073897938165 Eh       
E(C)               :       -3.136357240994 Eh       
E(XC)              :      -19.210255179159 Eh       

---------------
SCF CONVERGENCE
---------------

  Last Energy change         ...    6.9996e-09  Tolerance :   1.0000e-08
  Last MAX-Density change    ...    2.6631e-05  Tolerance :   1.0000e-07
  Last RMS-Density change    ...    8.4990e-07  Tolerance :   5.0000e-09
  Last DIIS Error            ...    1.9287e-03  Tolerance :   5.0000e-07
  Last Orbital Gradient      ...    1.1819e-05  Tolerance :   1.0000e-05
  Last Orbital Rotation      ...    2.9684e-05  Tolerance :   1.0000e-05


----------------
ORBITAL ENERGIES
----------------

  NO   OCC          E(Eh)            E(eV) 
   0   2.0000      -0.995273       -27.0828 
   1   2.0000      -0.954584       -25.9755 
   2   2.0000      -0.937826       -25.5195 
   3   2.0000      -0.894527       -24.3413 
   4   2.0000      -0.883571       -24.0432 
   5   2.0000      -0.861381       -23.4394 
   6   2.0000      -0.811883       -22.0924 
   7   2.0000      -0.806253       -21.9393 
   8   2.0000      -0.790389       -21.5076 
   9   2.0000      -0.749436       -20.3932 
  10   2.0000      -0.715558       -19.4713 
  11   2.0000      -0.708402       -19.2766 
  12   2.0000      -0.673766       -18.3341 
  13   2.0000      -0.649209       -17.6659 
  14   2.0000      -0.615425       -16.7466 
  15   2.0000      -0.585737       -15.9387 
  16   2.0000      -0.579788       -15.7768 
  17   2.0000      -0.566581       -15.4175 
  18   2.0000      -0.560326       -15.2473 
  19   2.0000      -0.553763       -15.0687 
  20   2.0000      -0.547131       -14.8882 
  21   2.0000      -0.530731       -14.4419 
  22   2.0000      -0.524334       -14.2678 
  23   2.0000      -0.515357       -14.0236 
  24   2.0000      -0.509445       -13.8627 
  25   2.0000      -0.500996       -13.6328 
  26   2.0000      -0.496075       -13.4989 
  27   2.0000      -0.490409       -13.3447 
  28   2.0000      -0.479339       -13.0435 
  29   2.0000      -0.470784       -12.8107 
  30   2.0000      -0.464076       -12.6282 
  31   2.0000      -0.456178       -12.4132 
  32   2.0000      -0.450694       -12.2640 
  33   2.0000      -0.440152       -11.9772 
  34   2.0000      -0.435295       -11.8450 
  35   2.0000      -0.428416       -11.6578 
  36   2.0000      -0.422963       -11.5094 
  37   2.0000      -0.405384       -11.0311 
  38   2.0000      -0.393797       -10.7158 
  39   2.0000      -0.383367       -10.4320 
  40   2.0000      -0.331888        -9.0311 
  41   2.0000      -0.321246        -8.7416 
  42   0.0000       0.071123         1.9353 
  43   0.0000       0.083264         2.2657 
  44   0.0000       0.085174         2.3177 
  45   0.0000       0.096411         2.6235 
  46   0.0000       0.099301         2.7021 
  47   0.0000       0.101111         2.7514 
  48   0.0000       0.113352         3.0845 
  49   0.0000       0.117133         3.1873 
  50   0.0000       0.120711         3.2847 
  51   0.0000       0.132041         3.5930 
  52   0.0000       0.133921         3.6442 
*Only the first 10 virtual orbitals were printed.

                    ********************************
                    * MULLIKEN POPULATION ANALYSIS *
                    ********************************

-----------------------
MULLIKEN ATOMIC CHARGES
-----------------------
   0 C :   -0.092442
   1 C :   -0.067334
   2 C :    0.048139
   3 C :   -0.114668
   4 C :   -0.109127
   5 C :   -0.044696
   6 C :   -0.061704
   7 C :   -0.030568
   8 C :   -0.037544
   9 C :   -0.077534
  10 C :   -0.026678
  11 C :   -0.068821
  12 C :   -0.107119
  13 C :   -0.067568
  14 C :   -0.066867
  15 H :    0.033961
  16 H :    0.053785
  17 H :    0.052609
  18 H :   -0.007269
  19 H :    0.048997
  20 H :    0.060128
  21 H :    0.052020
  22 H :    0.042591
  23 H :    0.046174
  24 H :    0.040834
  25 H :    0.018606
  26 H :    0.014434
  27 H :    0.054968
  28 H :    0.054206
  29 H :    0.037370
  30 H :    0.032726
  31 H :    0.038339
  32 H :    0.040142
  33 H :    0.036136
  34 H :    0.039639
  35 H :    0.034835
  36 H :    0.028491
  37 H :    0.035300
  38 H :    0.035508
Sum of atomic charges:   -0.0000000

--------------------------------
MULLIKEN REDUCED ORBITAL CHARGES
--------------------------------
  0 C s       :     0.956780  s :     0.956780
      pz      :     1.000761  p :     3.061850
      px      :     1.035610
      py      :     1.025478
      dz2     :     0.021851  d :     0.073812
      dxz     :     0.008806
      dyz     :     0.013326
      dx2y2   :     0.020213
      dxy     :     0.009617

  1 C s       :     1.087804  s :     1.087804
      pz      :     0.920715  p :     2.859909
      px      :     0.999262
      py      :     0.939933
      dz2     :     0.022053  d :     0.119620
      dxz     :     0.033791
      dyz     :     0.013894
      dx2y2   :     0.021359
      dxy     :     0.028523

  2 C s       :     0.992239  s :     0.992239
      pz      :     0.947369  p :     2.870299
      px      :     0.943745
      py      :     0.979184
      dz2     :     0.013689  d :     0.089324
      dxz     :     0.030504
      dyz     :     0.009645
      dx2y2   :     0.013156
      dxy     :     0.022329

  3 C s       :     1.017153  s :     1.017153
      pz      :     1.024589  p :     2.977401
      px      :     0.968441
      py      :     0.984371
      dz2     :     0.022245  d :     0.120114
      dxz     :     0.019024
      dyz     :     0.030364
      dx2y2   :     0.024111
      dxy     :     0.024370

  4 C s       :     1.044381  s :     1.044381
      pz      :     1.046325  p :     2.947987
      px      :     0.948132
      py      :     0.953531
      dz2     :     0.028996  d :     0.116760
      dxz     :     0.013667
      dyz     :     0.017806
      dx2y2   :     0.028192
      dxy     :     0.028099

  5 C s       :     1.011125  s :     1.011125
      pz      :     1.049993  p :     2.934628
      px      :     0.928251
      py      :     0.956383
      dz2     :     0.015537  d :     0.098943
      dxz     :     0.018496
      dyz     :     0.021624
      dx2y2   :     0.021982
      dxy     :     0.021305

  6 C s       :     0.990105  s :     0.990105
      pz      :     1.002483  p :     2.971119
      px      :     1.024805
      py      :     0.943831
      dz2     :     0.020917  d :     0.100480
      dxz     :     0.012471
      dyz     :     0.025101
      dx2y2   :     0.025825
      dxy     :     0.016167

  7 C s       :     1.080331  s :     1.080331
      pz      :     0.923033  p :     2.832398
      px      :     0.942915
      py      :     0.966450
      dz2     :     0.016805  d :     0.117839
      dxz     :     0.014008
      dyz     :     0.026694
      dx2y2   :     0.030997
      dxy     :     0.029335

  8 C s       :     0.983473  s :     0.983473
      pz      :     1.012481  p :     2.989978
      px      :     0.999598
      py      :     0.977899
      dz2     :     0.005686  d :     0.064093
      dxz     :     0.009874
      dyz     :     0.013464
      dx2y2   :     0.020703
      dxy     :     0.014366

  9 C s       :     0.997322  s :     0.997322
      pz      :     1.021194  p :     2.980308
      px      :     0.970517
      py      :     0.988597
      dz2     :     0.015111  d :     0.099904
      dxz     :     0.021005
      dyz     :     0.022973
      dx2y2   :     0.019139
      dxy     :     0.021676

 10 C s       :     0.985748  s :     0.985748
      pz      :     0.986827  p :     2.942514
      px      :     1.028787
      py      :     0.926901
      dz2     :     0.017885  d :     0.098416
      dxz     :     0.017415
      dyz     :     0.024493
      dx2y2   :     0.021847
      dxy     :     0.016775

 11 C s       :     1.028327  s :     1.028327
      pz      :     1.012874  p :     2.921608
      px      :     0.947801
      py      :     0.960933
      dz2     :     0.021962  d :     0.118886
      dxz     :     0.019712
      dyz     :     0.027801
      dx2y2   :     0.024664
      dxy     :     0.024747

 12 C s       :     1.057996  s :     1.057996
      pz      :     1.024340  p :     2.927837
      px      :     0.946824
      py      :     0.956673
      dz2     :     0.027272  d :     0.121286
      dxz     :     0.015070
      dyz     :     0.024629
      dx2y2   :     0.026339
      dxy     :     0.027975

 13 C s       :     0.959864  s :     0.959864
      pz      :     1.003817  p :     3.033782
      px      :     1.042919
      py      :     0.987046
      dz2     :     0.024724  d :     0.073921
      dxz     :     0.004080
      dyz     :     0.012789
      dx2y2   :     0.009702
      dxy     :     0.022625

 14 C s       :     0.962288  s :     0.962288
      pz      :     1.036256  p :     3.030310
      px      :     0.955499
      py      :     1.038554
      dz2     :     0.013959  d :     0.074269
      dxz     :     0.011828
      dyz     :     0.016172
      dx2y2   :     0.011447
      dxy     :     0.020863

 15 H s       :     0.921921  s :     0.921921
      pz      :     0.010152  p :     0.044118
      px      :     0.023534
      py      :     0.010432

 16 H s       :     0.902042  s :     0.902042
      pz      :     0.021094  p :     0.044173
      px      :     0.010612
      py      :     0.012468

 17 H s       :     0.903186  s :     0.903186
      pz      :     0.010360  p :     0.044205
      px      :     0.011879
      py      :     0.021966

 18 H s       :     0.956618  s :     0.956618
      pz      :     0.019405  p :     0.050651
      px      :     0.015808
      py      :     0.015438

 19 H s       :     0.909572  s :     0.909572
      pz      :     0.018165  p :     0.041432
      px      :     0.008935
      py      :     0.014331

 20 H s       :     0.899666  s :     0.899666
      pz      :     0.022374  p :     0.040206
      px      :     0.008846
      py      :     0.008986

 21 H s       :     0.907397  s :     0.907397
      pz      :     0.020203  p :     0.040583
      px      :     0.008962
      py      :     0.011418

 22 H s       :     0.915145  s :     0.915145
      pz      :     0.015832  p :     0.042264
      px      :     0.013840
      py      :     0.012592

 23 H s       :     0.910800  s :     0.910800
      pz      :     0.020745  p :     0.043025
      px      :     0.009220
      py      :     0.013061

 24 H s       :     0.916048  s :     0.916048
      pz      :     0.010249  p :     0.043118
      px      :     0.022607
      py      :     0.010262

 25 H s       :     0.931121  s :     0.931121
      pz      :     0.014549  p :     0.050273
      px      :     0.013868
      py      :     0.021857

 26 H s       :     0.934559  s :     0.934559
      pz      :     0.018903  p :     0.051007
      px      :     0.022102
      py      :     0.010002

 27 H s       :     0.902278  s :     0.902278
      pz      :     0.019105  p :     0.042754
      px      :     0.010313
      py      :     0.013336

 28 H s       :     0.903565  s :     0.903565
      pz      :     0.013195  p :     0.042229
      px      :     0.015924
      py      :     0.013110

 29 H s       :     0.920317  s :     0.920317
      pz      :     0.017745  p :     0.042313
      px      :     0.013046
      py      :     0.011522

 30 H s       :     0.923296  s :     0.923296
      pz      :     0.010742  p :     0.043978
      px      :     0.022247
      py      :     0.010988

 31 H s       :     0.922888  s :     0.922888
      pz      :     0.018038  p :     0.038773
      px      :     0.009666
      py      :     0.011068

 32 H s       :     0.919690  s :     0.919690
      pz      :     0.020255  p :     0.040167
      px      :     0.009691
      py      :     0.010222

 33 H s       :     0.920915  s :     0.920915
      pz      :     0.022192  p :     0.042950
      px      :     0.010132
      py      :     0.010626

 34 H s       :     0.915759  s :     0.915759
      pz      :     0.010511  p :     0.044602
      px      :     0.021329
      py      :     0.012762

 35 H s       :     0.921626  s :     0.921626
      pz      :     0.010124  p :     0.043539
      px      :     0.016109
      py      :     0.017307

 36 H s       :     0.926735  s :     0.926735
      pz      :     0.016984  p :     0.044774
      px      :     0.011813
      py      :     0.015977

 37 H s       :     0.921787  s :     0.921787
      pz      :     0.020594  p :     0.042912
      px      :     0.009908
      py      :     0.012410

 38 H s       :     0.921110  s :     0.921110
      pz      :     0.010289  p :     0.043382
      px      :     0.014690
      py      :     0.018404



                     *******************************
                     * LOEWDIN POPULATION ANALYSIS *
                     *******************************

----------------------
LOEWDIN ATOMIC CHARGES
----------------------
   0 C :   -0.119073
   1 C :   -0.046678
   2 C :   -0.047000
   3 C :   -0.060668
   4 C :   -0.048257
   5 C :   -0.072565
   6 C :   -0.085838
   7 C :   -0.025994
   8 C :   -0.086029
   9 C :   -0.086652
  10 C :   -0.080543
  11 C :   -0.052597
  12 C :   -0.073006
  13 C :   -0.117943
  14 C :   -0.116872
  15 H :    0.048466
  16 H :    0.054669
  17 H :    0.054270
  18 H :    0.030428
  19 H :    0.048701
  20 H :    0.055420
  21 H :    0.051075
  22 H :    0.046124
  23 H :    0.051283
  24 H :    0.052316
  25 H :    0.031683
  26 H :    0.029466
  27 H :    0.057485
  28 H :    0.056313
  29 H :    0.045508
[...]
 81:   1505.52   0.001314    6.64  0.000272  (-0.008663 -0.005991  0.012708)
 82:   1510.29   0.000959    4.85  0.000198  (-0.003618  0.006035 -0.012196)
 83:   1510.64   0.002915   14.73  0.000602  ( 0.004415 -0.024136 -0.000257)
 84:   1515.19   0.000830    4.19  0.000171  ( 0.006082 -0.011406  0.001959)
 85:   1521.67   0.000551    2.78  0.000113  ( 0.005643 -0.006558  0.006169)
 86:   1523.68   0.002642   13.35  0.000541  (-0.022303 -0.006589 -0.000592)
 87:   1528.27   0.001385    7.00  0.000283  ( 0.010360 -0.007396  0.010991)
 88:   1535.24   0.002282   11.53  0.000464  (-0.020566 -0.006240 -0.001369)
 89:   1536.07   0.001736    8.78  0.000353  (-0.008271  0.001501 -0.016796)
 90:   1548.63   0.004133   20.89  0.000833  ( 0.008581  0.019534  0.019434)
 91:   1772.36   0.005834   29.48  0.001027  ( 0.023081  0.020251 -0.009183)
 92:   1802.62   0.001790    9.05  0.000310  (-0.016953  0.000128  0.004735)
 93:   3040.13   0.003736   18.88  0.000384  (-0.009323  0.008743  0.014838)
 94:   3061.61   0.003262   16.49  0.000333  (-0.011398  0.008056  0.011735)
 95:   3078.79   0.005978   30.21  0.000606  ( 0.014817 -0.018401 -0.006913)
 96:   3087.18   0.001244    6.29  0.000126  ( 0.005394 -0.005957 -0.007822)
 97:   3088.71   0.002118   10.70  0.000214  (-0.005671  0.003508  0.013020)
 98:   3091.06   0.000793    4.01  0.000080  ( 0.008052  0.001506  0.003600)
 99:   3093.06   0.006689   33.80  0.000675  (-0.010730  0.021537 -0.009792)
100:   3094.73   0.017529   88.58  0.001768  (-0.029566  0.006499  0.029175)
101:   3097.45   0.010795   54.55  0.001088  (-0.025191 -0.005242  0.020628)
102:   3100.91   0.005299   26.78  0.000533  ( 0.013844  0.009060  0.016110)
103:   3107.11   0.009710   49.07  0.000975  ( 0.017234 -0.002458  0.025926)
104:   3135.80   0.003179   16.06  0.000316  (-0.007786  0.006716 -0.014513)
105:   3158.23   0.002586   13.07  0.000255  ( 0.009669  0.011730  0.004939)
106:   3158.97   0.007332   37.05  0.000724  (-0.001660 -0.021684  0.015855)
107:   3169.40   0.003718   18.79  0.000366  ( 0.012399 -0.013622  0.005175)
108:   3169.46   0.005182   26.19  0.000510  (-0.020341  0.000437  0.009810)
109:   3174.65   0.001001    5.06  0.000098  (-0.001367 -0.008727 -0.004511)
110:   3180.48   0.008492   42.92  0.000833  (-0.011324 -0.018756 -0.018794)
111:   3198.55   0.004044   20.43  0.000395  (-0.019630  0.002300  0.001968)
112:   3202.93   0.002143   10.83  0.000209  (-0.011686 -0.006116 -0.005900)
113:   3205.58   0.004360   22.04  0.000424  (-0.003289  0.015418 -0.013266)
114:   3214.27   0.002271   11.47  0.000220  ( 0.006905  0.012610 -0.003710)
115:   3221.65   0.003677   18.58  0.000356  ( 0.007068  0.013805  0.010751)
116:   3309.22   0.001315    6.64  0.000124  ( 0.008077 -0.005184  0.005645)

* The epsilon (eps) is given for a Dirac delta lineshape.
** The dipole moment derivative (T) already includes vibrational overlap.

The first frequency considered to be a vibration is 6
The total number of vibrations considered is 111


--------------------------
THERMOCHEMISTRY AT 298.15K
--------------------------

Temperature         ...   298.15 K
Pressure            ...     1.00 atm
Total Mass          ...   204.36 AMU
Quasi RRHO          ...     True
Cut-Off Frequency   ...     1.00 cm^-1

Throughout the following assumptions are being made:
  (1) The electronic state is orbitally nondegenerate
  (2) There are no thermally accessible electronically excited states
  (3) Hindered rotations indicated by low frequency modes are not
      treated as such but are treated as vibrations and this may
      cause some error
  (4) All equations used are the standard statistical mechanics
      equations for an ideal gas
  (5) All vibrations are strictly harmonic

freq.      61.81  E(vib)   ...       0.51 
freq.      75.80  E(vib)   ...       0.49 
freq.      77.28  E(vib)   ...       0.49 
freq.     123.84  E(vib)   ...       0.43 
freq.     148.00  E(vib)   ...       0.41 
freq.     184.63  E(vib)   ...       0.37 
freq.     203.90  E(vib)   ...       0.35 
freq.     212.41  E(vib)   ...       0.34 
freq.     226.56  E(vib)   ...       0.33 
freq.     272.42  E(vib)   ...       0.29 
freq.     281.57  E(vib)   ...       0.28 
freq.     318.94  E(vib)   ...       0.25 
freq.     336.83  E(vib)   ...       0.24 
freq.     341.73  E(vib)   ...       0.23 
freq.     358.41  E(vib)   ...       0.22 
freq.     397.89  E(vib)   ...       0.20 
freq.     414.13  E(vib)   ...       0.19 
freq.     436.18  E(vib)   ...       0.17 
freq.     444.05  E(vib)   ...       0.17 
freq.     474.07  E(vib)   ...       0.15 
freq.     480.58  E(vib)   ...       0.15 
freq.     520.48  E(vib)   ...       0.13 
freq.     579.65  E(vib)   ...       0.11 
freq.     628.17  E(vib)   ...       0.09 
freq.     655.58  E(vib)   ...       0.08 
freq.     723.38  E(vib)   ...       0.07 
freq.     742.50  E(vib)   ...       0.06 
freq.     810.10  E(vib)   ...       0.05 
freq.     835.11  E(vib)   ...       0.04 
freq.     855.62  E(vib)   ...       0.04 
freq.     868.96  E(vib)   ...       0.04 
freq.     901.91  E(vib)   ...       0.03 
freq.     912.84  E(vib)   ...       0.03 
freq.     932.15  E(vib)   ...       0.03 
freq.     939.21  E(vib)   ...       0.03 
freq.     951.89  E(vib)   ...       0.03 
freq.     974.91  E(vib)   ...       0.03 
freq.     991.28  E(vib)   ...       0.02 
freq.     996.03  E(vib)   ...       0.02 
freq.     999.45  E(vib)   ...       0.02 
freq.    1013.52  E(vib)   ...       0.02 
freq.    1039.62  E(vib)   ...       0.02 
freq.    1057.07  E(vib)   ...       0.02 
freq.    1071.57  E(vib)   ...       0.02 
freq.    1089.37  E(vib)   ...       0.02 
freq.    1108.01  E(vib)   ...       0.02 
freq.    1124.03  E(vib)   ...       0.01 
freq.    1139.54  E(vib)   ...       0.01 
freq.    1155.94  E(vib)   ...       0.01 
freq.    1164.13  E(vib)   ...       0.01 
freq.    1208.05  E(vib)   ...       0.01 
freq.    1212.47  E(vib)   ...       0.01 
freq.    1226.11  E(vib)   ...       0.01 
freq.    1242.21  E(vib)   ...       0.01 
freq.    1255.67  E(vib)   ...       0.01 
freq.    1258.42  E(vib)   ...       0.01 
freq.    1279.17  E(vib)   ...       0.01 
freq.    1314.56  E(vib)   ...       0.01 
freq.    1324.45  E(vib)   ...       0.01 
freq.    1340.34  E(vib)   ...       0.01 
freq.    1347.83  E(vib)   ...       0.01 
freq.    1354.94  E(vib)   ...       0.01 
freq.    1379.13  E(vib)   ...       0.01 
freq.    1392.10  E(vib)   ...       0.00 
freq.    1397.86  E(vib)   ...       0.00 
freq.    1409.75  E(vib)   ...       0.00 
freq.    1415.21  E(vib)   ...       0.00 
freq.    1432.84  E(vib)   ...       0.00 
freq.    1440.37  E(vib)   ...       0.00 
freq.    1441.21  E(vib)   ...       0.00 
freq.    1448.11  E(vib)   ...       0.00 
freq.    1452.82  E(vib)   ...       0.00 
freq.    1454.86  E(vib)   ...       0.00 
freq.    1466.21  E(vib)   ...       0.00 
freq.    1481.22  E(vib)   ...       0.00 
freq.    1505.52  E(vib)   ...       0.00 
freq.    1510.29  E(vib)   ...       0.00 
freq.    1510.64  E(vib)   ...       0.00 
freq.    1515.19  E(vib)   ...       0.00 
freq.    1521.67  E(vib)   ...       0.00 
freq.    1523.68  E(vib)   ...       0.00 
freq.    1528.27  E(vib)   ...       0.00 
freq.    1535.24  E(vib)   ...       0.00 
freq.    1536.07  E(vib)   ...       0.00 
freq.    1548.63  E(vib)   ...       0.00 
freq.    1772.36  E(vib)   ...       0.00 
freq.    1802.62  E(vib)   ...       0.00 
freq.    3040.13  E(vib)   ...       0.00 
freq.    3061.61  E(vib)   ...       0.00 
freq.    3078.79  E(vib)   ...       0.00 
freq.    3087.18  E(vib)   ...       0.00 
freq.    3088.71  E(vib)   ...       0.00 
freq.    3091.06  E(vib)   ...       0.00 
freq.    3093.06  E(vib)   ...       0.00 
freq.    3094.73  E(vib)   ...       0.00 
freq.    3097.45  E(vib)   ...       0.00 
freq.    3100.91  E(vib)   ...       0.00 
freq.    3107.11  E(vib)   ...       0.00 
freq.    3135.80  E(vib)   ...       0.00 
freq.    3158.23  E(vib)   ...       0.00 
freq.    3158.97  E(vib)   ...       0.00 
freq.    3169.40  E(vib)   ...       0.00 
freq.    3169.46  E(vib)   ...       0.00 
freq.    3174.65  E(vib)   ...       0.00 
freq.    3180.48  E(vib)   ...       0.00 
freq.    3198.55  E(vib)   ...       0.00 
freq.    3202.93  E(vib)   ...       0.00 
freq.    3205.58  E(vib)   ...       0.00 
freq.    3214.27  E(vib)   ...       0.00 
freq.    3221.65  E(vib)   ...       0.00 
freq.    3309.22  E(vib)   ...       0.00 

------------
INNER ENERGY
------------

The inner energy is: U= E(el) + E(ZPE) + E(vib) + E(rot) + E(trans)
    E(el)   - is the total energy from the electronic structure calculation
              = E(kin-el) + E(nuc-el) + E(el-el) + E(nuc-nuc)
    E(ZPE)  - the the zero temperature vibrational energy from the frequency calculation
    E(vib)  - the the finite temperature correction to E(ZPE) due to population
              of excited vibrational states
    E(rot)  - is the rotational thermal energy
    E(trans)- is the translational thermal energy

Summary of contributions to the inner energy U:
Electronic energy                ...    -99.94269514 Eh
Zero point energy                ...      0.36650954 Eh     229.99 kcal/mol
Thermal vibrational correction   ...      0.01200339 Eh       7.53 kcal/mol
Thermal rotational correction    ...      0.00141627 Eh       0.89 kcal/mol
Thermal translational correction ...      0.00141627 Eh       0.89 kcal/mol
-----------------------------------------------------------------------
Total thermal energy                    -99.56134966 Eh


Summary of corrections to the electronic energy:
(perhaps to be used in another calculation)
Total thermal correction                  0.01483593 Eh       9.31 kcal/mol
Non-thermal (ZPE) correction              0.36650954 Eh     229.99 kcal/mol
-----------------------------------------------------------------------
Total correction                          0.38134548 Eh     239.30 kcal/mol


--------
ENTHALPY
--------

The enthalpy is H = U + kB*T
                kB is Boltzmann's constant
Total thermal energy              ...    -99.56134966 Eh 
Thermal Enthalpy correction       ...      0.00094421 Eh       0.59 kcal/mol
-----------------------------------------------------------------------
Total Enthalpy                    ...    -99.56040545 Eh


Note: Only C1 symmetry has been detected, increase convergence thresholds 
      if your molecule has a higher symmetry. Symmetry factor of 1.0 is   
      used for the rotational entropy correction. 
 

Note: Rotational entropy computed according to Herzberg 
Infrared and Raman Spectra, Chapter V,1, Van Nostrand Reinhold, 1945 
Point Group:  C1, Symmetry Number:   1  
Rotational constants in cm-1:     0.027830     0.016215     0.012521 

Vibrational entropy computed according to the QRRHO of S. Grimme
Chem.Eur.J. 2012 18 9955 using a reference frequency of 100.0 cm-1


-------
ENTROPY
-------

The entropy contributions are T*S = T*(S(el)+S(vib)+S(rot)+S(trans))
     S(el)   - electronic entropy
     S(vib)  - vibrational entropy
     S(rot)  - rotational entropy
     S(trans)- translational entropy
The entropies will be listed as multiplied by the temperature to get
units of energy

Electronic entropy                ...      0.00000000 Eh      0.00 kcal/mol
Vibrational entropy               ...      0.02018380 Eh     12.67 kcal/mol
Rotational entropy                ...      0.01521546 Eh      9.55 kcal/mol
Translational entropy             ...      0.01988345 Eh     12.48 kcal/mol
-----------------------------------------------------------------------
Final entropy term                ...      0.05528271 Eh     34.69 kcal/mol

In case the symmetry of your molecule has not been determined correctly
or in case you have a reason to use a different symmetry number we print 
out the resulting rotational entropy values for sn=1,12:

 non-linear molecules -----------------------------------
|  sn= 1 | S(rot)=       0.01521546 Eh      9.55 kcal/mol|
|  sn= 2 | S(rot)=       0.01456100 Eh      9.14 kcal/mol|
|  sn= 3 | S(rot)=       0.01417817 Eh      8.90 kcal/mol|
|  sn= 4 | S(rot)=       0.01390654 Eh      8.73 kcal/mol|
|  sn= 5 | S(rot)=       0.01369586 Eh      8.59 kcal/mol|
|  sn= 6 | S(rot)=       0.01352371 Eh      8.49 kcal/mol|
|  sn= 7 | S(rot)=       0.01337816 Eh      8.39 kcal/mol|
|  sn= 8 | S(rot)=       0.01325209 Eh      8.32 kcal/mol|
|  sn= 9 | S(rot)=       0.01314088 Eh      8.25 kcal/mol|
|  sn=10 | S(rot)=       0.01304140 Eh      8.18 kcal/mol|
|  sn=11 | S(rot)=       0.01295141 Eh      8.13 kcal/mol|
|  sn=12 | S(rot)=       0.01286925 Eh      8.08 kcal/mol|
 linear molecules ---------------------------------------
|  Dinfh | S(rot)=       0.00946162 Eh      5.94 kcal/mol|
|  Cinfv | S(rot)=       0.01011608 Eh      6.35 kcal/mol|
 --------------------------------------------------------


-------------------
GIBBS FREE ENERGY
-------------------

The Gibbs free energy is G = H - T*S

Total enthalpy                    ...    -99.56040545 Eh 
Total entropy correction          ...     -0.05528271 Eh    -34.69 kcal/mol
-----------------------------------------------------------------------
Final Gibbs free energy         ...    -99.61568816 Eh

For completeness - the Gibbs free energy minus the electronic energy
G-E(el)                           ...      0.32700698 Eh    205.20 kcal/mol


Maximum memory used throughout the entire PROP-calculation: 241.5 MB

--------------------------------
SUGGESTED CITATIONS FOR THIS RUN
--------------------------------

Below you find a list of papers that are relevant to this ORCA run
We neither can nor want to force you to cite these papers, but we appreciate if you do
You receive ORCA, which is the product of decades of hard work by many enthusiastic individuals, for free
The only thing we kindly ask in return is that you cite our papers,
We deeply appreciate it, if you show your appreciation for ORCA by not just citing the generic ORCA reference.

Please note that relegating all ORCA citations to the supporting information does *not* help us.
SI sections are not indexed - citations you put there will not count into any citation statistics
But we need these citations in order to attract the funding resources that allow us to do what we are doing

Therefore, if you are a happy ORCA user, please consider citing a few of the papers listed below in the main body of your paper

In addition to the list printed below, the program has created the file ./output/gamma_cadinene/gamma_cadinene.bibtex that contains the list in bibtex format
You can import this file easily into all common literature databanks and citation aid programs


List of essential papers. We consider these as the minimum necessary citations

  1. Neese,F.
     Software update: the ORCA program system, version 5.0
     WIRES Comput. Molec. Sci., 2022 12(1)e1606
     doi.org/10.1002/wcms.1606
  2. Mueller,M.; Hansen,A.; Grimme,S.
     wB97X-3c: A composite range-separated hybrid DFT method with a molecule-optimized polarized valence double-zeta basis set
     J. Chem. Phys., 2023 158 014103
     doi.org/10.1063/5.0133026

List of papers to cite with high priority. The work reported in these papers was absolutely
necessary for this run to complete.
Our perspective: the developers of density functionals and basis sets usually get cited in chemistry papers
Good! But without the algorithms to do something with them, the functionals or basis sets would not do anything.
Hence, in our opinion, the algorithm design and method developments papers are equally worthy of getting cited

  1. Neese,F.
     An improvement of the resolution of the identity approximation for the formation of the Coulomb matrix
     J. Comp. Chem., 2003 24(14)1740-1747
     doi.org/10.1002/jcc.10318
  2. Neese,F.; Wennmohs,F.; Hansen,A.; Becker,U.
     Efficient, approximate and parallel Hartree-Fock and hybrid DFT calculations. A 'chain-of-spheres' algorithm for the Hartree-Fock exchange
     Chem. Phys., 2009 356(1-3)98-109
     doi.org/10.1016/j.chemphys.2008.10.036
  3. Bykov,D.; Petrenko,T.; Izsak,R.; Kossmann,S.; Becker,U.; Valeev,E.; Neese,F.
     Efficient implementation of the analytic second derivatives of Hartree-Fock and hybrid DFT energies: a detailed analysis of different approximations
     Molec. Phys., 2015 113 1961-1977
     doi.org/10.1080/00268976.2015.1025114
  4. Helmich-Paris,B.; de Souza,B.; Neese,F.; Izsák,R.
     An improved chain of spheres for exchange algorithm
     J. Chem. Phys., 2021 155 104109
     doi.org/doi: 10.1063/5.0058766.
  5. Neese,F.
     The SHARK Integral Generation and Digestion System
     J. Comp. Chem., 2022  1-16
     doi.org/10.1002/jcc.26942
  6. Caldeweyher,E.; Bannwarth,C.; Grimme,S.
     Extension of the D3 dispersion coefficient model
     J. Chem. Phys., 2017 147 034112
     doi.org/10.1063/1.4993215
  7. Caldeweyher,E.; Ehlert,S.; Hansen,A.; Neugebauer,H.; Spicher,S.; Bannwarth,C.; Grimme,S.
     A generally applicable atomic-charge dependent London dispersion correction
     J. Chem. Phys., 2019 150 154122
     doi.org/10.1063/1.5090222
  8. Caldeweyher,E.; Mewes,J.; Ehlert,S.; Grimme,S.
     Extension and evaluation of the D4 London-dispersion model for periodic systems
     Phys. Chem. Chem. Phys., 2020 22(16)8499-8512
     doi.org/10.1039/D0CP00502A
  9. Wittmann,L.; Gordiy,I.; Friede,M.; Helmich-Paris,B.; Grimme,S.; Hansen,A.; Bursch,M.
     Extension of the D3 and D4 London Dispersion Corrections to the full Actinides Series
     Phys. Chem. Chem. Phys., 2024 26(32)21379-21394
     doi.org/https://doi.org/10.1039/D4CP01514B 

List of suggested additional citations. These are papers that are important in the 'surrounding' of 
of this run, or papers that preceded the highly important papers. If you like your results we are grateful for a citation.

  1. Izsak,R.; Neese,F.
     An overlap fitted chain of spheres exchange method
     J. Chem. Phys., 2011 135 144105
     doi.org/10.1063/1.3646921
  2. Izsak,R.; Hansen,A.; Neese,F.
     The resolution of identity and chain of spheres approximations for the LPNO-CCSD singles Fock term
     Molec. Phys., 2012 110 2413-2417
     doi.org/10.1080/00268976.2012.687466
  3. Neese,F.
     The ORCA program system
     WIRES Comput. Molec. Sci., 2012 2(1)73-78
     doi.org/10.1002/wcms.81
  4. Izsak,R.; Neese,F.; Klopper,W.
     Robust fitting techniques in the chain of spheres approximation to the Fock exchange: The role of the complementary space
     J. Chem. Phys., 2013 139 
     doi.org/10.1063/1.4819264
  5. Neese,F.
     Software update: the ORCA program system, version 4.0
     WIRES Comput. Molec. Sci., 2018 8(1)1-6
     doi.org/10.1002/wcms.1327
  6. Neese,F.; Wennmohs,F.; Becker,U.; Riplinger,C.
     The ORCA quantum chemistry program package
     J. Chem. Phys., 2020 152 Art. No. L224108
     doi.org/10.1063/5.0004608

List of optional additional citations

  1. Neese,F.
     Approximate second-order SCF convergence for spin unrestricted wavefunctions
     Chem. Phys. Lett., 2000 325(1-3)93-98
     doi.org/10.1016/s0009-2614(00)00662-x

Timings for individual modules:

Sum of individual times          ...     4134.577 sec (=  68.910 min)
Startup calculation              ...      192.993 sec (=   3.217 min)   4.7 %
SCF iterations                   ...     2854.695 sec (=  47.578 min)  69.0 %
Property integrals               ...      165.488 sec (=   2.758 min)   4.0 %
SCF Response                     ...       88.406 sec (=   1.473 min)   2.1 %
Property calculations            ...      216.371 sec (=   3.606 min)   5.2 %
SCF Gradient evaluation          ...      615.386 sec (=  10.256 min)  14.9 %
Geometry relaxation              ...        1.239 sec (=   0.021 min)   0.0 %
                             ****ORCA TERMINATED NORMALLY****
TOTAL RUN TIME: 0 days 1 hours 9 minutes 13 seconds 328 msec
