
                                 *****************
                                 * O   R   C   A *
                                 *****************

                                            #,                                       
                                            ###                                      
                                            ####                                     
                                            #####                                    
                                            ######                                   
                                           ########,                                 
                                     ,,################,,,,,                         
                               ,,#################################,,                 
                          ,,##########################################,,             
                       ,#########################################, ''#####,          
                    ,#############################################,,   '####,        
                  ,##################################################,,,,####,       
                ,###########''''           ''''###############################       
              ,#####''   ,,,,##########,,,,          '''####'''          '####       
            ,##' ,,,,###########################,,,                        '##       
           ' ,,###''''                  '''############,,,                           
         ,,##''                                '''############,,,,        ,,,,,,###''
      ,#''                                            '''#######################'''  
     '                                                          ''''####''''         
             ,#######,   #######,   ,#######,      ##                                
            ,#'     '#,  ##    ##  ,#'     '#,    #''#        ,####,   ,####,        
            ##       ##  ##   ,#'  ##            #'  '#       #'       #'  '#        
            ##       ##  #######   ##           ,######,      #####,   #    #        
            '#,     ,#'  ##    ##  '#,     ,#' ,#      #,     #,   #   #,  ,#        
             '#######'   ##     ##  '#######'  #'      '#     '####' # '####'        



                #########################################################
                #                        -***-                          #
                #          Department of theory and spectroscopy        #
                #                                                       #
                #                      Frank Neese                      #
                #                                                       #
                #     Directorship, Architecture, Infrastructure        #
                #                    SHARK, DRIVERS                     #
                #        Core code/Algorithms in most modules           #
                #                                                       #
                #        Max Planck Institute fuer Kohlenforschung      #
                #                Kaiser Wilhelm Platz 1                 #
                #                 D-45470 Muelheim/Ruhr                 #
                #                      Germany                          #
                #                                                       #
                #                  All rights reserved                  #
                #                        -***-                          #
                #########################################################


                         Program Version 6.0.1  -  RELEASE   -


 With contributions from (in alphabetic order):
[Max-Planck-Institut fuer Kohlenforschung]                               
  Daniel Aravena         : Magnetic Suceptibility                        
  Michael Atanasov       : Ab Initio Ligand Field Theory (pilot matlab implementation)
  Alexander A. Auer      : GIAO ZORA, VPT2 properties, NMR spectrum      
  Ute Becker             : All parallelization in ORCA, NUMFREQ, NUMCALC 
  Giovanni Bistoni       : ED, misc. LED, open-shell LED, HFLD           
  Martin Brehm           : Molecular dynamics                            
  Dmytro Bykov           : pre 5.0 version of the SCF Hessian            
  Marcos Casanova-Páez   : Triplet and SCS-CIS(D). UHF-(DLPNO)-IP/EA/STEOM-CCSD. UHF-CVS-IP/STEOM-CCSD   
  Vijay G. Chilkuri      : MRCI spin determinant printing, contributions to CSF-ICE 
  Pauline Colinet        : FMM embedding                                 
  Dipayan Datta          : RHF DLPNO-CCSD density                        
  Achintya Kumar Dutta   : EOM-CC, STEOM-CC                              
  Nicolas Foglia         : Exact transition moments, OPA infrastructure, MCD improvements    
  Dmitry Ganyushin       : Spin-Orbit,Spin-Spin,Magnetic field MRCI      
  Miquel Garcia-Rates    : C-PCM and meta-GGA Hessian, CCSD/C-PCM, Gaussian charge scheme 
  Tiago L. C. Gouveia    : GS-ROHF, GS-ROCIS                             
  Yang Guo               : DLPNO-NEVPT2, F12-NEVPT2, CIM, IAO-localization        
  Andreas Hansen         : Spin unrestricted coupled pair/coupled cluster methods 
  Ingolf Harden          : AUTO-CI MPn and infrastructure                
  Benjamin Helmich-Paris : MC-RPA, TRAH-(SCF,CASSCF), AVAS, COSX integrals, SCF dyn. polar. 
  Lee Huntington         : MR-EOM, pCC                                   
  Robert Izsak           : Overlap fitted RIJCOSX, COSX-SCS-MP3, EOM     
  Riya Kayal             : Wick's Theorem for AUTO-CI, AUTO-CI UHF-CCSDT 
  Emily Kempfer          : AUTO-CI, RHF CISDT and CCSDT                  
  Christian Kollmar      : KDIIS, OOCD, Brueckner-CCSD(T), CCSD density, CASPT2, CASPT2-K, improved NEVPT2 
  Axel Koslowski         : Symmetry handling                             
  Simone Kossmann        : meta-GGA functionals, TD-DFT gradient, OOMP2, (MP2 Hessian; deprecated post 5.0) 
  Lucas Lang             : DCDCAS                                        
  Marvin Lechner         : AUTO-CI (C++ implementation), FIC-MRCC        
  Spencer Leger          : CASSCF response                               
  Dagmar Lenk            : GEPOL surface, SMD, ORCA-2-JSON               
  Dimitrios Liakos       : Extrapolation schemes; Compound Job, initial MDCI parallelization 
  Dimitrios Manganas     : Further ROCIS development; embedding schemes. LFT, Crystal Embedding 
  Dimitrios Pantazis     : SARC Basis sets                               
  Anastasios Papadopoulos: AUTO-CI, single reference methods and gradients 
  Taras Petrenko         : pre 6.0 DFT Hessian and TD-DFT gradient, (ASA, deprecated), ECA, 1-Electron XAS/XES, NRVS 
  Peter Pinski           : DLPNO-MP2, DLPNO-MP2 Gradient                 
  Christoph Reimann      : Effective Core Potentials                     
  Marius Retegan         : Local ZFS, SOC                                
  Christoph Riplinger    : Optimizer, TS searches, QM/MM, DLPNO-CCSD(T), (RO)-DLPNO pert. Triples 
  Michael Roemelt        : Original ROCIS implementation                 
  Masaaki Saitow         : Open-shell DLPNO-CCSD energy and density      
  Barbara Sandhoefer     : DKH picture change effects                    
  Kantharuban Sivalingam : CASSCF convergence/infrastructure, NEVPT2 and variants, FIC-MRCI 
  Bernardo de Souza      : ESD, SOC TD-DFT                               
  Georgi L. Stoychev     : AutoAux, RI-MP2 NMR, DLPNO-MP2 response, X2C  
  Van Anh Tran           : RI-MP2 g-tensors                              
  Willem Van den Heuvel  : Paramagnetic NMR                              
  Zikuan Wang            : NOTCH, Electric field optimization            
  Frank Wennmohs         : Technical directorship and infrastructure     
  Hang Xu                : AUTO-CI-Response properties                   
                                                                         
[FACCTs GmbH]                                                            
  Markus Bursch, Miquel Garcia-Rates, Christoph Riplinger, Bernardo de Souza, Georgi L. Stoychev 
                                                                 
  APM, Basis sets (HGBS, AHGBS, def-TZVP (Ac-Lr), def2-XVPD (La-Lu)), CI-OPT, improved COSX, DLPNO-Multilevel,           
  DOCKER, DRACO, updates on ESD, GOAT, IRC, LR-CPCM, MBIS, meta-GGA TD-DFT gradient, ML-optimized integration grids, 
  MM, NACMEs, nearIR, NEB, NEB-TS, NL-DFT gradient (VV10), 2- and 3-layer-ONIOM, interface openCOSMO-RS, QMMM,   
  Crystal-QMMM, SF, symmetry and pop. for TD-DFT, r2SCAN hybrids, SOLVATOR                                   
                                                                         
[Other institutions]                                                     
  V. Asgeirsson          : NEB                                           
  Christoph Bannwarth    : sTDA-DFT, sTD-DFT, PBEh-3c, B97-3c, D3        
  Sebastian Ehlert       : rSCAN, r2SCAN, r2SCAN-3c, D4, dhf basis sets  
  Marvin Friede          : D4 for Fr, Ra, Ac-Lr                          
  Lars Goerigk           : TD-DFT with DH, B97 family of functionals     
  Stefan Grimme          : VdW corrections, initial TS optimization, DFT functionals, gCP, sTDA/sTD-DF 
  Waldemar Hujo          : DFT-NL                                        
  H. Jonsson             : NEB                                           
  Holger Kruse           : gCP                                           
  Marcel Mueller         : wB97X-3c, vDZP basis set                      
  Hagen Neugebauer       : wr2SCAN                                       
  Tobias Risthaus        : range-separated hybrid DFT                    
  Lukas Wittmann         : regularized MP2, r2SCAN double-hybrids, wr2SCAN        
                                                                         
We gratefully acknowledge several colleagues who have allowed us to      
interface, adapt or use parts of their codes:                            
  Ed Valeev, F. Pavosevic, A. Kumar             : LibInt (2-el integral package), F12 methods 
  Garnet Chan, S. Sharma, J. Yang, R. Olivares  : DMRG                   
  Ulf Ekstrom                                   : XCFun DFT Library      
  Mihaly Kallay                                 : mrcc  (arbitrary order and MRCC methods)
  Frank Weinhold                                : gennbo (NPA and NBO analysis)           
  Simon Mueller                                 : openCOSMO-RS                            
  Christopher J. Cramer and Donald G. Truhlar   : smd solvation model                     
  S Lehtola, MJT Oliveira, MAL Marques          : LibXC Library                           
  Liviu Ungur et al                             : ANISO software                          


 Your calculation uses the libint2 library for the computation of 2-el integrals
 For citations please refer to: http://libint.valeyev.net

 Your ORCA version has been built with support for libXC version: 6.2.2
 For citations please refer to: https://libxc.gitlab.io

 This ORCA versions uses:
   CBLAS   interface :  Fast vector & matrix operations
   LAPACKE interface :  Fast linear algebra routines
   SCALAPACK package :  Parallel linear algebra routines
   Shared memory     :  Shared parallel matrices
   BLAS/LAPACK       :  OpenBLAS 0.3.27  USE64BITINT DYNAMIC_ARCH NO_AFFINITY SkylakeX SINGLE_THREADED
        Core in use  :  SkylakeX
   Copyright (c) 2011-2014, The OpenBLAS Project


Your calculation utilizes the atom-pairwise dispersion correction
based on EEQ partial charges (D4)


================================================================================

cite the ECPs for C  [vDZP-ECP] as follows:
   B-Ne (ecp-2-mwb), Al-Ar (ecp-10-mwb), Ga-Kr (ecp-28-mwb), Y-Cd (ecp-28-mwb), In-Xe (ecp-46-mwb):
     A. Bergner, M. Dolg, W. Küchle, H. Stoll, and H. Preuß, Mol. Phys. 80, 1431 (1993)., T. Leininger, A. Berning, A. Nicklass, H. Stoll, H.-J. Werner, and H.-J.Flad, Chem. Phys. 217, 19 (1997).
   Na-Mg, K-Ca, Rb-Sr, Cs-Ba (CRENBL):
     L. Fernandez Pacios and P. A. Christiansen, J. Chem. Phys. 82, 2664 (1985)., M. M. Hurley, L. F. Pacios, P. A. Christiansen, R. B. Ross, and W. C. Ermler, J. Chem. Phys. 84, 6840 (1986)., L. A. LaJohn, P. A. Christiansen, R. B. Ross, T. Atashroo, and W. C. Ermler, J. Chem. Phys. 87, 2812 (1987)., R. B. Ross, J. M. Powers, T. Atashroo, W. C. Ermler, L. A. LaJohn, and P. A. Christiansen, J. Chem. Phys. 93, 6654 (1990). 
   Sc-Zn (ecp-10-mdf):
     M. Dolg, U. Wedig, H. Stoll, and H. Preuss, J. Chem. Phys. 86, 866 (1986). 
   Y-Cd (ecp-28-mwb), Hf-Hg (ecp-60-mwb):
     D. Andrae, U. Häußermann, M. Dolg, H. Stoll, and H. Preuß, Theor. Chim. Acta 77, 123 (1990). 
   La (ecp-46-mwb):
     M. Dolg, H. Stoll, and H. Preuss, J. Chem. Phys. 90, 1730 (1989)., M. Dolg, H. Stoll, and H. Preuss, Theor. Chim. Acta 85, 441 (1993).
   Ce-Lu (SBKJC-ecp):
     T. R. Cundari and W. J. Stevens, J. Chem. Phys. 98, 5555 (1993).
   Tl-Rn (ecp-78-mwb):
     W. Küchle, M. Dolg, H. Stoll, and H. Preuss, Mol. Phys. 74, 1245 (1991).

ECP parameters for C  [vDZP-ECP] have been obtained from:
MM, AH, SG, J. Chem. Phys. 158, 014103 (2023), 10.1063/5.0133026

----- Orbital basis set information -----
Your calculation utilizes the basis: vDZP
   Marcel Mueller, Andreas Hansen, Stefan Grimme 
   J. Chem. Phys. 158, 014103 (2023). DOI: 10.1063/5.0133026

----- AuxJ basis set information -----
Your calculation utilizes the auxiliary basis: def2/J
   F. Weigend, Phys. Chem. Chem. Phys. 8, 1057 (2006).

================================================================================
                                        WARNINGS
                       Please study these warnings very carefully!
================================================================================

WARNING: Frozen-Core approximation turned on, but there are no core electrons.
  ===> : Turning off frozen-core approximation


WARNING: Geometry Optimization
  ===> : Switching off AutoStart
         For restart on a previous wavefunction, please use MOREAD

================================================================================
                                       INPUT FILE
================================================================================
NAME = ./output/alpha_gurjunene/alpha_gurjunene.inp
|  1> ! wB97X-3c OPT FREQ TightSCF
|  2> %pal
|  3>   nprocs 40
|  4> end
|  5> * xyz 0 1
|  6> C     -3.065416    -2.067613     0.410300
|  7> C     -1.710586    -1.471266    -0.019635
|  8> C     -0.585632    -2.408929     0.468683
|  9> C      0.752599    -2.115832    -0.213507
| 10> C      1.594498    -1.128050     0.609588
| 11> C      1.056220     0.294200     0.812978
| 12> C      2.276992     0.055100    -0.097041
| 13> C      2.158992     0.156157    -1.630607
| 14> C      3.630585     0.450681     0.502220
| 15> C     -0.267844     0.674922     0.182518
| 16> C     -0.493334     1.918114    -0.260775
| 17> C     -1.938909     2.225800    -0.408838
| 18> C     -2.641614     0.916413    -0.078640
| 19> C     -1.566461    -0.017675     0.517403
| 20> C      0.555384     2.989101    -0.402149
| 21> H     -3.141156    -2.104792     1.518399
| 22> H     -3.912713    -1.470259     0.015553
| 23> H     -3.180170    -3.097822     0.010457
| 24> H     -1.698658    -1.450672    -1.132822
| 25> H     -0.490375    -2.362469     1.576726
| 26> H     -0.857236    -3.457545     0.213244
| 27> H      0.583997    -1.814062    -1.264210
| 28> H      1.335150    -3.060804    -0.264156
| 29> H      2.105306    -1.529619     1.511917
| 30> H      1.272088     0.714359     1.818901
| 31> H      2.628885    -0.735388    -2.096260
| 32> H      2.709545     1.050170    -1.989830
| 33> H      1.113458     0.243460    -1.987524
| 34> H      4.430660    -0.176709     0.056466
| 35> H      3.656211     0.322610     1.605928
| 36> H      3.838661     1.516311     0.270904
| 37> H     -2.230292     3.015685     0.317080
| 38> H     -2.163015     2.558697    -1.445373
| 39> H     -3.469205     1.081469     0.645633
| 40> H     -3.069234     0.502802    -1.019033
| 41> H     -1.670624    -0.021503     1.626099
| 42> H      0.077594     3.970547    -0.605500
| 43> H      1.229128     2.756456    -1.248663
| 44> H      1.146522     3.077956     0.533336
| 45> *
| 46> 
| 47>                          ****END OF INPUT****
================================================================================

                       *****************************
                       * Geometry Optimization Run *
                       *****************************

Geometry optimization settings:
Update method            Update   .... BFGS
Choice of coordinates    CoordSys .... (2022) Redundant Internals
Initial Hessian          InHess   .... Almloef's Model
Max. no of cycles        MaxIter  .... 117

Convergence Tolerances:
Energy Change            TolE     ....  5.0000e-06 Eh
Max. Gradient            TolMAXG  ....  3.0000e-04 Eh/bohr
RMS Gradient             TolRMSG  ....  1.0000e-04 Eh/bohr
Max. Displacement        TolMAXD  ....  4.0000e-03 bohr
RMS Displacement         TolRMSD  ....  2.0000e-03 bohr
Strict Convergence                .... False

------------------------------------------------------------------------------
                        ORCA OPTIMIZATION COORDINATE SETUP
------------------------------------------------------------------------------

The optimization will be done in redundant internal coordinates (2022)
Making redundant internal coordinates   ...  (2022 redundants) done
Evaluating the initial hessian          ...  (Almloef) done
Evaluating the coordinates              ...  done
Calculating the B-matrix                .... done
Calculating the G-matrix                .... done
Diagonalizing the G-matrix              .... done
Small eigenvalue found = 1.502e-02
Small eigenvalue found = 2.743e-02
The first mode is                       ....  110
The number of degrees of freedom        ....  111

    -----------------------------------------------------------------
                    Redundant Internal Coordinates


    -----------------------------------------------------------------
         Definition                    Initial Value    Approx d2E/dq
    -----------------------------------------------------------------
      1. B(C   1,C   0)                  1.5414         0.358200   
      2. B(C   2,C   1)                  1.5438         0.355163   
      3. B(C   3,C   2)                  1.5304         0.373014   
      4. B(C   4,C   3)                  1.5369         0.364254   
      5. B(C   5,C   4)                  1.5342         0.367795   
      6. B(C   6,C   4)                  1.5378         0.362962   
      7. B(C   6,C   5)                  1.5413         0.358392   
      8. B(C   7,C   6)                  1.5414         0.358233   
      9. B(C   8,C   6)                  1.5323         0.370490   
     10. B(C   9,C   5)                  1.5151         0.394571   
     11. B(C  10,C   9)                  1.3390         0.753581   
     12. B(C  11,C  10)                  1.4854         0.440155   
     13. B(C  12,C  11)                  1.5223         0.384329   
     14. B(C  13,C   9)                  1.5094         0.402964   
     15. B(C  13,C   1)                  1.5563         0.339154   
     16. B(C  13,C  12)                  1.5439         0.354929   
     17. B(C  14,C  10)                  1.5056         0.408618   
     18. B(H  15,C   0)                  1.1113         0.332989   
     19. B(H  16,C   0)                  1.1093         0.335440   
     20. B(H  17,C   0)                  1.1110         0.333335   
     21. B(H  18,C   1)                  1.1134         0.330388   
     22. B(H  19,C   2)                  1.1131         0.330802   
     23. B(H  20,C   2)                  1.1129         0.331009   
     24. B(H  21,C   3)                  1.1061         0.339413   
     25. B(H  22,C   3)                  1.1113         0.333044   
     26. B(H  23,C   4)                  1.1119         0.332232   
     27. B(H  24,C   5)                  1.1113         0.332983   
     28. B(H  25,C   7)                  1.1102         0.334378   
     29. B(H  26,C   7)                  1.1097         0.334974   
     30. B(H  27,C   7)                  1.1082         0.336785   
     31. B(H  28,C   8)                  1.1102         0.334406   
     32. B(H  29,C   8)                  1.1114         0.332864   
     33. B(H  30,C   8)                  1.1101         0.334442   
     34. B(H  31,C  11)                  1.1117         0.332562   
     35. B(H  32,C  11)                  1.1115         0.332743   
     36. B(H  33,C  12)                  1.1121         0.332044   
     37. B(H  34,C  12)                  1.1128         0.331195   
     38. B(H  35,C  13)                  1.1136         0.330214   
     39. B(H  36,C  14)                  1.1103         0.334164   
     40. B(H  37,C  14)                  1.1066         0.338753   
     41. B(H  38,C  14)                  1.1102         0.334385   
     42. A(C   1,C   0,H  15)          110.5460         0.317998   
     43. A(H  15,C   0,H  17)          108.7105         0.283859   
     44. A(C   1,C   0,H  17)          110.4347         0.318052   
     45. A(C   1,C   0,H  16)          111.3310         0.318378   
     46. A(H  16,C   0,H  17)          106.9996         0.284183   
     47. A(H  15,C   0,H  16)          108.7102         0.284137   
     48. A(C   2,C   1,C  13)          112.9959         0.354361   
     49. A(C   0,C   1,C  13)          110.2728         0.354873   
     50. A(C   0,C   1,H  18)          107.1830         0.317592   
     51. A(C   0,C   1,C   2)          108.4985         0.357663   
     52. A(C  13,C   1,H  18)          109.0701         0.314782   
     53. A(C   2,C   1,H  18)          108.6432         0.317152   
     54. A(C   1,C   2,H  19)          110.6030         0.317217   
     55. A(C   1,C   2,C   3)          112.3262         0.360139   
     56. A(C   1,C   2,H  20)          108.7749         0.317249   
     57. A(C   3,C   2,H  19)          111.1558         0.319764   
     58. A(C   3,C   2,H  20)          106.9500         0.319796   
     59. A(H  19,C   2,H  20)          106.7795         0.283260   
     60. A(C   2,C   3,H  22)          108.4125         0.320117   
     61. A(H  21,C   3,H  22)          105.5815         0.284665   
     62. A(C   2,C   3,C   4)          111.3073         0.361694   
     63. A(C   4,C   3,H  22)          106.4861         0.318877   
     64. A(C   4,C   3,H  21)          114.6384         0.319865   
     65. A(C   2,C   3,H  21)          110.0227         0.321110   
     66. A(C   3,C   4,H  23)          117.0100         0.318750   
     67. A(C   6,C   4,H  23)          116.5419         0.318565   
     68. A(C   5,C   4,H  23)          112.8537         0.319253   
     69. A(C   5,C   4,C   6)           60.2261         0.360608   
     70. A(C   3,C   4,C   6)          119.4396         0.360014   
     71. A(C   3,C   4,C   5)          118.3340         0.360826   
     72. A(C   6,C   5,H  24)          116.0549         0.318025   
     73. A(C   4,C   5,H  24)          113.7234         0.319371   
     74. A(C   4,C   5,C   6)           60.0027         0.359830   
     75. A(C   9,C   5,H  24)          116.8336         0.323065   
     76. A(C   6,C   5,C   9)          119.0430         0.364172   
     77. A(C   4,C   5,C   9)          118.9718         0.365789   
     78. A(C   7,C   6,C   8)          116.0915         0.360250   
     79. A(C   5,C   6,C   8)          115.3868         0.360278   
     80. A(C   4,C   6,C   8)          114.2657         0.361057   
     81. A(C   5,C   6,C   7)          121.1055         0.358220   
     82. A(C   4,C   6,C   7)          118.2695         0.358993   
     83. A(C   4,C   6,C   5)           59.7712         0.359020   
     84. A(H  26,C   7,H  27)          107.4784         0.284577   
     85. A(H  25,C   7,H  27)          109.1169         0.284498   
     86. A(C   6,C   7,H  27)          113.4414         0.318591   
     87. A(H  25,C   7,H  26)          107.5305         0.284259   
     88. A(C   6,C   7,H  26)          109.6884         0.318311   
     89. A(C   6,C   7,H  25)          109.4056         0.318219   
     90. A(H  28,C   8,H  29)          108.4818         0.283984   
     91. A(C   6,C   8,H  29)          112.2721         0.319733   
     92. A(C   6,C   8,H  28)          109.4947         0.319975   
     93. A(H  29,C   8,H  30)          108.2533         0.283988   
     94. A(H  28,C   8,H  30)          108.8893         0.284193   
     95. A(C   6,C   8,H  30)          109.3847         0.319981   
     96. A(C  10,C   9,C  13)          110.7688         0.416136   
     97. A(C   5,C   9,C  13)          122.9732         0.371570   
     98. A(C   5,C   9,C  10)          121.2139         0.414581   
     99. A(C  11,C  10,C  14)          121.4116         0.379564   
    100. A(C   9,C  10,C  14)          125.0460         0.417169   
    101. A(C   9,C  10,C  11)          112.9061         0.422738   
    102. A(C  10,C  11,C  12)          104.4451         0.375562   
    103. A(H  31,C  11,H  32)          110.0782         0.283724   
    104. A(C  12,C  11,H  32)          111.5198         0.321638   
    105. A(C  10,C  11,H  32)          110.5621         0.328890   
    106. A(C  12,C  11,H  31)          110.3979         0.321609   
    107. A(C  10,C  11,H  31)          109.7058         0.328860   
    108. A(C  11,C  12,C  13)          106.4202         0.361938   
    109. A(H  33,C  12,H  34)          108.6374         0.283450   
    110. A(C  13,C  12,H  34)          111.6525         0.317244   
    111. A(C  11,C  12,H  34)          108.2880         0.321392   
    112. A(C  13,C  12,H  33)          110.8912         0.317376   
    113. A(C  11,C  12,H  33)          110.9241         0.321527   
    114. A(C   9,C  13,C  12)          103.6426         0.364879   
    115. A(C   1,C  13,C  12)          111.5533         0.354322   
    116. A(C   1,C  13,C   9)          115.5748         0.362055   
    117. A(C  12,C  13,H  35)          108.7416         0.317090   
    118. A(C   9,C  13,H  35)          107.6348         0.323738   
    119. A(C   1,C  13,H  35)          109.3710         0.314755   
    120. A(H  37,C  14,H  38)          109.7079         0.284757   
    121. A(H  36,C  14,H  38)          108.2225         0.284153   
    122. A(C  10,C  14,H  38)          110.4081         0.325150   
    123. A(H  36,C  14,H  37)          107.9212         0.284727   
    124. A(C  10,C  14,H  37)          110.2648         0.325845   
    125. A(C  10,C  14,H  36)          110.2567         0.325115   
    126. D(C   2,C   1,C   0,H  15)     63.4145         0.010301   
    127. D(C  13,C   1,C   0,H  17)    178.8229         0.010301   
    128. D(C  13,C   1,C   0,H  16)     60.1086         0.010301   
    129. D(C  13,C   1,C   0,H  15)    -60.8305         0.010301   
    130. D(C   2,C   1,C   0,H  17)    -56.9320         0.010301   
    131. D(C   2,C   1,C   0,H  16)   -175.6463         0.010301   
    132. D(C   3,C   2,C   1,C   0)    164.7773         0.010140   
    133. D(C   3,C   2,C   1,H  18)     48.5683         0.010140   
    134. D(H  19,C   2,C   1,H  18)    173.4019         0.010140   
    135. D(H  19,C   2,C   1,C  13)     52.2195         0.010140   
    136. D(H  19,C   2,C   1,C   0)    -70.3890         0.010140   
    137. D(C   3,C   2,C   1,C  13)    -72.6141         0.010140   
    138. D(C   4,C   3,C   2,H  19)    -31.8568         0.011112   
    139. D(C   4,C   3,C   2,C   1)     92.6720         0.011112   
    140. D(C   4,C   3,C   2,H  20)   -148.0599         0.011112   
    141. D(H  21,C   3,C   2,H  20)     83.7408         0.011112   
    142. D(H  21,C   3,C   2,H  19)   -160.0561         0.011112   
    143. D(H  21,C   3,C   2,C   1)    -35.5272         0.011112   
    144. D(C   6,C   4,C   3,H  22)    108.2240         0.010628   
    145. D(C   6,C   4,C   3,H  21)     -8.1302         0.010628   
    146. D(C   5,C   4,C   3,H  21)     61.7797         0.010628   
    147. D(C   6,C   4,C   3,C   2)   -133.8068         0.010628   
    148. D(C   5,C   4,C   3,H  22)    178.1339         0.010628   
    149. D(C   5,C   4,C   3,C   2)    -63.8970         0.010628   
    150. D(H  24,C   5,C   4,C   3)    142.9619         0.010822   
    151. D(C   9,C   5,C   4,H  23)   -142.7551         0.010822   
    152. D(C   9,C   5,C   4,C   6)    108.7302         0.010822   
    153. D(C   6,C   5,C   4,H  23)    108.5147         0.010822   
    154. D(C   6,C   5,C   4,C   3)   -109.5632         0.010822   
    155. D(C   9,C   5,C   4,C   3)     -0.8330         0.010822   
    156. D(C   5,C   6,C   4,C   3)    107.7571         0.010557   
    157. D(C   8,C   6,C   5,C   4)   -104.4758         0.010311   
    158. D(C   7,C   6,C   5,H  24)   -149.6410         0.010311   
    159. D(C   7,C   6,C   5,C   9)     -1.8373         0.010311   
    160. D(C   7,C   6,C   5,C   4)    106.7760         0.010311   
    161. D(C   4,C   6,C   5,H  24)    103.5830         0.010311   
    162. D(C   8,C   6,C   4,C   3)   -145.8864         0.010557   
    163. D(C   7,C   6,C   4,H  23)    146.1786         0.010557   
    164. D(C   7,C   6,C   4,C   5)   -111.4412         0.010557   
    165. D(C   7,C   6,C   4,C   3)     -3.6841         0.010557   
    166. D(C   5,C   6,C   4,H  23)   -102.3802         0.010557   
    167. D(C   4,C   6,C   5,C   9)   -108.6133         0.010311   
    168. D(H  26,C   7,C   6,C   8)    -37.8334         0.010303   
    169. D(H  26,C   7,C   6,C   5)    110.7077         0.010303   
    170. D(H  26,C   7,C   6,C   4)   -179.3619         0.010303   
    171. D(H  25,C   7,C   6,C   5)   -131.5669         0.010303   
    172. D(H  25,C   7,C   6,C   4)    -61.6365         0.010303   
    173. D(H  25,C   7,C   6,C   8)     79.8919         0.010303   
    174. D(H  29,C   8,C   6,C   7)   -178.1245         0.010971   
    175. D(H  29,C   8,C   6,C   5)     31.5196         0.010971   
    176. D(H  29,C   8,C   6,C   4)    -35.0679         0.010971   
    177. D(H  28,C   8,C   6,C   7)    -57.5683         0.010971   
    178. D(H  28,C   8,C   6,C   5)    152.0758         0.010971   
    179. D(H  28,C   8,C   6,C   4)     85.4883         0.010971   
    180. D(C  13,C   9,C   5,C   6)    130.5736         0.011569   
    181. D(C  13,C   9,C   5,C   4)     60.8301         0.011569   
    182. D(C  10,C   9,C   5,H  24)     70.6725         0.011569   
    183. D(C  10,C   9,C   5,C   6)    -76.8862         0.011569   
    184. D(C  10,C   9,C   5,C   4)   -146.6297         0.011569   
    185. D(C  14,C  10,C   9,C  13)    166.0454         0.040536   
    186. D(C  14,C  10,C   9,C   5)     10.4851         0.040536   
    187. D(C  11,C  10,C   9,C  13)     -4.8768         0.040536   
    188. D(C  11,C  10,C   9,C   5)   -160.4371         0.040536   
    189. D(H  32,C  11,C  10,C   9)   -124.1427         0.014295   
    190. D(H  31,C  11,C  10,C  14)    -57.0266         0.014295   
    191. D(H  31,C  11,C  10,C   9)    114.2682         0.014295   
    192. D(C  12,C  11,C  10,C  14)   -175.3578         0.014295   
    193. D(C  12,C  11,C  10,C   9)     -4.0631         0.014295   
    194. D(H  33,C  12,C  11,H  32)   -108.9266         0.011759   
    195. D(H  33,C  12,C  11,H  31)     13.7802         0.011759   
    196. D(H  33,C  12,C  11,C  10)    131.6382         0.011759   
    197. D(C  13,C  12,C  11,H  32)    130.3643         0.011759   
    198. D(C  13,C  12,C  11,H  31)   -106.9289         0.011759   
    199. D(C  13,C  12,C  11,C  10)     10.9291         0.011759   
    200. D(C   9,C  13,C  12,H  33)   -134.1644         0.010128   
    201. D(C   9,C  13,C  12,C  11)    -13.4341         0.010128   
    202. D(C   1,C  13,C  12,H  34)    -20.4609         0.010128   
    203. D(C   1,C  13,C  12,C  11)   -138.4279         0.010128   
    204. D(H  35,C  13,C   9,C   5)     51.4465         0.012043   
    205. D(C  12,C  13,C   9,C  10)     11.4866         0.012043   
    206. D(C  12,C  13,C   9,C   5)    166.5395         0.012043   
    207. D(C   1,C  13,C   9,C  10)    133.8476         0.012043   
    208. D(C   1,C  13,C   9,C   5)    -71.0995         0.012043   
    209. D(C  12,C  13,C   1,H  18)     54.5587         0.009318   
    210. D(C  12,C  13,C   1,C   2)    175.4990         0.009318   
    211. D(C   1,C  13,C  12,H  33)    100.8418         0.010128   
    212. D(C  12,C  13,C   1,C   0)    -62.8873         0.009318   
    213. D(C   9,C  13,C   1,H  18)    -63.4870         0.009318   
    214. D(C   9,C  13,C   1,C   2)     57.4533         0.009318   
    215. D(C   9,C  13,C  12,H  34)    104.5329         0.010128   
    216. D(C   9,C  13,C   1,C   0)    179.0670         0.009318   
    217. D(H  38,C  14,C  10,C   9)    -49.8674         0.012369   
    218. D(H  37,C  14,C  10,C  11)   -118.2784         0.012369   
    219. D(H  37,C  14,C  10,C   9)     71.5264         0.012369   
    220. D(H  36,C  14,C  10,C  11)      0.7928         0.012369   
    221. D(H  36,C  14,C  10,C   9)   -169.4024         0.012369   
    -----------------------------------------------------------------

Number of atoms                         .... 39
Number of degrees of freedom            .... 221


         *************************************************************
         *                GEOMETRY OPTIMIZATION CYCLE   1            *
         *************************************************************
---------------------------------
CARTESIAN COORDINATES (ANGSTROEM)
---------------------------------
  C     -3.065416   -2.067613    0.410300
  C     -1.710586   -1.471266   -0.019635
  C     -0.585632   -2.408929    0.468683
  C      0.752599   -2.115832   -0.213507
  C      1.594498   -1.128050    0.609588
  C      1.056220    0.294200    0.812978
  C      2.276992    0.055100   -0.097041
  C      2.158992    0.156157   -1.630607
  C      3.630585    0.450681    0.502220
  C     -0.267844    0.674922    0.182518
  C     -0.493334    1.918114   -0.260775
  C     -1.938909    2.225800   -0.408838
  C     -2.641614    0.916413   -0.078640
  C     -1.566461   -0.017675    0.517403
  C      0.555384    2.989101   -0.402149
  H     -3.141156   -2.104792    1.518399
  H     -3.912713   -1.470259    0.015553
  H     -3.180170   -3.097822    0.010457
  H     -1.698658   -1.450672   -1.132822
  H     -0.490375   -2.362469    1.576726
  H     -0.857236   -3.457545    0.213244
  H      0.583997   -1.814062   -1.264210
  H      1.335150   -3.060804   -0.264156
  H      2.105306   -1.529619    1.511917
  H      1.272088    0.714359    1.818901
  H      2.628885   -0.735388   -2.096260
  H      2.709545    1.050170   -1.989830
  H      1.113458    0.243460   -1.987524
  H      4.430660   -0.176709    0.056466
  H      3.656211    0.322610    1.605928
  H      3.838661    1.516311    0.270904
  H     -2.230292    3.015685    0.317080
  H     -2.163015    2.558697   -1.445373
  H     -3.469205    1.081469    0.645633
  H     -3.069234    0.502802   -1.019033
  H     -1.670624   -0.021503    1.626099
  H      0.077594    3.970547   -0.605500
  H      1.229128    2.756456   -1.248663
  H      1.146522    3.077956    0.533336

----------------------------
CARTESIAN COORDINATES (A.U.)
----------------------------
  NO LB      ZA    FRAG     MASS         X           Y           Z
   0 C     4.0000*   0    12.011   -5.792797   -3.907222    0.775355
   1 C     4.0000*   0    12.011   -3.232539   -2.780290   -0.037105
   2 C     4.0000*   0    12.011   -1.106684   -4.552216    0.885683
   3 C     4.0000*   0    12.011    1.422206   -3.998343   -0.403470
   4 C     4.0000*   0    12.011    3.013165   -2.131706    1.151954
   5 C     4.0000*   0    12.011    1.995967    0.555957    1.536306
   6 C     4.0000*   0    12.011    4.302891    0.104124   -0.183381
   7 C     4.0000*   0    12.011    4.079904    0.295094   -3.081401
   8 C     4.0000*   0    12.011    6.860811    0.851664    0.949058
   9 C     4.0000*   0    12.011   -0.506152    1.275418    0.344909
  10 C     4.0000*   0    12.011   -0.932266    3.624710   -0.492793
  11 C     4.0000*   0    12.011   -3.664007    4.206152   -0.772592
  12 C     4.0000*   0    12.011   -4.991927    1.731770   -0.148608
  13 C     4.0000*   0    12.011   -2.960182   -0.033401    0.977750
  14 C     4.0000*   0    12.011    1.049524    5.648582   -0.759951
  15 H     1.0000    0     1.008   -5.935925   -3.977480    2.869358
  16 H     1.0000    0     1.008   -7.393956   -2.778387    0.029391
  17 H     1.0000    0     1.008   -6.009650   -5.854035    0.019761
  18 H     1.0000    0     1.008   -3.209998   -2.741373   -2.140723
  19 H     1.0000    0     1.008   -0.926674   -4.464419    2.979580
  20 H     1.0000    0     1.008   -1.619941   -6.533813    0.402973
  21 H     1.0000    0     1.008    1.103594   -3.428080   -2.389011
  22 H     1.0000    0     1.008    2.523068   -5.784081   -0.499182
  23 H     1.0000    0     1.008    3.978452   -2.890561    2.857109
  24 H     1.0000    0     1.008    2.403898    1.349943    3.437225
  25 H     1.0000    0     1.008    4.967873   -1.389682   -3.961357
  26 H     1.0000    0     1.008    5.120298    1.984534   -3.760234
  27 H     1.0000    0     1.008    2.104131    0.460073   -3.755876
  28 H     1.0000    0     1.008    8.372734   -0.333932    0.106705
  29 H     1.0000    0     1.008    6.909237    0.609645    3.034764
  30 H     1.0000    0     1.008    7.254018    2.865413    0.511934
  31 H     1.0000    0     1.008   -4.214641    5.698819    0.599194
  32 H     1.0000    0     1.008   -4.087506    4.835237   -2.731359
  33 H     1.0000    0     1.008   -6.555847    2.043680    1.220070
  34 H     1.0000    0     1.008   -5.800012    0.950158   -1.925693
  35 H     1.0000    0     1.008   -3.157022   -0.040635    3.072882
  36 H     1.0000    0     1.008    0.146631    7.503246   -1.144229
  37 H     1.0000    0     1.008    2.322715    5.208947   -2.359631
  38 H     1.0000    0     1.008    2.166613    5.816494    1.007859
* core charge reduced due to ECP

--------------------------------
INTERNAL COORDINATES (ANGSTROEM)
--------------------------------
 C      0   0   0     0.000000000000     0.00000000     0.00000000
 C      1   0   0     1.541440293211     0.00000000     0.00000000
 C      2   1   0     1.543757711822   108.49853933     0.00000000
 C      3   2   1     1.530408852846   112.32623350   164.77731971
 C      4   3   2     1.536877543837   111.30728663    92.67204721
 C      5   4   3     1.534244361203   118.33401322   296.10303746
 C      5   4   3     1.537844766606   119.43956853   226.19316350
 C      7   5   4     1.541415321581   118.26946587   356.31593173
 C      7   5   4     1.532257185766   114.26569425   214.11361767
 C      6   5   4     1.515115351708   118.97180665   359.16697488
 C     10   6   5     1.338984978561   121.21394112   213.37029229
 C     11  10   6     1.485355313449   112.90608034   199.56294099
 C     12  11  10     1.522274401019   104.44514237   355.93694322
 C     10   6   5     1.509385530712   122.97318392    60.83013409
 C     11  10   6     1.505592642639   125.04604013    10.48510014
 H      1   2   3     1.111306537118   110.54597368    63.41452156
 H      1   2   3     1.109310236829   111.33098301   184.35365937
 H      1   2   3     1.111023622092   110.43467706   303.06795711
 H      2   1   3     1.113441371150   107.18304861   117.14835416
 H      3   2   1     1.113100048288   110.60298430   289.61095382
 H      3   2   1     1.112930065634   108.77492242    46.58214928
 H      4   3   2     1.106105131311   110.02266502   324.47279969
 H      4   3   2     1.111261926634   108.41249747   209.47219680
 H      5   4   3     1.111926301005   117.01003643    76.46798570
 H      6   5   4     1.111311684737   113.72342874   142.96188683
 H      8   7   5     1.110173245436   109.40563014   298.36352791
 H      8   7   5     1.109688701261   109.68842779   180.63814686
 H      8   7   5     1.108220602522   113.44138244    60.44997784
 H      9   7   5     1.110150821394   109.49470069    85.48829321
 H      9   7   5     1.111409115574   112.27212840   324.93205594
 H      9   7   5     1.110121619703   109.38468660   204.73881984
 H     12  11  10     1.111656110782   109.70581591   114.26815545
 H     12  11  10     1.111507408014   110.56209690   235.85734645
 H     13  12  11     1.112079909425   110.92410048   131.63821018
 H     13  12  11     1.112776670393   108.28802020   250.76212920
 H     14  10   6     1.113584933702   107.63478838    51.44648980
 H     15  11  10     1.110347316932   110.25668356   190.59757667
 H     15  11  10     1.106634820416   110.26476691    71.52641153
 H     15  11  10     1.110167343824   110.40812649   310.13255028

---------------------------
INTERNAL COORDINATES (A.U.)
---------------------------
 C      0   0   0     0.000000000000     0.00000000     0.00000000
 C      1   0   0     2.912900005960     0.00000000     0.00000000
 C      2   1   0     2.917279292472   108.49853933     0.00000000
 C      3   2   1     2.892053604808   112.32623350   164.77731971
 C      4   3   2     2.904277659225   111.30728663    92.67204721
 C      5   4   3     2.899301665187   118.33401322   296.10303746
 C      5   4   3     2.906105445369   119.43956853   226.19316350
 C      7   5   4     2.912852816418   118.26946587   356.31593173
 C      7   5   4     2.895546447830   114.26569425   214.11361767
 C      6   5   4     2.863153076027   118.97180665   359.16697488
 C     10   6   5     2.530314906915   121.21394112   213.37029229
 C     11  10   6     2.806914753983   112.90608034   199.56294099
 C     12  11  10     2.876681718605   104.44514237   355.93694322
 C     10   6   5     2.852325283549   122.97318392    60.83013409
 C     11  10   6     2.845157763835   125.04604013    10.48510014
 H      1   2   3     2.100065005990   110.54597368    63.41452156
 H      1   2   3     2.096292545162   111.33098301   184.35365937
 H      1   2   3     2.099530374071   110.43467706   303.06795711
 H      2   1   3     2.104099257652   107.18304861   117.14835416
 H      3   2   1     2.103454250918   110.60298430   289.61095382
 H      3   2   1     2.103133030256   108.77492242    46.58214928
 H      4   3   2     2.090235773503   110.02266502   324.47279969
 H      4   3   2     2.099980704392   108.41249747   209.47219680
 H      5   4   3     2.101236190003   117.01003643    76.46798570
 H      6   5   4     2.100074733580   113.72342874   142.96188683
 H      8   7   5     2.097923395082   109.40563014   298.36352791
 H      8   7   5     2.097007739291   109.68842779   180.63814686
 H      8   7   5     2.094233434736   113.44138244    60.44997784
 H      9   7   5     2.097881019782   109.49470069    85.48829321
 H      9   7   5     2.100258851179   112.27212840   324.93205594
 H      9   7   5     2.097825836584   109.38468660   204.73881984
 H     12  11  10     2.100725604477   109.70581591   114.26815545
 H     12  11  10     2.100444596971   110.56209690   235.85734645
 H     13  12  11     2.101526467849   110.92410048   131.63821018
 H     13  12  11     2.102843155259   108.28802020   250.76212920
 H     14  10   6     2.104370551558   107.63478838    51.44648980
 H     15  11  10     2.098252342535   110.25668356   190.59757667
 H     15  11  10     2.091236740847   110.26476691    71.52641153
 H     15  11  10     2.097912242651   110.40812649   310.13255028

---------------------
BASIS SET INFORMATION
---------------------
There are 2 groups of distinct atoms

 Group   1 Type C   : 6s6p2d contracted to 2s2p1d pattern {42/42/2}
 Group   2 Type H   : 8s2p contracted to 2s1p pattern {53/2}

Atom   0C    basis set group =>   1
Atom   1C    basis set group =>   1
Atom   2C    basis set group =>   1
Atom   3C    basis set group =>   1
Atom   4C    basis set group =>   1
Atom   5C    basis set group =>   1
Atom   6C    basis set group =>   1
Atom   7C    basis set group =>   1
Atom   8C    basis set group =>   1
Atom   9C    basis set group =>   1
Atom  10C    basis set group =>   1
Atom  11C    basis set group =>   1
Atom  12C    basis set group =>   1
Atom  13C    basis set group =>   1
Atom  14C    basis set group =>   1
Atom  15H    basis set group =>   2
Atom  16H    basis set group =>   2
Atom  17H    basis set group =>   2
Atom  18H    basis set group =>   2
Atom  19H    basis set group =>   2
Atom  20H    basis set group =>   2
Atom  21H    basis set group =>   2
Atom  22H    basis set group =>   2
Atom  23H    basis set group =>   2
Atom  24H    basis set group =>   2
Atom  25H    basis set group =>   2
Atom  26H    basis set group =>   2
Atom  27H    basis set group =>   2
Atom  28H    basis set group =>   2
Atom  29H    basis set group =>   2
Atom  30H    basis set group =>   2
Atom  31H    basis set group =>   2
Atom  32H    basis set group =>   2
Atom  33H    basis set group =>   2
Atom  34H    basis set group =>   2
Atom  35H    basis set group =>   2
Atom  36H    basis set group =>   2
Atom  37H    basis set group =>   2
Atom  38H    basis set group =>   2
---------------------------------
AUXILIARY/J BASIS SET INFORMATION
---------------------------------
There are 2 groups of distinct atoms

 Group   1 Type C   : 12s5p4d2f1g contracted to 6s4p3d1f1g pattern {711111/2111/211/2/1}
 Group   2 Type H   : 5s2p1d contracted to 3s1p1d pattern {311/2/1}

Atom   0C    basis set group =>   1
Atom   1C    basis set group =>   1
Atom   2C    basis set group =>   1
Atom   3C    basis set group =>   1
Atom   4C    basis set group =>   1
Atom   5C    basis set group =>   1
Atom   6C    basis set group =>   1
Atom   7C    basis set group =>   1
Atom   8C    basis set group =>   1
Atom   9C    basis set group =>   1
Atom  10C    basis set group =>   1
Atom  11C    basis set group =>   1
Atom  12C    basis set group =>   1
Atom  13C    basis set group =>   1
Atom  14C    basis set group =>   1
Atom  15H    basis set group =>   2
Atom  16H    basis set group =>   2
Atom  17H    basis set group =>   2
Atom  18H    basis set group =>   2
Atom  19H    basis set group =>   2
Atom  20H    basis set group =>   2
Atom  21H    basis set group =>   2
Atom  22H    basis set group =>   2
Atom  23H    basis set group =>   2
Atom  24H    basis set group =>   2
Atom  25H    basis set group =>   2
Atom  26H    basis set group =>   2
Atom  27H    basis set group =>   2
Atom  28H    basis set group =>   2
Atom  29H    basis set group =>   2
Atom  30H    basis set group =>   2
Atom  31H    basis set group =>   2
Atom  32H    basis set group =>   2
Atom  33H    basis set group =>   2
Atom  34H    basis set group =>   2
Atom  35H    basis set group =>   2
Atom  36H    basis set group =>   2
Atom  37H    basis set group =>   2
Atom  38H    basis set group =>   2
-------------------------
ECP PARAMETER INFORMATION
-------------------------

 Group 1, Type C  ECP vDZP-ECP (replacing 2 core electrons, lmax=3)

Atom   0C    ECP group =>   1
Atom   1C    ECP group =>   1
Atom   2C    ECP group =>   1
Atom   3C    ECP group =>   1
Atom   4C    ECP group =>   1
Atom   5C    ECP group =>   1
Atom   6C    ECP group =>   1
Atom   7C    ECP group =>   1
Atom   8C    ECP group =>   1
Atom   9C    ECP group =>   1
Atom  10C    ECP group =>   1
Atom  11C    ECP group =>   1
Atom  12C    ECP group =>   1
Atom  13C    ECP group =>   1
Atom  14C    ECP group =>   1



           ************************************************************
           *        Program running with 40 parallel MPI-processes    *
           *              working on a common directory               *
           ************************************************************
------------------------------------------------------------------------------
                             ORCA STARTUP CALCULATIONS
                           -- RI-GTO INTEGRALS CHOSEN --
------------------------------------------------------------------------------
------------------------------------------------------------------------------
                   ___                                                        
                  /   \      - P O W E R E D   B Y -                         
                 /     \                                                     
                 |  |  |   _    _      __       _____    __    __             
                 |  |  |  | |  | |    /  \     |  _  \  |  |  /  |          
                  \  \/   | |  | |   /    \    | | | |  |  | /  /          
                 / \  \   | |__| |  /  /\  \   | |_| |  |  |/  /          
                |  |  |   |  __  | /  /__\  \  |    /   |      \           
                |  |  |   | |  | | |   __   |  |    \   |  |\   \          
                \     /   | |  | | |  |  |  |  | |\  \  |  | \   \       
                 \___/    |_|  |_| |__|  |__|  |_| \__\ |__|  \__/        
                                                                              
                      - O R C A' S   B I G   F R I E N D -                    
                                      &                                       
                       - I N T E G R A L  F E E D E R -                       
                                                                              
 v1 FN, 2020, v2 2021, v3 2022-2024                                           
------------------------------------------------------------------------------


----------------------
SHARK INTEGRAL PACKAGE
----------------------

Number of atoms                             ...     39
Number of basis functions                   ...    315
Number of shells                            ...    147
Maximum angular momentum                    ...      2
Integral batch strategy                     ... SHARK/LIBINT Hybrid
RI-J (if used) integral strategy            ... SPLIT-RIJ (Revised 2003 algorithm where possible)
Printlevel                                  ...      1
Contraction scheme used                     ... SEGMENTED contraction
Prescreening option                         ... SCHWARTZ
   Thresh                                   ... 2.500e-11
   Tcut                                     ... 2.500e-12
   Tpresel                                  ... 2.500e-12 
Coulomb Range Separation                    ... NOT USED
Exchange Range Separation                   ... Long Range
   Mu parameter                             ... 3.000e-01
   Scaling (regular/separated)              ... 1.670e-01 8.330e-01
Multipole approximations                    ... NOT USED
Finite Nucleus Model                        ... NOT USED
CABS basis                                  ... NOT available
Auxiliary Coulomb fitting basis             ... AVAILABLE
   # of basis functions in Aux-J            ...    999
   # of shells in Aux-J                     ...    345
   Maximum angular momentum in Aux-J        ...      4
Auxiliary J/K fitting basis                 ... NOT available
Auxiliary Correlation fitting basis         ... NOT available
Auxiliary 'external' fitting basis          ... NOT available

Checking pre-screening integrals            ... done (  0.0 sec) Dimension = 147
Check shell pair data                       ... done (  0.0 sec)
Shell pair information
Shell pair cut-off parameter TPreSel        ...   2.5e-12
Total number of shell pairs                 ...     10878
Shell pairs after pre-screening             ...     10828
Total number of primitive shell pairs       ...    102036
Primitive shell pairs kept                  ...     78643
          la=0 lb=0:   3074 shell pairs
          la=1 lb=0:   4188 shell pairs
          la=1 lb=1:   1466 shell pairs
          la=2 lb=0:   1170 shell pairs
          la=2 lb=1:    810 shell pairs
          la=2 lb=2:    120 shell pairs

Calculating one electron integrals          ... done (  0.0 sec)
Calculating ECP integrals                   ... done (  0.2 sec)
Calculating RI/J V-Matrix + Cholesky decomp.... done (  0.1 sec)
Calculating Nuclear repulsion               ... done (  0.0 sec) ENN=    578.679270025188 Eh

Diagonalization of the overlap matrix:
Smallest eigenvalue                        ... 7.554e-04
Time for diagonalization                   ...    0.014 sec
Threshold for overlap eigenvalues          ... 1.000e-07
Number of eigenvalues below threshold      ... 0
Time for construction of square roots      ...    0.008 sec
Total time needed                          ...    0.025 sec

-------------------
DFT GRID GENERATION
-------------------

General Integration Accuracy     IntAcc      ... 4.388
Radial Grid Type                 RadialGrid  ... OptM3 with GC (2021)
Angular Grid (max. ang.)         AngularGrid ... 4 (Lebedev-302)
Angular grid pruning method      GridPruning ... 4 (adaptive)
Weight generation scheme         WeightScheme... mBecke (2022)
Basis function cutoff            BFCut       ... 1.0000e-11
Integration weight cutoff        WCut        ... 1.0000e-14
Partially contracted basis set               ... off
Rotationally invariant grid construction     ... off
Angular grids for H and He will be reduced by one unit

Total number of grid points                  ...   164635
Total number of batches                      ...     2590
Average number of points per batch           ...       63
Average number of grid points per atom       ...     4221

--------------------
COSX GRID GENERATION
--------------------

GRIDX 1
-------
General Integration Accuracy     IntAcc      ... 3.816
Radial Grid Type                 RadialGrid  ... OptM3 with GC (2021)
Angular Grid (max. ang.)         AngularGrid ... 1 (Lebedev-50)
Angular grid pruning method      GridPruning ... 4 (adaptive)
Weight generation scheme         WeightScheme... mBecke (2022)
Basis function cutoff            BFCut       ... 1.0000e-11
Integration weight cutoff        WCut        ... 1.0000e-14
Partially contracted basis set               ... on
Rotationally invariant grid construction     ... off
Angular grids for H and He will be reduced by one unit

Total number of grid points                  ...    20993
Total number of batches                      ...      189
Average number of points per batch           ...      111
Average number of grid points per atom       ...      538
UseSFitting                                  ... on

GRIDX 2
-------
General Integration Accuracy     IntAcc      ... 4.020
Radial Grid Type                 RadialGrid  ... OptM3 with GC (2021)
Angular Grid (max. ang.)         AngularGrid ... 2 (Lebedev-110)
Angular grid pruning method      GridPruning ... 4 (adaptive)
Weight generation scheme         WeightScheme... mBecke (2022)
Basis function cutoff            BFCut       ... 1.0000e-11
Integration weight cutoff        WCut        ... 1.0000e-14
Partially contracted basis set               ... on
Rotationally invariant grid construction     ... off
Angular grids for H and He will be reduced by one unit

Total number of grid points                  ...    43376
Total number of batches                      ...      359
Average number of points per batch           ...      120
Average number of grid points per atom       ...     1112
UseSFitting                                  ... on

GRIDX 3
-------
General Integration Accuracy     IntAcc      ... 4.338
Radial Grid Type                 RadialGrid  ... OptM3 with GC (2021)
Angular Grid (max. ang.)         AngularGrid ... 3 (Lebedev-194)
Angular grid pruning method      GridPruning ... 4 (adaptive)
Weight generation scheme         WeightScheme... mBecke (2022)
Basis function cutoff            BFCut       ... 1.0000e-11
Integration weight cutoff        WCut        ... 1.0000e-14
Partially contracted basis set               ... on
Rotationally invariant grid construction     ... off
Angular grids for H and He will be reduced by one unit

Total number of grid points                  ...    94126
Total number of batches                      ...      757
Average number of points per batch           ...      124
Average number of grid points per atom       ...     2413
UseSFitting                                  ... on
Initializing property integral containers    ... done (  0.0 sec)

SHARK setup successfully completed in   5.3 seconds

Maximum memory used throughout the entire STARTUP-calculation: 52.2 MB


           ************************************************************
           *        Program running with 40 parallel MPI-processes    *
           *              working on a common directory               *
           ************************************************************
-------------------------------------------------------------------------------
                                 ORCA GUESS
                   Start orbitals & Density for SCF / CASSCF
-------------------------------------------------------------------------------

------------
SCF SETTINGS
------------
Hamiltonian:
 Density Functional     Method          .... DFT(GTOs)
 Exchange Functional    Exchange        .... WB97X-V
 Correlation Functional Correlation     .... WB97X-V
 Gradients option       PostSCFGGA      .... off
 Hybrid DFT is turned on
   Fraction HF Exchange ScalHFX         ....  0.167000
   Scaling of DF-GGA-X  ScalDFX         ....  0.000000
   Scaling of DF-GGA-C  ScalDFC         ....  1.000000
   Scaling of DF-LDA-C  ScalLDAC        ....  1.000000
   Perturbative correction              ....  0.000000
 Long-range corrected/Screened/Range-Separated Hybrid DFT is turned on
   Amount of maximum screened exact exchange              ....  0.833000
   Range separation parameter mu (erf(mu*r12)/r12)        ....  0.300000
   NL short-range parameter             ....  6.000000
   NL long-range parameter              ....  0.010000
 RI-approximation to the Coulomb term is turned on
   Number of AuxJ basis functions       .... 999
   RIJ-COSX (HFX calculated with COS-X)).... on


General Settings:
 Integral files         IntName         .... ./output/alpha_gurjunene/alpha_gurjunene
 Hartree-Fock type      HFTyp           .... RHF
 Total Charge           Charge          ....    0
 Multiplicity           Mult            ....    1
 Number of Electrons    NEL             ....   84
 Basis Dimension        Dim             ....  315
 Nuclear Repulsion      ENuc            ....    578.6792700252 Eh

Convergence Acceleration:
 AO-DIIS                CNVDIIS         .... on
   Start iteration      DIISMaxIt       ....    12
   Startup error        DIISStart       ....  0.200000
   # of expansion vecs  DIISMaxEq       ....     5
   Bias factor          DIISBfac        ....   1.050
   Max. coefficient     DIISMaxC        ....  10.000
 MO-DIIS                CNVKDIIS        .... off
 Trust-Rad. Augm. Hess. CNVTRAH         .... auto
   Auto Start mean grad. ratio tolernc. ....  1.125000
   Auto Start start iteration           ....    50
   Auto Start num. interpolation iter.  ....    10
   Max. Number of Micro iterations      ....    24
   Max. Number of Macro iterations      .... Maxiter - #DIIS iter
   Number of Davidson start vectors     ....     2
   Converg. threshold    (grad. norm)   ....   1.000e-05
   Grad. Scal. Fac. for Micro threshold ....   0.100
   Minimum threshold for Micro iter.    ....   1.000e-02
   NR start threshold (gradient norm)   ....   1.000e-04
   Initial trust radius                 ....   0.400
   Minimum AH scaling param. (alpha)    ....   1.000
   Maximum AH scaling param. (alpha)    .... 1000.000
   Quad. conv. algorithm                .... NR
   White noise on init. David. guess    .... on
   Maximum white noise                  ....   0.010
   Pseudo random numbers                .... off
   Inactive MOs                         .... canonical
   Orbital update algorithm             .... Taylor
   Preconditioner                       .... Diag
   Full preconditioner red. dimension   ....   250
 SOSCF                  CNVSOSCF        .... on
   Start iteration      SOSCFMaxIt      ....   150
   Startup grad/error   SOSCFStart      ....  0.003300
   Hessian update       SOSCFHessUp     .... L-BFGS
 Level Shifting         CNVShift        .... on
   Level shift para.    LevelShift      ....    0.2500
   Turn off err/grad.   ShiftErr        ....    0.0010
 Zerner damping         CNVZerner       .... off
 Static damping         CNVDamp         .... on
   Fraction old density DampFac         ....    0.7000
   Max. Damping (<1)    DampMax         ....    0.9800
   Min. Damping (>=0)   DampMin         ....    0.0000
   Turn off err/grad.   DampErr         ....    0.1000

SCF Procedure:
 Maximum # iterations   MaxIter         ....   125
 SCF integral mode      SCFMode         .... Direct
   Integral package                     .... SHARK and LIBINT hybrid scheme
 Reset frequency        DirectResetFreq ....    20
 Integral Threshold     Thresh          ....  2.500e-11 Eh
 Primitive CutOff       TCut            ....  2.500e-12 Eh

Convergence Tolerance:
 Convergence Check Mode ConvCheckMode   .... Total+1el-Energy
 Convergence forced     ConvForced      .... 0
 Energy Change          TolE            ....  1.000e-08 Eh
 1-El. energy change                    ....  1.000e-05 Eh
 Orbital Gradient       TolG            ....  1.000e-05
 Orbital Rotation angle TolX            ....  1.000e-05
 DIIS Error             TolErr          ....  5.000e-07

------------------------------
INITIAL GUESS: MODEL POTENTIAL
------------------------------
Loading Hartree-Fock densities                     ... done
Atomic calculation to generate a density for atom 0 (C  with ECP)
  Multiplicity assumed   :    1
  Atomic configuration   : 1s2 2s2 2p2 
  Number of open shells  : 1
  Command: /home/aspe232/Project/Software/ORCA/6_0_1/build/orca ./output/alpha_gurjunene/alpha_gurjunene_atom6.inp "" > ./output/alpha_gurjunene/alpha_gurjunene_atom6.out
Returned from the atomic calculation with res=0
Calculating cut-offs                               ... done
Initializing the effective Hamiltonian             ... done
Setting up the integral package (SHARK)            ... done
Starting the Coulomb interaction                   ... done (   0.1 sec)
Making the grid                                    ... done (   1.1 sec)
Mapping shells                                     ... done
Starting the XC term evaluation                    ... done (   0.1 sec)
  promolecular density results
     # of electrons  =    113.983037844
     EX              =    -55.408480029
     EC              =     -4.569847378
     EX+EC           =    -59.978327408
Transforming the Hamiltonian                       ... done (   0.0 sec)
Diagonalizing the Hamiltonian                      ... done (   0.0 sec)
Back transforming the eigenvectors                 ... done (   0.0 sec)
Now organizing SCF variables                       ... done
                      ------------------
                      INITIAL GUESS DONE (   1.8 sec)
                      ------------------
             **** ENERGY FILE WAS UPDATED (./output/alpha_gurjunene/alpha_gurjunene.en.tmp) ****
Finished Guess after   2.8 sec
Maximum memory used throughout the entire GUESS-calculation: 34.9 MB


           ************************************************************
           *        Program running with 40 parallel MPI-processes    *
           *              working on a common directory               *
           ************************************************************

-------------------------------------------------------------------------------------------
                                      ORCA LEAN-SCF
                              memory conserving SCF solver
-------------------------------------------------------------------------------------------

----------------------------------------D-I-I-S--------------------------------------------
Iteration    Energy (Eh)           Delta-E    RMSDP     MaxDP     DIISErr   Damp  Time(sec)
-------------------------------------------------------------------------------------------
               ***  Starting incremental Fock matrix formation  ***
    1    -99.1804191697433453     0.00e+00  3.56e-03  7.82e-02  1.90e-01  0.700   8.4
    2    -99.4560564617844420    -2.76e-01  2.59e-03  5.68e-02  1.14e-01  0.700   6.2
                               ***Turning on AO-DIIS***
    3    -99.5987777183169101    -1.43e-01  1.34e-03  3.02e-02  6.06e-02  0.700   5.6
    4    -99.6826775615104452    -8.39e-02  2.90e-03  6.45e-02  3.81e-02  0.000   5.8
    5    -99.8587958586383593    -1.76e-01  2.15e-04  4.44e-03  4.76e-03  0.000   6.2
                              *** Initializing SOSCF ***
---------------------------------------S-O-S-C-F--------------------------------------
Iteration    Energy (Eh)           Delta-E    RMSDP     MaxDP     MaxGrad    Time(sec)
--------------------------------------------------------------------------------------
    6    -99.8592772971567229    -4.81e-04  1.07e-04  2.44e-03  1.49e-03     6.0
               *** Restarting incremental Fock matrix formation ***
    7    -99.8593546310688680    -7.73e-05  5.99e-05  1.61e-03  3.65e-04     8.4
    8    -99.8593666164535989    -1.20e-05  3.63e-05  8.87e-04  2.43e-04     7.7
    9    -99.8593709390191862    -4.32e-06  1.07e-05  1.82e-04  5.51e-05     7.2
   10    -99.8593712135365195    -2.75e-07  2.09e-06  5.64e-05  7.83e-06     6.9
   11    -99.8593712179700788    -4.43e-09  8.42e-07  1.76e-05  4.06e-06     6.5
                 **** Energy Check signals convergence ****

               *****************************************************
               *                     SUCCESS                       *
               *           SCF CONVERGED AFTER  11 CYCLES          *
               *****************************************************

Recomputing exchange energy using gridx3       ... done (   10.183 sec)
Old exchange energy                            :    -15.893546502 Eh
New exchange energy                            :    -15.893539050 Eh
Exchange energy change after final integration :      0.000007451 Eh
Total energy after final integration           :    -99.859363767 Eh
             **** ENERGY FILE WAS UPDATED (./output/alpha_gurjunene/alpha_gurjunene.en.tmp) ****

----------------
TOTAL SCF ENERGY
----------------

Total Energy       :        -99.85936376678306 Eh           -2717.31143 eV

Components:
Nuclear Repulsion  :        578.67927002518752 Eh           15746.66348 eV
Electronic Energy  :       -678.53864124315760 Eh          -18463.97512 eV
One Electron Energy:      -1296.42324379190427 Eh          -35277.46994 eV
Two Electron Energy:        617.88460254874667 Eh           16813.49482 eV

Virial components:
Potential Energy   :       -177.86823250265468 Eh           -4840.04067 eV
Kinetic Energy     :         78.00886873587162 Eh            2122.72924 eV
Virial Ratio       :          2.28010270351304

DFT components:
N(Alpha)           :       41.999919261083 electrons
N(Beta)            :       41.999919261083 electrons
N(Total)           :       83.999838522165 electrons
E(X)               :      -16.097496187880 Eh       
E(C)               :       -3.147075264103 Eh       
E(XC)              :      -19.244571451983 Eh       

---------------
SCF CONVERGENCE
---------------

  Last Energy change         ...    4.4336e-09  Tolerance :   1.0000e-08
  Last MAX-Density change    ...    1.7605e-05  Tolerance :   1.0000e-07
  Last RMS-Density change    ...    8.4241e-07  Tolerance :   5.0000e-09
  Last DIIS Error            ...    1.4870e-03  Tolerance :   5.0000e-07
  Last Orbital Gradient      ...    4.0590e-06  Tolerance :   1.0000e-05
  Last Orbital Rotation      ...    1.0704e-05  Tolerance :   1.0000e-05


----------------
ORBITAL ENERGIES
----------------

  NO   OCC          E(Eh)            E(eV) 
   0   2.0000      -1.011958       -27.5368 
   1   2.0000      -0.981562       -26.7097 
   2   2.0000      -0.937163       -25.5015 
   3   2.0000      -0.881106       -23.9761 
   4   2.0000      -0.863222       -23.4895 
   5   2.0000      -0.857191       -23.3254 
   6   2.0000      -0.825826       -22.4719 
   7   2.0000      -0.812901       -22.1202 
   8   2.0000      -0.784730       -21.3536 
   9   2.0000      -0.755345       -20.5540 
  10   2.0000      -0.719827       -19.5875 
  11   2.0000      -0.678953       -18.4752 
  12   2.0000      -0.674535       -18.3550 
  13   2.0000      -0.646686       -17.5972 
  14   2.0000      -0.608788       -16.5660 
  15   2.0000      -0.594505       -16.1773 
  16   2.0000      -0.581660       -15.8278 
  17   2.0000      -0.576563       -15.6891 
  18   2.0000      -0.548457       -14.9243 
  19   2.0000      -0.546362       -14.8673 
  20   2.0000      -0.537137       -14.6162 
  21   2.0000      -0.527548       -14.3553 
  22   2.0000      -0.526950       -14.3390 
  23   2.0000      -0.508096       -13.8260 
  24   2.0000      -0.505076       -13.7438 
  25   2.0000      -0.496433       -13.5086 
  26   2.0000      -0.489305       -13.3147 
  27   2.0000      -0.483284       -13.1508 
  28   2.0000      -0.481732       -13.1086 
  29   2.0000      -0.466013       -12.6809 
  30   2.0000      -0.458529       -12.4772 
  31   2.0000      -0.453543       -12.3415 
  32   2.0000      -0.441848       -12.0233 
  33   2.0000      -0.438344       -11.9280 
  34   2.0000      -0.433983       -11.8093 
  35   2.0000      -0.429539       -11.6884 
  36   2.0000      -0.420387       -11.4393 
  37   2.0000      -0.416312       -11.3284 
  38   2.0000      -0.400972       -10.9110 
  39   2.0000      -0.358666        -9.7598 
  40   2.0000      -0.352199        -9.5838 
  41   2.0000      -0.309656        -8.4262 
  42   0.0000       0.081118         2.2073 
  43   0.0000       0.089366         2.4318 
  44   0.0000       0.094015         2.5583 
  45   0.0000       0.096116         2.6154 
  46   0.0000       0.102624         2.7925 
  47   0.0000       0.115832         3.1519 
  48   0.0000       0.116395         3.1673 
  49   0.0000       0.117517         3.1978 
  50   0.0000       0.128610         3.4996 
  51   0.0000       0.134637         3.6636 
  52   0.0000       0.140860         3.8330 
*Only the first 10 virtual orbitals were printed.

                    ********************************
                    * MULLIKEN POPULATION ANALYSIS *
                    ********************************

-----------------------
MULLIKEN ATOMIC CHARGES
-----------------------
   0 C :   -0.068557
   1 C :   -0.087473
   2 C :   -0.041619
   3 C :   -0.051219
   4 C :   -0.040848
   5 C :   -0.087876
   6 C :   -0.106896
   7 C :   -0.055548
   8 C :   -0.046431
   9 C :   -0.045657
  10 C :   -0.015010
  11 C :   -0.053827
  12 C :   -0.056239
  13 C :   -0.069248
  14 C :   -0.078906
  15 H :    0.033612
  16 H :    0.030674
  17 H :    0.033439
  18 H :    0.033562
  19 H :    0.033135
  20 H :    0.031928
  21 H :    0.025756
  22 H :    0.041166
  23 H :    0.036735
  24 H :    0.044695
  25 H :    0.045971
  26 H :    0.029735
  27 H :    0.051045
  28 H :    0.037583
  29 H :    0.030938
  30 H :    0.028715
  31 H :    0.044694
  32 H :    0.044420
  33 H :    0.044835
  34 H :    0.034537
  35 H :    0.039758
  36 H :    0.034240
  37 H :    0.044512
  38 H :    0.049669
Sum of atomic charges:    0.0000000

--------------------------------
MULLIKEN REDUCED ORBITAL CHARGES
--------------------------------
  0 C s       :     0.961316  s :     0.961316
      pz      :     1.030445  p :     3.032985
      px      :     0.977249
      py      :     1.025290
      dz2     :     0.021649  d :     0.074257
      dxz     :     0.010553
      dyz     :     0.007437
      dx2y2   :     0.017777
      dxy     :     0.016840

  1 C s       :     1.058903  s :     1.058903
      pz      :     1.028659  p :     2.905807
      px      :     0.954532
      py      :     0.922616
      dz2     :     0.033637  d :     0.122763
      dxz     :     0.015272
      dyz     :     0.015525
      dx2y2   :     0.028744
      dxy     :     0.029586

  2 C s       :     0.999299  s :     0.999299
      pz      :     1.021605  p :     2.943930
      px      :     0.919205
      py      :     1.003121
      dz2     :     0.028596  d :     0.098390
      dxz     :     0.015939
      dyz     :     0.007231
      dx2y2   :     0.025850
      dxy     :     0.020773

  3 C s       :     0.990031  s :     0.990031
      pz      :     1.001789  p :     2.961866
      px      :     0.949959
      py      :     1.010118
      dz2     :     0.025946  d :     0.099322
      dxz     :     0.016663
      dyz     :     0.012340
      dx2y2   :     0.017084
      dxy     :     0.027289

  4 C s       :     1.056264  s :     1.056264
      pz      :     1.011881  p :     2.868642
      px      :     1.023420
      py      :     0.833340
      dz2     :     0.018106  d :     0.115942
      dxz     :     0.019306
      dyz     :     0.026965
      dx2y2   :     0.023729
      dxy     :     0.027837

  5 C s       :     1.040213  s :     1.040213
      pz      :     0.988585  p :     2.930173
      px      :     0.931602
      py      :     1.009987
      dz2     :     0.022873  d :     0.117490
      dxz     :     0.024657
      dyz     :     0.018044
      dx2y2   :     0.027270
      dxy     :     0.024646

  6 C s       :     1.099819  s :     1.099819
      pz      :     0.942316  p :     2.864691
      px      :     0.896268
      py      :     1.026107
      dz2     :     0.031129  d :     0.142386
      dxz     :     0.034524
      dyz     :     0.024636
      dx2y2   :     0.026968
      dxy     :     0.025128

  7 C s       :     0.947882  s :     0.947882
      pz      :     0.945391  p :     3.034006
      px      :     1.042153
      py      :     1.046462
      dz2     :     0.017311  d :     0.073660
      dxz     :     0.014641
      dyz     :     0.018768
      dx2y2   :     0.011179
      dxy     :     0.011761

  8 C s       :     0.956857  s :     0.956857
      pz      :     1.014175  p :     3.013483
      px      :     0.970944
      py      :     1.028364
      dz2     :     0.021683  d :     0.076091
      dxz     :     0.012074
      dyz     :     0.005426
      dx2y2   :     0.018181
      dxy     :     0.018727

  9 C s       :     1.022389  s :     1.022389
      pz      :     1.007289  p :     2.903829
      px      :     0.902518
      py      :     0.994021
      dz2     :     0.015835  d :     0.119439
      dxz     :     0.020383
      dyz     :     0.017148
      dx2y2   :     0.033854
      dxy     :     0.032220

 10 C s       :     1.077850  s :     1.077850
      pz      :     0.937295  p :     2.813468
      px      :     0.907409
      py      :     0.968764
      dz2     :     0.010735  d :     0.123693
      dxz     :     0.017534
      dyz     :     0.022074
      dx2y2   :     0.036162
      dxy     :     0.037188

 11 C s       :     0.985564  s :     0.985564
      pz      :     1.038342  p :     2.965271
      px      :     0.937120
      py      :     0.989809
      dz2     :     0.016398  d :     0.102992
      dxz     :     0.017422
      dyz     :     0.024280
      dx2y2   :     0.024026
      dxy     :     0.020866

 12 C s       :     0.997622  s :     0.997622
      pz      :     1.022926  p :     2.963161
      px      :     0.991320
      py      :     0.948916
      dz2     :     0.013420  d :     0.095456
      dxz     :     0.023347
      dyz     :     0.017259
      dx2y2   :     0.020626
      dxy     :     0.020803

 13 C s       :     1.041113  s :     1.041113
      pz      :     1.027009  p :     2.903491
      px      :     0.942110
      py      :     0.934372
      dz2     :     0.033200  d :     0.124644
      dxz     :     0.016326
      dyz     :     0.016829
      dx2y2   :     0.027754
      dxy     :     0.030534

 14 C s       :     0.948354  s :     0.948354
      pz      :     1.048928  p :     3.057889
      px      :     0.998829
      py      :     1.010132
      dz2     :     0.011591  d :     0.072663
      dxz     :     0.020905
      dyz     :     0.008101
      dx2y2   :     0.014580
      dxy     :     0.017486

 15 H s       :     0.923433  s :     0.923433
      pz      :     0.023375  p :     0.042955
      px      :     0.009675
      py      :     0.009905

 16 H s       :     0.924721  s :     0.924721
      pz      :     0.011836  p :     0.044605
      px      :     0.018324
      py      :     0.014446

 17 H s       :     0.923085  s :     0.923085
      pz      :     0.011585  p :     0.043475
      px      :     0.010290
      py      :     0.021600

 18 H s       :     0.927501  s :     0.927501
      pz      :     0.022335  p :     0.038937
      px      :     0.008524
      py      :     0.008077

 19 H s       :     0.925353  s :     0.925353
      pz      :     0.023166  p :     0.041511
      px      :     0.009264
      py      :     0.009081

 20 H s       :     0.925740  s :     0.925740
      pz      :     0.010041  p :     0.042332
      px      :     0.010943
      py      :     0.021348

 21 H s       :     0.928965  s :     0.928965
      pz      :     0.022850  p :     0.045279
      px      :     0.010658
      py      :     0.011772

 22 H s       :     0.916598  s :     0.916598
      pz      :     0.009591  p :     0.042236
      px      :     0.013619
      py      :     0.019026

 23 H s       :     0.918699  s :     0.918699
      pz      :     0.019593  p :     0.044566
      px      :     0.014265
      py      :     0.010709

 24 H s       :     0.910277  s :     0.910277
      pz      :     0.021812  p :     0.045029
      px      :     0.009816
      py      :     0.013401

 25 H s       :     0.910907  s :     0.910907
      pz      :     0.011906  p :     0.043122
      px      :     0.012596
      py      :     0.018620

 26 H s       :     0.925939  s :     0.925939
      pz      :     0.011493  p :     0.044325
      px      :     0.014074
      py      :     0.018758

 27 H s       :     0.902426  s :     0.902426
      pz      :     0.011398  p :     0.046530
      px      :     0.024346
      py      :     0.010786

 28 H s       :     0.919319  s :     0.919319
      pz      :     0.011715  p :     0.043098
      px      :     0.017222
      py      :     0.014162

 29 H s       :     0.925012  s :     0.925012
      pz      :     0.023470  p :     0.044051
      px      :     0.009845
      py      :     0.010736

 30 H s       :     0.928087  s :     0.928087
      pz      :     0.010315  p :     0.043198
      px      :     0.010412
      py      :     0.022471

 31 H s       :     0.912338  s :     0.912338
      pz      :     0.015320  p :     0.042968
      px      :     0.011194
      py      :     0.016454

 32 H s       :     0.912525  s :     0.912525
      pz      :     0.021457  p :     0.043055
      px      :     0.010922
      py      :     0.010676

 33 H s       :     0.912870  s :     0.912870
      pz      :     0.015243  p :     0.042295
      px      :     0.016989
      py      :     0.010063

 34 H s       :     0.923166  s :     0.923166
      pz      :     0.019417  p :     0.042297
      px      :     0.011313
      py      :     0.011567

 35 H s       :     0.920519  s :     0.920519
      pz      :     0.022438  p :     0.039723
      px      :     0.008860
      py      :     0.008426

 36 H s       :     0.921751  s :     0.921751
      pz      :     0.010930  p :     0.044010
      px      :     0.012257
      py      :     0.020822

 37 H s       :     0.909272  s :     0.909272
      pz      :     0.018633  p :     0.046215
[...]
 81:   1511.43   0.000825    4.17  0.000170  ( 0.009063  0.008033  0.004873)
 82:   1513.03   0.000874    4.42  0.000180  (-0.001337  0.006559 -0.011640)
 83:   1514.36   0.001098    5.55  0.000226  ( 0.005157 -0.011745  0.007856)
 84:   1519.08   0.000193    0.97  0.000040  (-0.006108  0.000321  0.001483)
 85:   1522.27   0.002057   10.40  0.000422  (-0.001892 -0.020416 -0.001160)
 86:   1526.27   0.002593   13.10  0.000530  (-0.003099  0.010589  0.020209)
 87:   1529.35   0.001993   10.07  0.000407  ( 0.007660 -0.007884  0.016904)
 88:   1532.79   0.002063   10.42  0.000420  ( 0.009565  0.007511  0.016495)
 89:   1538.13   0.001545    7.81  0.000313  (-0.007222  0.015282 -0.005262)
 90:   1539.46   0.000097    0.49  0.000020  (-0.004117  0.001621 -0.000087)
 91:   1561.62   0.000160    0.81  0.000032  ( 0.003930  0.002892 -0.002857)
 92:   1788.97   0.000554    2.80  0.000097  ( 0.005269  0.008300 -0.000015)
 93:   3031.74   0.004164   21.04  0.000429  ( 0.003121  0.005057 -0.019831)
 94:   3060.04   0.005157   26.06  0.000526  (-0.003246 -0.000277  0.022701)
 95:   3079.52   0.007830   39.57  0.000793  ( 0.005750  0.019346 -0.019650)
 96:   3081.54   0.009924   50.15  0.001005  (-0.014416  0.028213  0.001076)
 97:   3086.43   0.008965   45.31  0.000906  (-0.027101 -0.009236 -0.009311)
 98:   3092.15   0.011672   58.99  0.001178  (-0.006623 -0.033538  0.003047)
 99:   3095.02   0.008379   42.34  0.000845  (-0.022767 -0.012456  0.013088)
100:   3096.15   0.007818   39.51  0.000788  (-0.015395 -0.010083  0.021196)
101:   3105.94   0.006467   32.68  0.000650  ( 0.013248 -0.019875 -0.008904)
102:   3112.38   0.004382   22.14  0.000439  ( 0.019861  0.005066  0.004383)
103:   3132.63   0.004428   22.38  0.000441  ( 0.010863 -0.013069  0.012342)
104:   3133.22   0.009755   49.30  0.000972  ( 0.008435  0.019815  0.022534)
105:   3158.17   0.002285   11.55  0.000226  ( 0.003485 -0.003923  0.014079)
106:   3161.39   0.002772   14.01  0.000274  ( 0.003051 -0.007711 -0.014312)
107:   3166.86   0.000988    4.99  0.000097  ( 0.001775  0.006872  0.006857)
108:   3168.13   0.002881   14.56  0.000284  (-0.006322  0.015593  0.000837)
109:   3172.73   0.004759   24.05  0.000468  (-0.004875  0.021078  0.000045)
110:   3178.45   0.004000   20.22  0.000393  ( 0.009321  0.011494  0.013182)
111:   3178.91   0.006064   30.64  0.000595  ( 0.011691 -0.005767 -0.020623)
112:   3187.33   0.001790    9.04  0.000175  ( 0.011056 -0.001886 -0.007031)
113:   3193.11   0.008209   41.48  0.000802  ( 0.006756 -0.011374  0.025045)
114:   3198.33   0.003881   19.62  0.000379  ( 0.011884 -0.014768  0.004404)
115:   3214.78   0.002474   12.50  0.000240  ( 0.014885  0.003146  0.002950)
116:   3218.07   0.002219   11.21  0.000215  ( 0.013883 -0.002314  0.004134)

* The epsilon (eps) is given for a Dirac delta lineshape.
** The dipole moment derivative (T) already includes vibrational overlap.

The first frequency considered to be a vibration is 6
The total number of vibrations considered is 111


--------------------------
THERMOCHEMISTRY AT 298.15K
--------------------------

Temperature         ...   298.15 K
Pressure            ...     1.00 atm
Total Mass          ...   204.36 AMU
Quasi RRHO          ...     True
Cut-Off Frequency   ...     1.00 cm^-1

Throughout the following assumptions are being made:
  (1) The electronic state is orbitally nondegenerate
  (2) There are no thermally accessible electronically excited states
  (3) Hindered rotations indicated by low frequency modes are not
      treated as such but are treated as vibrations and this may
      cause some error
  (4) All equations used are the standard statistical mechanics
      equations for an ideal gas
  (5) All vibrations are strictly harmonic

freq.      44.12  E(vib)   ...       0.53 
freq.      87.68  E(vib)   ...       0.48 
freq.     114.41  E(vib)   ...       0.44 
freq.     152.41  E(vib)   ...       0.40 
freq.     169.77  E(vib)   ...       0.38 
freq.     184.37  E(vib)   ...       0.37 
freq.     191.48  E(vib)   ...       0.36 
freq.     209.76  E(vib)   ...       0.34 
freq.     220.04  E(vib)   ...       0.33 
freq.     230.46  E(vib)   ...       0.32 
freq.     268.03  E(vib)   ...       0.29 
freq.     272.12  E(vib)   ...       0.29 
freq.     288.23  E(vib)   ...       0.27 
freq.     315.95  E(vib)   ...       0.25 
freq.     328.04  E(vib)   ...       0.24 
freq.     348.30  E(vib)   ...       0.23 
freq.     375.51  E(vib)   ...       0.21 
freq.     398.30  E(vib)   ...       0.20 
freq.     433.88  E(vib)   ...       0.17 
freq.     448.87  E(vib)   ...       0.17 
freq.     475.54  E(vib)   ...       0.15 
freq.     544.95  E(vib)   ...       0.12 
freq.     565.85  E(vib)   ...       0.11 
freq.     585.35  E(vib)   ...       0.11 
freq.     645.79  E(vib)   ...       0.09 
freq.     670.61  E(vib)   ...       0.08 
freq.     753.80  E(vib)   ...       0.06 
freq.     794.53  E(vib)   ...       0.05 
freq.     807.65  E(vib)   ...       0.05 
freq.     873.91  E(vib)   ...       0.04 
freq.     881.40  E(vib)   ...       0.04 
freq.     926.18  E(vib)   ...       0.03 
freq.     938.40  E(vib)   ...       0.03 
freq.     948.06  E(vib)   ...       0.03 
freq.     969.33  E(vib)   ...       0.03 
freq.     989.78  E(vib)   ...       0.02 
freq.     994.20  E(vib)   ...       0.02 
freq.    1007.64  E(vib)   ...       0.02 
freq.    1018.52  E(vib)   ...       0.02 
freq.    1035.47  E(vib)   ...       0.02 
freq.    1041.54  E(vib)   ...       0.02 
freq.    1048.44  E(vib)   ...       0.02 
freq.    1065.14  E(vib)   ...       0.02 
freq.    1091.51  E(vib)   ...       0.02 
freq.    1094.32  E(vib)   ...       0.02 
freq.    1122.35  E(vib)   ...       0.01 
freq.    1123.72  E(vib)   ...       0.01 
freq.    1139.30  E(vib)   ...       0.01 
freq.    1164.96  E(vib)   ...       0.01 
freq.    1178.58  E(vib)   ...       0.01 
freq.    1194.63  E(vib)   ...       0.01 
freq.    1210.95  E(vib)   ...       0.01 
freq.    1217.60  E(vib)   ...       0.01 
freq.    1248.96  E(vib)   ...       0.01 
freq.    1262.85  E(vib)   ...       0.01 
freq.    1265.93  E(vib)   ...       0.01 
freq.    1282.14  E(vib)   ...       0.01 
freq.    1306.08  E(vib)   ...       0.01 
freq.    1312.19  E(vib)   ...       0.01 
freq.    1336.70  E(vib)   ...       0.01 
freq.    1353.81  E(vib)   ...       0.01 
freq.    1367.90  E(vib)   ...       0.01 
freq.    1368.75  E(vib)   ...       0.01 
freq.    1383.02  E(vib)   ...       0.01 
freq.    1387.28  E(vib)   ...       0.00 
freq.    1406.89  E(vib)   ...       0.00 
freq.    1432.04  E(vib)   ...       0.00 
freq.    1438.01  E(vib)   ...       0.00 
freq.    1443.63  E(vib)   ...       0.00 
freq.    1443.99  E(vib)   ...       0.00 
freq.    1449.29  E(vib)   ...       0.00 
freq.    1456.66  E(vib)   ...       0.00 
freq.    1461.28  E(vib)   ...       0.00 
freq.    1506.96  E(vib)   ...       0.00 
freq.    1510.69  E(vib)   ...       0.00 
freq.    1511.43  E(vib)   ...       0.00 
freq.    1513.03  E(vib)   ...       0.00 
freq.    1514.36  E(vib)   ...       0.00 
freq.    1519.08  E(vib)   ...       0.00 
freq.    1522.27  E(vib)   ...       0.00 
freq.    1526.27  E(vib)   ...       0.00 
freq.    1529.35  E(vib)   ...       0.00 
freq.    1532.79  E(vib)   ...       0.00 
freq.    1538.13  E(vib)   ...       0.00 
freq.    1539.46  E(vib)   ...       0.00 
freq.    1561.62  E(vib)   ...       0.00 
freq.    1788.97  E(vib)   ...       0.00 
freq.    3031.74  E(vib)   ...       0.00 
freq.    3060.04  E(vib)   ...       0.00 
freq.    3079.52  E(vib)   ...       0.00 
freq.    3081.54  E(vib)   ...       0.00 
freq.    3086.43  E(vib)   ...       0.00 
freq.    3092.15  E(vib)   ...       0.00 
freq.    3095.02  E(vib)   ...       0.00 
freq.    3096.15  E(vib)   ...       0.00 
freq.    3105.94  E(vib)   ...       0.00 
freq.    3112.38  E(vib)   ...       0.00 
freq.    3132.63  E(vib)   ...       0.00 
freq.    3133.22  E(vib)   ...       0.00 
freq.    3158.17  E(vib)   ...       0.00 
freq.    3161.39  E(vib)   ...       0.00 
freq.    3166.86  E(vib)   ...       0.00 
freq.    3168.13  E(vib)   ...       0.00 
freq.    3172.73  E(vib)   ...       0.00 
freq.    3178.45  E(vib)   ...       0.00 
freq.    3178.91  E(vib)   ...       0.00 
freq.    3187.33  E(vib)   ...       0.00 
freq.    3193.11  E(vib)   ...       0.00 
freq.    3198.33  E(vib)   ...       0.00 
freq.    3214.78  E(vib)   ...       0.00 
freq.    3218.07  E(vib)   ...       0.00 

------------
INNER ENERGY
------------

The inner energy is: U= E(el) + E(ZPE) + E(vib) + E(rot) + E(trans)
    E(el)   - is the total energy from the electronic structure calculation
              = E(kin-el) + E(nuc-el) + E(el-el) + E(nuc-nuc)
    E(ZPE)  - the the zero temperature vibrational energy from the frequency calculation
    E(vib)  - the the finite temperature correction to E(ZPE) due to population
              of excited vibrational states
    E(rot)  - is the rotational thermal energy
    E(trans)- is the translational thermal energy

Summary of contributions to the inner energy U:
Electronic energy                ...    -99.93492456 Eh
Zero point energy                ...      0.36570627 Eh     229.48 kcal/mol
Thermal vibrational correction   ...      0.01230393 Eh       7.72 kcal/mol
Thermal rotational correction    ...      0.00141627 Eh       0.89 kcal/mol
Thermal translational correction ...      0.00141627 Eh       0.89 kcal/mol
-----------------------------------------------------------------------
Total thermal energy                    -99.55408182 Eh


Summary of corrections to the electronic energy:
(perhaps to be used in another calculation)
Total thermal correction                  0.01513647 Eh       9.50 kcal/mol
Non-thermal (ZPE) correction              0.36570627 Eh     229.48 kcal/mol
-----------------------------------------------------------------------
Total correction                          0.38084274 Eh     238.98 kcal/mol


--------
ENTHALPY
--------

The enthalpy is H = U + kB*T
                kB is Boltzmann's constant
Total thermal energy              ...    -99.55408182 Eh 
Thermal Enthalpy correction       ...      0.00094421 Eh       0.59 kcal/mol
-----------------------------------------------------------------------
Total Enthalpy                    ...    -99.55313761 Eh


Note: Only C1 symmetry has been detected, increase convergence thresholds 
      if your molecule has a higher symmetry. Symmetry factor of 1.0 is   
      used for the rotational entropy correction. 
 

Note: Rotational entropy computed according to Herzberg 
Infrared and Raman Spectra, Chapter V,1, Van Nostrand Reinhold, 1945 
Point Group:  C1, Symmetry Number:   1  
Rotational constants in cm-1:     0.026393     0.019199     0.012467 

Vibrational entropy computed according to the QRRHO of S. Grimme
Chem.Eur.J. 2012 18 9955 using a reference frequency of 100.0 cm-1


-------
ENTROPY
-------

The entropy contributions are T*S = T*(S(el)+S(vib)+S(rot)+S(trans))
     S(el)   - electronic entropy
     S(vib)  - vibrational entropy
     S(rot)  - rotational entropy
     S(trans)- translational entropy
The entropies will be listed as multiplied by the temperature to get
units of energy

Electronic entropy                ...      0.00000000 Eh      0.00 kcal/mol
Vibrational entropy               ...      0.02078638 Eh     13.04 kcal/mol
Rotational entropy                ...      0.01516278 Eh      9.51 kcal/mol
Translational entropy             ...      0.01988345 Eh     12.48 kcal/mol
-----------------------------------------------------------------------
Final entropy term                ...      0.05583261 Eh     35.04 kcal/mol

In case the symmetry of your molecule has not been determined correctly
or in case you have a reason to use a different symmetry number we print 
out the resulting rotational entropy values for sn=1,12:

 non-linear molecules -----------------------------------
|  sn= 1 | S(rot)=       0.01516278 Eh      9.51 kcal/mol|
|  sn= 2 | S(rot)=       0.01450832 Eh      9.10 kcal/mol|
|  sn= 3 | S(rot)=       0.01412549 Eh      8.86 kcal/mol|
|  sn= 4 | S(rot)=       0.01385387 Eh      8.69 kcal/mol|
|  sn= 5 | S(rot)=       0.01364318 Eh      8.56 kcal/mol|
|  sn= 6 | S(rot)=       0.01347104 Eh      8.45 kcal/mol|
|  sn= 7 | S(rot)=       0.01332549 Eh      8.36 kcal/mol|
|  sn= 8 | S(rot)=       0.01319941 Eh      8.28 kcal/mol|
|  sn= 9 | S(rot)=       0.01308820 Eh      8.21 kcal/mol|
|  sn=10 | S(rot)=       0.01298872 Eh      8.15 kcal/mol|
|  sn=11 | S(rot)=       0.01289873 Eh      8.09 kcal/mol|
|  sn=12 | S(rot)=       0.01281658 Eh      8.04 kcal/mol|
 linear molecules ---------------------------------------
|  Dinfh | S(rot)=       0.00946570 Eh      5.94 kcal/mol|
|  Cinfv | S(rot)=       0.01012016 Eh      6.35 kcal/mol|
 --------------------------------------------------------


-------------------
GIBBS FREE ENERGY
-------------------

The Gibbs free energy is G = H - T*S

Total enthalpy                    ...    -99.55313761 Eh 
Total entropy correction          ...     -0.05583261 Eh    -35.04 kcal/mol
-----------------------------------------------------------------------
Final Gibbs free energy         ...    -99.60897022 Eh

For completeness - the Gibbs free energy minus the electronic energy
G-E(el)                           ...      0.32595434 Eh    204.54 kcal/mol


Maximum memory used throughout the entire PROP-calculation: 240.9 MB

--------------------------------
SUGGESTED CITATIONS FOR THIS RUN
--------------------------------

Below you find a list of papers that are relevant to this ORCA run
We neither can nor want to force you to cite these papers, but we appreciate if you do
You receive ORCA, which is the product of decades of hard work by many enthusiastic individuals, for free
The only thing we kindly ask in return is that you cite our papers,
We deeply appreciate it, if you show your appreciation for ORCA by not just citing the generic ORCA reference.

Please note that relegating all ORCA citations to the supporting information does *not* help us.
SI sections are not indexed - citations you put there will not count into any citation statistics
But we need these citations in order to attract the funding resources that allow us to do what we are doing

Therefore, if you are a happy ORCA user, please consider citing a few of the papers listed below in the main body of your paper

In addition to the list printed below, the program has created the file ./output/alpha_gurjunene/alpha_gurjunene.bibtex that contains the list in bibtex format
You can import this file easily into all common literature databanks and citation aid programs


List of essential papers. We consider these as the minimum necessary citations

  1. Neese,F.
     Software update: the ORCA program system, version 5.0
     WIRES Comput. Molec. Sci., 2022 12(1)e1606
     doi.org/10.1002/wcms.1606
  2. Mueller,M.; Hansen,A.; Grimme,S.
     wB97X-3c: A composite range-separated hybrid DFT method with a molecule-optimized polarized valence double-zeta basis set
     J. Chem. Phys., 2023 158 014103
     doi.org/10.1063/5.0133026

List of papers to cite with high priority. The work reported in these papers was absolutely
necessary for this run to complete.
Our perspective: the developers of density functionals and basis sets usually get cited in chemistry papers
Good! But without the algorithms to do something with them, the functionals or basis sets would not do anything.
Hence, in our opinion, the algorithm design and method developments papers are equally worthy of getting cited

  1. Neese,F.
     An improvement of the resolution of the identity approximation for the formation of the Coulomb matrix
     J. Comp. Chem., 2003 24(14)1740-1747
     doi.org/10.1002/jcc.10318
  2. Neese,F.; Wennmohs,F.; Hansen,A.; Becker,U.
     Efficient, approximate and parallel Hartree-Fock and hybrid DFT calculations. A 'chain-of-spheres' algorithm for the Hartree-Fock exchange
     Chem. Phys., 2009 356(1-3)98-109
     doi.org/10.1016/j.chemphys.2008.10.036
  3. Bykov,D.; Petrenko,T.; Izsak,R.; Kossmann,S.; Becker,U.; Valeev,E.; Neese,F.
     Efficient implementation of the analytic second derivatives of Hartree-Fock and hybrid DFT energies: a detailed analysis of different approximations
     Molec. Phys., 2015 113 1961-1977
     doi.org/10.1080/00268976.2015.1025114
  4. Helmich-Paris,B.; de Souza,B.; Neese,F.; Izsák,R.
     An improved chain of spheres for exchange algorithm
     J. Chem. Phys., 2021 155 104109
     doi.org/doi: 10.1063/5.0058766.
  5. Neese,F.
     The SHARK Integral Generation and Digestion System
     J. Comp. Chem., 2022  1-16
     doi.org/10.1002/jcc.26942
  6. Caldeweyher,E.; Bannwarth,C.; Grimme,S.
     Extension of the D3 dispersion coefficient model
     J. Chem. Phys., 2017 147 034112
     doi.org/10.1063/1.4993215
  7. Caldeweyher,E.; Ehlert,S.; Hansen,A.; Neugebauer,H.; Spicher,S.; Bannwarth,C.; Grimme,S.
     A generally applicable atomic-charge dependent London dispersion correction
     J. Chem. Phys., 2019 150 154122
     doi.org/10.1063/1.5090222
  8. Caldeweyher,E.; Mewes,J.; Ehlert,S.; Grimme,S.
     Extension and evaluation of the D4 London-dispersion model for periodic systems
     Phys. Chem. Chem. Phys., 2020 22(16)8499-8512
     doi.org/10.1039/D0CP00502A
  9. Wittmann,L.; Gordiy,I.; Friede,M.; Helmich-Paris,B.; Grimme,S.; Hansen,A.; Bursch,M.
     Extension of the D3 and D4 London Dispersion Corrections to the full Actinides Series
     Phys. Chem. Chem. Phys., 2024 26(32)21379-21394
     doi.org/https://doi.org/10.1039/D4CP01514B 

List of suggested additional citations. These are papers that are important in the 'surrounding' of 
of this run, or papers that preceded the highly important papers. If you like your results we are grateful for a citation.

  1. Izsak,R.; Neese,F.
     An overlap fitted chain of spheres exchange method
     J. Chem. Phys., 2011 135 144105
     doi.org/10.1063/1.3646921
  2. Izsak,R.; Hansen,A.; Neese,F.
     The resolution of identity and chain of spheres approximations for the LPNO-CCSD singles Fock term
     Molec. Phys., 2012 110 2413-2417
     doi.org/10.1080/00268976.2012.687466
  3. Neese,F.
     The ORCA program system
     WIRES Comput. Molec. Sci., 2012 2(1)73-78
     doi.org/10.1002/wcms.81
  4. Izsak,R.; Neese,F.; Klopper,W.
     Robust fitting techniques in the chain of spheres approximation to the Fock exchange: The role of the complementary space
     J. Chem. Phys., 2013 139 
     doi.org/10.1063/1.4819264
  5. Neese,F.
     Software update: the ORCA program system, version 4.0
     WIRES Comput. Molec. Sci., 2018 8(1)1-6
     doi.org/10.1002/wcms.1327
  6. Neese,F.; Wennmohs,F.; Becker,U.; Riplinger,C.
     The ORCA quantum chemistry program package
     J. Chem. Phys., 2020 152 Art. No. L224108
     doi.org/10.1063/5.0004608

List of optional additional citations

  1. Neese,F.
     Approximate second-order SCF convergence for spin unrestricted wavefunctions
     Chem. Phys. Lett., 2000 325(1-3)93-98
     doi.org/10.1016/s0009-2614(00)00662-x

Timings for individual modules:

Sum of individual times          ...     2022.066 sec (=  33.701 min)
Startup calculation              ...       87.226 sec (=   1.454 min)   4.3 %
SCF iterations                   ...     1215.838 sec (=  20.264 min)  60.1 %
Property integrals               ...      141.533 sec (=   2.359 min)   7.0 %
SCF Response                     ...       85.204 sec (=   1.420 min)   4.2 %
Property calculations            ...      214.391 sec (=   3.573 min)  10.6 %
SCF Gradient evaluation          ...      277.477 sec (=   4.625 min)  13.7 %
Geometry relaxation              ...        0.398 sec (=   0.007 min)   0.0 %
                             ****ORCA TERMINATED NORMALLY****
TOTAL RUN TIME: 0 days 0 hours 33 minutes 50 seconds 122 msec
