
                                 *****************
                                 * O   R   C   A *
                                 *****************

                                            #,                                       
                                            ###                                      
                                            ####                                     
                                            #####                                    
                                            ######                                   
                                           ########,                                 
                                     ,,################,,,,,                         
                               ,,#################################,,                 
                          ,,##########################################,,             
                       ,#########################################, ''#####,          
                    ,#############################################,,   '####,        
                  ,##################################################,,,,####,       
                ,###########''''           ''''###############################       
              ,#####''   ,,,,##########,,,,          '''####'''          '####       
            ,##' ,,,,###########################,,,                        '##       
           ' ,,###''''                  '''############,,,                           
         ,,##''                                '''############,,,,        ,,,,,,###''
      ,#''                                            '''#######################'''  
     '                                                          ''''####''''         
             ,#######,   #######,   ,#######,      ##                                
            ,#'     '#,  ##    ##  ,#'     '#,    #''#        ,####,   ,####,        
            ##       ##  ##   ,#'  ##            #'  '#       #'       #'  '#        
            ##       ##  #######   ##           ,######,      #####,   #    #        
            '#,     ,#'  ##    ##  '#,     ,#' ,#      #,     #,   #   #,  ,#        
             '#######'   ##     ##  '#######'  #'      '#     '####' # '####'        



                #########################################################
                #                        -***-                          #
                #          Department of theory and spectroscopy        #
                #                                                       #
                #                      Frank Neese                      #
                #                                                       #
                #     Directorship, Architecture, Infrastructure        #
                #                    SHARK, DRIVERS                     #
                #        Core code/Algorithms in most modules           #
                #                                                       #
                #        Max Planck Institute fuer Kohlenforschung      #
                #                Kaiser Wilhelm Platz 1                 #
                #                 D-45470 Muelheim/Ruhr                 #
                #                      Germany                          #
                #                                                       #
                #                  All rights reserved                  #
                #                        -***-                          #
                #########################################################


                         Program Version 6.0.1  -  RELEASE   -


 With contributions from (in alphabetic order):
[Max-Planck-Institut fuer Kohlenforschung]                               
  Daniel Aravena         : Magnetic Suceptibility                        
  Michael Atanasov       : Ab Initio Ligand Field Theory (pilot matlab implementation)
  Alexander A. Auer      : GIAO ZORA, VPT2 properties, NMR spectrum      
  Ute Becker             : All parallelization in ORCA, NUMFREQ, NUMCALC 
  Giovanni Bistoni       : ED, misc. LED, open-shell LED, HFLD           
  Martin Brehm           : Molecular dynamics                            
  Dmytro Bykov           : pre 5.0 version of the SCF Hessian            
  Marcos Casanova-Páez   : Triplet and SCS-CIS(D). UHF-(DLPNO)-IP/EA/STEOM-CCSD. UHF-CVS-IP/STEOM-CCSD   
  Vijay G. Chilkuri      : MRCI spin determinant printing, contributions to CSF-ICE 
  Pauline Colinet        : FMM embedding                                 
  Dipayan Datta          : RHF DLPNO-CCSD density                        
  Achintya Kumar Dutta   : EOM-CC, STEOM-CC                              
  Nicolas Foglia         : Exact transition moments, OPA infrastructure, MCD improvements    
  Dmitry Ganyushin       : Spin-Orbit,Spin-Spin,Magnetic field MRCI      
  Miquel Garcia-Rates    : C-PCM and meta-GGA Hessian, CCSD/C-PCM, Gaussian charge scheme 
  Tiago L. C. Gouveia    : GS-ROHF, GS-ROCIS                             
  Yang Guo               : DLPNO-NEVPT2, F12-NEVPT2, CIM, IAO-localization        
  Andreas Hansen         : Spin unrestricted coupled pair/coupled cluster methods 
  Ingolf Harden          : AUTO-CI MPn and infrastructure                
  Benjamin Helmich-Paris : MC-RPA, TRAH-(SCF,CASSCF), AVAS, COSX integrals, SCF dyn. polar. 
  Lee Huntington         : MR-EOM, pCC                                   
  Robert Izsak           : Overlap fitted RIJCOSX, COSX-SCS-MP3, EOM     
  Riya Kayal             : Wick's Theorem for AUTO-CI, AUTO-CI UHF-CCSDT 
  Emily Kempfer          : AUTO-CI, RHF CISDT and CCSDT                  
  Christian Kollmar      : KDIIS, OOCD, Brueckner-CCSD(T), CCSD density, CASPT2, CASPT2-K, improved NEVPT2 
  Axel Koslowski         : Symmetry handling                             
  Simone Kossmann        : meta-GGA functionals, TD-DFT gradient, OOMP2, (MP2 Hessian; deprecated post 5.0) 
  Lucas Lang             : DCDCAS                                        
  Marvin Lechner         : AUTO-CI (C++ implementation), FIC-MRCC        
  Spencer Leger          : CASSCF response                               
  Dagmar Lenk            : GEPOL surface, SMD, ORCA-2-JSON               
  Dimitrios Liakos       : Extrapolation schemes; Compound Job, initial MDCI parallelization 
  Dimitrios Manganas     : Further ROCIS development; embedding schemes. LFT, Crystal Embedding 
  Dimitrios Pantazis     : SARC Basis sets                               
  Anastasios Papadopoulos: AUTO-CI, single reference methods and gradients 
  Taras Petrenko         : pre 6.0 DFT Hessian and TD-DFT gradient, (ASA, deprecated), ECA, 1-Electron XAS/XES, NRVS 
  Peter Pinski           : DLPNO-MP2, DLPNO-MP2 Gradient                 
  Christoph Reimann      : Effective Core Potentials                     
  Marius Retegan         : Local ZFS, SOC                                
  Christoph Riplinger    : Optimizer, TS searches, QM/MM, DLPNO-CCSD(T), (RO)-DLPNO pert. Triples 
  Michael Roemelt        : Original ROCIS implementation                 
  Masaaki Saitow         : Open-shell DLPNO-CCSD energy and density      
  Barbara Sandhoefer     : DKH picture change effects                    
  Kantharuban Sivalingam : CASSCF convergence/infrastructure, NEVPT2 and variants, FIC-MRCI 
  Bernardo de Souza      : ESD, SOC TD-DFT                               
  Georgi L. Stoychev     : AutoAux, RI-MP2 NMR, DLPNO-MP2 response, X2C  
  Van Anh Tran           : RI-MP2 g-tensors                              
  Willem Van den Heuvel  : Paramagnetic NMR                              
  Zikuan Wang            : NOTCH, Electric field optimization            
  Frank Wennmohs         : Technical directorship and infrastructure     
  Hang Xu                : AUTO-CI-Response properties                   
                                                                         
[FACCTs GmbH]                                                            
  Markus Bursch, Miquel Garcia-Rates, Christoph Riplinger, Bernardo de Souza, Georgi L. Stoychev 
                                                                 
  APM, Basis sets (HGBS, AHGBS, def-TZVP (Ac-Lr), def2-XVPD (La-Lu)), CI-OPT, improved COSX, DLPNO-Multilevel,           
  DOCKER, DRACO, updates on ESD, GOAT, IRC, LR-CPCM, MBIS, meta-GGA TD-DFT gradient, ML-optimized integration grids, 
  MM, NACMEs, nearIR, NEB, NEB-TS, NL-DFT gradient (VV10), 2- and 3-layer-ONIOM, interface openCOSMO-RS, QMMM,   
  Crystal-QMMM, SF, symmetry and pop. for TD-DFT, r2SCAN hybrids, SOLVATOR                                   
                                                                         
[Other institutions]                                                     
  V. Asgeirsson          : NEB                                           
  Christoph Bannwarth    : sTDA-DFT, sTD-DFT, PBEh-3c, B97-3c, D3        
  Sebastian Ehlert       : rSCAN, r2SCAN, r2SCAN-3c, D4, dhf basis sets  
  Marvin Friede          : D4 for Fr, Ra, Ac-Lr                          
  Lars Goerigk           : TD-DFT with DH, B97 family of functionals     
  Stefan Grimme          : VdW corrections, initial TS optimization, DFT functionals, gCP, sTDA/sTD-DF 
  Waldemar Hujo          : DFT-NL                                        
  H. Jonsson             : NEB                                           
  Holger Kruse           : gCP                                           
  Marcel Mueller         : wB97X-3c, vDZP basis set                      
  Hagen Neugebauer       : wr2SCAN                                       
  Tobias Risthaus        : range-separated hybrid DFT                    
  Lukas Wittmann         : regularized MP2, r2SCAN double-hybrids, wr2SCAN        
                                                                         
We gratefully acknowledge several colleagues who have allowed us to      
interface, adapt or use parts of their codes:                            
  Ed Valeev, F. Pavosevic, A. Kumar             : LibInt (2-el integral package), F12 methods 
  Garnet Chan, S. Sharma, J. Yang, R. Olivares  : DMRG                   
  Ulf Ekstrom                                   : XCFun DFT Library      
  Mihaly Kallay                                 : mrcc  (arbitrary order and MRCC methods)
  Frank Weinhold                                : gennbo (NPA and NBO analysis)           
  Simon Mueller                                 : openCOSMO-RS                            
  Christopher J. Cramer and Donald G. Truhlar   : smd solvation model                     
  S Lehtola, MJT Oliveira, MAL Marques          : LibXC Library                           
  Liviu Ungur et al                             : ANISO software                          


 Your calculation uses the libint2 library for the computation of 2-el integrals
 For citations please refer to: http://libint.valeyev.net

 Your ORCA version has been built with support for libXC version: 6.2.2
 For citations please refer to: https://libxc.gitlab.io

 This ORCA versions uses:
   CBLAS   interface :  Fast vector & matrix operations
   LAPACKE interface :  Fast linear algebra routines
   SCALAPACK package :  Parallel linear algebra routines
   Shared memory     :  Shared parallel matrices
   BLAS/LAPACK       :  OpenBLAS 0.3.27  USE64BITINT DYNAMIC_ARCH NO_AFFINITY SkylakeX SINGLE_THREADED
        Core in use  :  SkylakeX
   Copyright (c) 2011-2014, The OpenBLAS Project


Your calculation utilizes the atom-pairwise dispersion correction
based on EEQ partial charges (D4)


================================================================================

cite the ECPs for C  [vDZP-ECP], O  [vDZP-ECP] as follows:
   B-Ne (ecp-2-mwb), Al-Ar (ecp-10-mwb), Ga-Kr (ecp-28-mwb), Y-Cd (ecp-28-mwb), In-Xe (ecp-46-mwb):
     A. Bergner, M. Dolg, W. Küchle, H. Stoll, and H. Preuß, Mol. Phys. 80, 1431 (1993)., T. Leininger, A. Berning, A. Nicklass, H. Stoll, H.-J. Werner, and H.-J.Flad, Chem. Phys. 217, 19 (1997).
   Na-Mg, K-Ca, Rb-Sr, Cs-Ba (CRENBL):
     L. Fernandez Pacios and P. A. Christiansen, J. Chem. Phys. 82, 2664 (1985)., M. M. Hurley, L. F. Pacios, P. A. Christiansen, R. B. Ross, and W. C. Ermler, J. Chem. Phys. 84, 6840 (1986)., L. A. LaJohn, P. A. Christiansen, R. B. Ross, T. Atashroo, and W. C. Ermler, J. Chem. Phys. 87, 2812 (1987)., R. B. Ross, J. M. Powers, T. Atashroo, W. C. Ermler, L. A. LaJohn, and P. A. Christiansen, J. Chem. Phys. 93, 6654 (1990). 
   Sc-Zn (ecp-10-mdf):
     M. Dolg, U. Wedig, H. Stoll, and H. Preuss, J. Chem. Phys. 86, 866 (1986). 
   Y-Cd (ecp-28-mwb), Hf-Hg (ecp-60-mwb):
     D. Andrae, U. Häußermann, M. Dolg, H. Stoll, and H. Preuß, Theor. Chim. Acta 77, 123 (1990). 
   La (ecp-46-mwb):
     M. Dolg, H. Stoll, and H. Preuss, J. Chem. Phys. 90, 1730 (1989)., M. Dolg, H. Stoll, and H. Preuss, Theor. Chim. Acta 85, 441 (1993).
   Ce-Lu (SBKJC-ecp):
     T. R. Cundari and W. J. Stevens, J. Chem. Phys. 98, 5555 (1993).
   Tl-Rn (ecp-78-mwb):
     W. Küchle, M. Dolg, H. Stoll, and H. Preuss, Mol. Phys. 74, 1245 (1991).

ECP parameters for C  [vDZP-ECP], O  [vDZP-ECP] have been obtained from:
MM, AH, SG, J. Chem. Phys. 158, 014103 (2023), 10.1063/5.0133026

----- Orbital basis set information -----
Your calculation utilizes the basis: vDZP
   Marcel Mueller, Andreas Hansen, Stefan Grimme 
   J. Chem. Phys. 158, 014103 (2023). DOI: 10.1063/5.0133026

----- AuxJ basis set information -----
Your calculation utilizes the auxiliary basis: def2/J
   F. Weigend, Phys. Chem. Chem. Phys. 8, 1057 (2006).

================================================================================
                                        WARNINGS
                       Please study these warnings very carefully!
================================================================================

WARNING: Frozen-Core approximation turned on, but there are no core electrons.
  ===> : Turning off frozen-core approximation


WARNING: Geometry Optimization
  ===> : Switching off AutoStart
         For restart on a previous wavefunction, please use MOREAD

================================================================================
                                       INPUT FILE
================================================================================
NAME = ./output/carvacrol_acetate/carvacrol_acetate.inp
|  1> ! wB97X-3c OPT FREQ TightSCF
|  2> %pal
|  3>   nprocs 40
|  4> end
|  5> * xyz 0 1
|  6> C      1.906581     0.253234    -2.857287
|  7> C      0.824317     0.100860    -1.825542
|  8> C      1.111458     0.304820    -0.463039
|  9> C      0.082852     0.170142     0.488718
| 10> C     -1.215097    -0.202104     0.099316
| 11> C     -1.478493    -0.428956    -1.262400
| 12> C     -0.469609    -0.276187    -2.214264
| 13> C     -2.308917    -0.345389     1.141844
| 14> C     -3.440693     0.659647     0.897092
| 15> C     -2.845629    -1.781016     1.186483
| 16> O      2.413281     0.679246    -0.091177
| 17> C      3.026022     0.371769     1.130260
| 18> O      2.575536    -0.542895     1.872023
| 19> C      4.296643     1.057615     1.500605
| 20> H      2.686715    -0.519904    -2.694709
| 21> H      1.508298     0.141166    -3.888224
| 22> H      2.368305     1.259611    -2.772554
| 23> H      0.283136     0.382475     1.530258
| 24> H     -2.468028    -0.717681    -1.592143
| 25> H     -0.701112    -0.451987    -3.257556
| 26> H     -1.891926    -0.124732     2.149959
| 27> H     -4.183325     0.603827     1.721479
| 28> H     -3.961808     0.451475    -0.061376
| 29> H     -3.032374     1.692553     0.867450
| 30> H     -3.354103    -2.049317     0.236245
| 31> H     -2.011450    -2.493725     1.361721
| 32> H     -3.574092    -1.888536     2.018359
| 33> H      4.330307     2.066018     1.037607
| 34> H      5.158634     0.460551     1.137273
| 35> H      4.364572     1.167419     2.603580
| 36> *
| 37> 
| 38>                          ****END OF INPUT****
================================================================================

                       *****************************
                       * Geometry Optimization Run *
                       *****************************

Geometry optimization settings:
Update method            Update   .... BFGS
Choice of coordinates    CoordSys .... (2022) Redundant Internals
Initial Hessian          InHess   .... Almloef's Model
Max. no of cycles        MaxIter  .... 90

Convergence Tolerances:
Energy Change            TolE     ....  5.0000e-06 Eh
Max. Gradient            TolMAXG  ....  3.0000e-04 Eh/bohr
RMS Gradient             TolRMSG  ....  1.0000e-04 Eh/bohr
Max. Displacement        TolMAXD  ....  4.0000e-03 bohr
RMS Displacement         TolRMSD  ....  2.0000e-03 bohr
Strict Convergence                .... False

------------------------------------------------------------------------------
                        ORCA OPTIMIZATION COORDINATE SETUP
------------------------------------------------------------------------------

The optimization will be done in redundant internal coordinates (2022)
Making redundant internal coordinates   ...  (2022 redundants) done
Evaluating the initial hessian          ...  (Almloef) done
Evaluating the coordinates              ...  done
Calculating the B-matrix                .... done
Calculating the G-matrix                .... done
Diagonalizing the G-matrix              .... done
Small eigenvalue found = 5.614e-03
Small eigenvalue found = 2.188e-02
Small eigenvalue found = 2.400e-02
Small eigenvalue found = 2.484e-02
The first mode is                       ....   53
The number of degrees of freedom        ....   84

    -----------------------------------------------------------------
                    Redundant Internal Coordinates


    -----------------------------------------------------------------
         Definition                    Initial Value    Approx d2E/dq
    -----------------------------------------------------------------
      1. B(C   1,C   0)                  1.5030         0.412528   
      2. B(C   2,C   1)                  1.4073         0.586346   
      3. B(C   3,C   2)                  1.4078         0.585165   
      4. B(C   4,C   3)                  1.4053         0.590644   
      5. B(C   5,C   4)                  1.4054         0.590461   
      6. B(C   6,C   5)                  1.3954         0.612452   
      7. B(C   6,C   1)                  1.4027         0.596358   
      8. B(C   7,C   4)                  1.5178         0.390642   
      9. B(C   8,C   7)                  1.5333         0.369113   
     10. B(C   9,C   7)                  1.5333         0.369043   
     11. B(O  10,C   2)                  1.4047         0.530153   
     12. B(C  11,O  10)                  1.4007         0.538069   
     13. B(O  12,C  11)                  1.2609         0.899322   
     14. B(C  13,C  11)                  1.4906         0.431686   
     15. B(H  14,C   0)                  1.1103         0.334213   
     16. B(H  15,C   0)                  1.1109         0.333530   
     17. B(H  16,C   0)                  1.1105         0.334003   
     18. B(H  17,C   3)                  1.0817         0.371293   
     19. B(H  18,C   5)                  1.0823         0.370495   
     20. B(H  19,C   6)                  1.0830         0.369437   
     21. B(H  20,C   7)                  1.1130         0.330870   
     22. B(H  21,C   8)                  1.1110         0.333413   
     23. B(H  22,C   8)                  1.1107         0.333785   
     24. B(H  23,C   8)                  1.1111         0.333267   
     25. B(H  24,C   9)                  1.1106         0.333826   
     26. B(H  25,C   9)                  1.1111         0.333256   
     27. B(H  26,C   9)                  1.1110         0.333411   
     28. B(H  27,C  13)                  1.1101         0.334438   
     29. B(H  28,C  13)                  1.1097         0.334910   
     30. B(H  29,C  13)                  1.1105         0.333969   
     31. A(C   1,C   0,H  15)          111.6335         0.325522   
     32. A(C   1,C   0,H  16)          109.8095         0.325598   
     33. A(H  14,C   0,H  15)          108.5154         0.284047   
     34. A(H  15,C   0,H  16)          108.1384         0.284019   
     35. A(C   1,C   0,H  14)          109.5623         0.325632   
     36. A(H  14,C   0,H  16)          109.1312         0.284109   
     37. A(C   2,C   1,C   6)          119.7017         0.426749   
     38. A(C   0,C   1,C   6)          120.0830         0.400912   
     39. A(C   0,C   1,C   2)          120.1984         0.399719   
     40. A(C   1,C   2,C   3)          119.4449         0.425304   
     41. A(C   1,C   2,O  10)          118.9486         0.415166   
     42. A(C   3,C   2,O  10)          121.5771         0.415017   
     43. A(C   4,C   3,H  17)          119.3294         0.351842   
     44. A(C   2,C   3,H  17)          119.7950         0.351288   
     45. A(C   2,C   3,C   4)          120.8523         0.425860   
     46. A(C   5,C   4,C   7)          121.0113         0.396395   
     47. A(C   3,C   4,C   7)          120.0182         0.396417   
     48. A(C   3,C   4,C   5)          118.9695         0.426548   
     49. A(C   4,C   5,H  18)          120.6398         0.351696   
     50. A(C   6,C   5,H  18)          118.8439         0.353879   
     51. A(C   4,C   5,C   6)          120.5147         0.429330   
     52. A(C   5,C   6,H  19)          118.9985         0.353708   
     53. A(C   1,C   6,H  19)          120.5156         0.352117   
     54. A(C   1,C   6,C   5)          120.4859         0.430096   
     55. A(C   8,C   7,C   9)          111.0998         0.361852   
     56. A(C   4,C   7,C   9)          111.1389         0.365375   
     57. A(C   9,C   7,H  20)          106.8809         0.319216   
     58. A(C   4,C   7,C   8)          111.1260         0.365387   
     59. A(C   8,C   7,H  20)          106.9280         0.319226   
     60. A(C   4,C   7,H  20)          109.4754         0.322199   
     61. A(H  22,C   8,H  23)          108.8838         0.283955   
     62. A(H  21,C   8,H  23)          108.1897         0.283906   
     63. A(C   7,C   8,H  23)          110.0206         0.319602   
     64. A(H  21,C   8,H  22)          108.5005         0.283975   
     65. A(C   7,C   8,H  22)          111.1758         0.319684   
     66. A(C   7,C   8,H  21)          110.0009         0.319625   
     67. A(H  25,C   9,H  26)          108.1865         0.283904   
     68. A(H  24,C   9,H  26)          108.4862         0.283980   
     69. A(C   7,C   9,H  26)          109.9946         0.319615   
     70. A(H  24,C   9,H  25)          108.8873         0.283959   
     71. A(C   7,C   9,H  25)          110.0218         0.319591   
     72. A(C   7,C   9,H  24)          111.1942         0.319680   
     73. A(C   2,O  10,C  11)          125.2926         0.406252   
     74. A(O  12,C  11,C  13)          119.4826         0.431994   
     75. A(O  10,C  11,C  13)          119.2448         0.394349   
     76. A(O  10,C  11,O  12)          121.0620         0.446563   
     77. A(H  28,C  13,H  29)          109.3214         0.284197   
     78. A(H  27,C  13,H  29)          108.8183         0.284134   
     79. A(C  11,C  13,H  29)          110.1449         0.328036   
     80. A(H  27,C  13,H  28)          109.1849         0.284259   
     81. A(C  11,C  13,H  28)          109.4640         0.328188   
     82. A(C  11,C  13,H  27)          109.8873         0.328112   
     83. D(C   6,C   1,C   0,H  14)   -114.1604         0.012599   
     84. D(C   2,C   1,C   0,H  15)   -175.4270         0.012599   
     85. D(C   2,C   1,C   0,H  14)     64.3424         0.012599   
     86. D(C   2,C   1,C   0,H  16)    -55.5045         0.012599   
     87. D(C   6,C   1,C   0,H  15)      6.0702         0.012599   
     88. D(C   3,C   2,C   1,C   6)     -2.0811         0.023645   
     89. D(O  10,C   2,C   1,C   6)    179.8604         0.023645   
     90. D(O  10,C   2,C   1,C   0)      1.3519         0.023645   
     91. D(C   3,C   2,C   1,C   0)    179.4104         0.023645   
     92. D(H  17,C   3,C   2,O  10)      1.6078         0.023545   
     93. D(H  17,C   3,C   2,C   1)   -176.3980         0.023545   
     94. D(C   4,C   3,C   2,O  10)    179.8410         0.023545   
     95. D(C   4,C   3,C   2,C   1)      1.8352         0.023545   
     96. D(C   5,C   4,C   3,H  17)    177.7094         0.024010   
     97. D(C   5,C   4,C   3,C   2)     -0.5320         0.024010   
     98. D(C   7,C   4,C   3,H  17)     -1.9240         0.024010   
     99. D(C   7,C   4,C   3,C   2)    179.8346         0.024010   
    100. D(H  18,C   5,C   4,C   7)     -0.4328         0.023995   
    101. D(H  18,C   5,C   4,C   3)    179.9375         0.023995   
    102. D(C   6,C   5,C   4,C   7)    179.1054         0.023995   
    103. D(C   6,C   5,C   4,C   3)     -0.5243         0.023995   
    104. D(H  19,C   6,C   5,H  18)     -0.1189         0.025918   
    105. D(H  19,C   6,C   5,C   4)   -179.6652         0.025918   
    106. D(C   1,C   6,C   5,H  18)    179.8094         0.025918   
    107. D(C   1,C   6,C   5,C   4)      0.2630         0.025918   
    108. D(H  19,C   6,C   1,C   2)   -179.0203         0.024501   
    109. D(H  19,C   6,C   1,C   0)     -0.5101         0.024501   
    110. D(C   5,C   6,C   1,C   0)    179.5628         0.024501   
    111. D(C   5,C   6,C   1,C   2)      1.0525         0.024501   
    112. D(C   8,C   7,C   4,C   5)    -62.1970         0.011351   
    113. D(C   8,C   7,C   4,C   3)    117.4288         0.011351   
    114. D(H  20,C   7,C   4,C   3)     -0.4586         0.011351   
    115. D(C   9,C   7,C   4,C   5)     62.0785         0.011351   
    116. D(C   9,C   7,C   4,C   3)   -118.2957         0.011351   
    117. D(H  22,C   8,C   7,H  20)   -175.5445         0.010895   
    118. D(H  22,C   8,C   7,C   9)    -59.2625         0.010895   
    119. D(H  22,C   8,C   7,C   4)     65.0351         0.010895   
    120. D(H  21,C   8,C   7,H  20)    -55.3368         0.010895   
    121. D(H  21,C   8,C   7,C   9)     60.9452         0.010895   
    122. D(H  21,C   8,C   7,C   4)   -174.7572         0.010895   
    123. D(H  25,C   9,C   7,H  20)    -63.8407         0.010891   
    124. D(H  25,C   9,C   7,C   8)    179.8484         0.010891   
    125. D(H  25,C   9,C   7,C   4)     55.5581         0.010891   
    126. D(H  24,C   9,C   7,H  20)    175.4406         0.010891   
    127. D(H  24,C   9,C   7,C   8)     59.1296         0.010891   
    128. D(H  24,C   9,C   7,C   4)    -65.1607         0.010891   
    129. D(C  11,O  10,C   2,C   3)     31.4123         0.020265   
    130. D(C  11,O  10,C   2,C   1)   -150.5722         0.020265   
    131. D(C  13,C  11,O  10,C   2)   -167.8083         0.020899   
    132. D(O  12,C  11,O  10,C   2)     17.4926         0.020899   
    133. D(H  29,C  13,C  11,O  10)    149.1034         0.013761   
    134. D(H  28,C  13,C  11,O  12)     84.1147         0.013761   
    135. D(H  28,C  13,C  11,O  10)    -90.6692         0.013761   
    136. D(H  27,C  13,C  11,O  12)   -155.9856         0.013761   
    137. D(H  27,C  13,C  11,O  10)     29.2305         0.013761   
    -----------------------------------------------------------------

Number of atoms                         .... 30
Number of degrees of freedom            .... 137


         *************************************************************
         *                GEOMETRY OPTIMIZATION CYCLE   1            *
         *************************************************************
---------------------------------
CARTESIAN COORDINATES (ANGSTROEM)
---------------------------------
  C      1.906581    0.253234   -2.857287
  C      0.824317    0.100860   -1.825542
  C      1.111458    0.304820   -0.463039
  C      0.082852    0.170142    0.488718
  C     -1.215097   -0.202104    0.099316
  C     -1.478493   -0.428956   -1.262400
  C     -0.469609   -0.276187   -2.214264
  C     -2.308917   -0.345389    1.141844
  C     -3.440693    0.659647    0.897092
  C     -2.845629   -1.781016    1.186483
  O      2.413281    0.679246   -0.091177
  C      3.026022    0.371769    1.130260
  O      2.575536   -0.542895    1.872023
  C      4.296643    1.057615    1.500605
  H      2.686715   -0.519904   -2.694709
  H      1.508298    0.141166   -3.888224
  H      2.368305    1.259611   -2.772554
  H      0.283136    0.382475    1.530258
  H     -2.468028   -0.717681   -1.592143
  H     -0.701112   -0.451987   -3.257556
  H     -1.891926   -0.124732    2.149959
  H     -4.183325    0.603827    1.721479
  H     -3.961808    0.451475   -0.061376
  H     -3.032374    1.692553    0.867450
  H     -3.354103   -2.049317    0.236245
  H     -2.011450   -2.493725    1.361721
  H     -3.574092   -1.888536    2.018359
  H      4.330307    2.066018    1.037607
  H      5.158634    0.460551    1.137273
  H      4.364572    1.167419    2.603580

----------------------------
CARTESIAN COORDINATES (A.U.)
----------------------------
  NO LB      ZA    FRAG     MASS         X           Y           Z
   0 C     4.0000*   0    12.011    3.602916    0.478543   -5.399490
   1 C     4.0000*   0    12.011    1.557733    0.190598   -3.449774
   2 C     4.0000*   0    12.011    2.100351    0.576026   -0.875017
   3 C     4.0000*   0    12.011    0.156568    0.321522    0.923543
   4 C     4.0000*   0    12.011   -2.296201   -0.381921    0.187680
   5 C     4.0000*   0    12.011   -2.793947   -0.810609   -2.385590
   6 C     4.0000*   0    12.011   -0.887432   -0.521918   -4.184353
   7 C     4.0000*   0    12.011   -4.363221   -0.652691    2.157772
   8 C     4.0000*   0    12.011   -6.501967    1.246552    1.695258
   9 C     4.0000*   0    12.011   -5.377459   -3.365632    2.242128
  10 O     6.0000*   0    15.999    4.560440    1.283589   -0.172300
  11 C     4.0000*   0    12.011    5.718353    0.702542    2.135882
  12 O     6.0000*   0    15.999    4.867058   -1.025923    3.537611
  13 C     4.0000*   0    12.011    8.119479    1.998603    2.835732
  14 H     1.0000    0     1.008    5.077156   -0.982476   -5.092262
  15 H     1.0000    0     1.008    2.850270    0.266765   -7.347679
  16 H     1.0000    0     1.008    4.475448    2.380320   -5.239368
  17 H     1.0000    0     1.008    0.535049    0.722773    2.891769
  18 H     1.0000    0     1.008   -4.663897   -1.356221   -3.008714
  19 H     1.0000    0     1.008   -1.324910   -0.854132   -6.155889
  20 H     1.0000    0     1.008   -3.575222   -0.235709    4.062834
  21 H     1.0000    0     1.008   -7.905339    1.141068    3.253124
  22 H     1.0000    0     1.008   -7.486732    0.853164   -0.115984
  23 H     1.0000    0     1.008   -5.730356    3.198462    1.639243
  24 H     1.0000    0     1.008   -6.338336   -3.872648    0.446438
  25 H     1.0000    0     1.008   -3.801090   -4.712457    2.573280
  26 H     1.0000    0     1.008   -6.754055   -3.568816    3.814146
  27 H     1.0000    0     1.008    8.183094    3.904208    1.960793
  28 H     1.0000    0     1.008    9.748405    0.870315    2.149135
  29 H     1.0000    0     1.008    8.247846    2.206102    4.920053
* core charge reduced due to ECP

--------------------------------
INTERNAL COORDINATES (ANGSTROEM)
--------------------------------
 C      0   0   0     0.000000000000     0.00000000     0.00000000
 C      1   0   0     1.503000647570     0.00000000     0.00000000
 C      2   1   0     1.407289615001   120.19839612     0.00000000
 C      3   2   1     1.407838717314   119.44486523   179.41042011
 C      4   3   2     1.405301607742   120.85228405     1.83518449
 C      5   4   3     1.405385978077   118.96947326   359.46803921
 C      6   5   4     1.395431964416   120.51466885   359.47574157
 C      5   4   3     1.517839719604   120.01817923   179.83460130
 C      8   5   4     1.533270301342   111.12602611   117.42878582
 C      8   5   4     1.533322306103   111.13888675   241.70427087
 O      3   2   1     1.404713244705   118.94856602     1.35189249
 C     11   3   2     1.400679115136   125.29264060   209.42779638
 O     12  11   3     1.260856937666   121.06200151    17.49264030
 C     12  11   3     1.490643445087   119.24478182   192.19169483
 H      1   2   3     1.110307629031   109.56233863    64.34239357
 H      1   2   3     1.110864385369   111.63354379   184.57296683
 H      1   2   3     1.110478905515   109.80946470   304.49554182
 H      4   3   2     1.081667488254   119.79499161   183.60195440
 H      6   5   4     1.082253245733   120.63983903   179.93754708
 H      7   6   5     1.083031613700   118.99845435   180.33475305
 H      8   5   4     1.113043960927   109.47544387   359.54141242
 H      9   8   5     1.110959983795   110.00085260   185.24281500
 H      9   8   5     1.110656261781   111.17576785    65.03507746
 H      9   8   5     1.111079591551   110.02063506   304.33359100
 H     10   8   5     1.110623019715   111.19424543   294.83930008
 H     10   8   5     1.111088241035   110.02176336    55.55806854
 H     10   8   5     1.110962003016   109.99459397   174.64169769
 H     14  12  11     1.110124778261   109.88726717    29.23053193
 H     14  12  11     1.109740531116   109.46396786   269.33076859
 H     14  12  11     1.110506694299   110.14490325   149.10341131

---------------------------
INTERNAL COORDINATES (A.U.)
---------------------------
 C      0   0   0     0.000000000000     0.00000000     0.00000000
 C      1   0   0     2.840259603014     0.00000000     0.00000000
 C      2   1   0     2.659391963464   120.19839612     0.00000000
 C      3   2   1     2.660429616455   119.44486523   179.41042011
 C      4   3   2     2.655635174191   120.85228405     1.83518449
 C      5   4   3     2.655794611019   118.96947326   359.46803921
 C      6   5   4     2.636984251265   120.51466885   359.47574157
 C      5   4   3     2.868301385240   120.01817923   179.83460130
 C      8   5   4     2.897460958810   111.12602611   117.42878582
 C      8   5   4     2.897559233568   111.13888675   241.70427087
 O      3   2   1     2.654523329184   118.94856602     1.35189249
 C     11   3   2     2.646899929111   125.29264060   209.42779638
 O     12  11   3     2.382674306244   121.06200151    17.49264030
 C     12  11   3     2.816907874540   119.24478182   192.19169483
 H      1   2   3     2.098177343272   109.56233863    64.34239357
 H      1   2   3     2.099229460275   111.63354379   184.57296683
 H      1   2   3     2.098501008920   109.80946470   304.49554182
 H      4   3   2     2.044055320766   119.79499161   183.60195440
 H      6   5   4     2.045162241982   120.63983903   179.93754708
 H      7   6   5     2.046633144271   118.99845435   180.33475305
 H      8   5   4     2.103348261166   109.47544387   359.54141242
 H      9   8   5     2.099410115117   110.00085260   185.24281500
 H      9   8   5     2.098836163691   111.17576785    65.03507746
 H      9   8   5     2.099636141020   110.02063506   304.33359100
 H     10   8   5     2.098773345290   111.19424543   294.83930008
 H     10   8   5     2.099652486176   110.02176336    55.55806854
 H     10   8   5     2.099413930893   109.99459397   174.64169769
 H     14  12  11     2.097831805393   109.88726717    29.23053193
 H     14  12  11     2.097105683521   109.46396786   269.33076859
 H     14  12  11     2.098553522111   110.14490325   149.10341131

---------------------
BASIS SET INFORMATION
---------------------
There are 3 groups of distinct atoms

 Group   1 Type C   : 6s6p2d contracted to 2s2p1d pattern {42/42/2}
 Group   2 Type O   : 6s6p2d contracted to 2s2p1d pattern {42/42/2}
 Group   3 Type H   : 8s2p contracted to 2s1p pattern {53/2}

Atom   0C    basis set group =>   1
Atom   1C    basis set group =>   1
Atom   2C    basis set group =>   1
Atom   3C    basis set group =>   1
Atom   4C    basis set group =>   1
Atom   5C    basis set group =>   1
Atom   6C    basis set group =>   1
Atom   7C    basis set group =>   1
Atom   8C    basis set group =>   1
Atom   9C    basis set group =>   1
Atom  10O    basis set group =>   2
Atom  11C    basis set group =>   1
Atom  12O    basis set group =>   2
Atom  13C    basis set group =>   1
Atom  14H    basis set group =>   3
Atom  15H    basis set group =>   3
Atom  16H    basis set group =>   3
Atom  17H    basis set group =>   3
Atom  18H    basis set group =>   3
Atom  19H    basis set group =>   3
Atom  20H    basis set group =>   3
Atom  21H    basis set group =>   3
Atom  22H    basis set group =>   3
Atom  23H    basis set group =>   3
Atom  24H    basis set group =>   3
Atom  25H    basis set group =>   3
Atom  26H    basis set group =>   3
Atom  27H    basis set group =>   3
Atom  28H    basis set group =>   3
Atom  29H    basis set group =>   3
---------------------------------
AUXILIARY/J BASIS SET INFORMATION
---------------------------------
There are 3 groups of distinct atoms

 Group   1 Type C   : 12s5p4d2f1g contracted to 6s4p3d1f1g pattern {711111/2111/211/2/1}
 Group   2 Type O   : 12s5p4d2f1g contracted to 6s4p3d1f1g pattern {711111/2111/211/2/1}
 Group   3 Type H   : 5s2p1d contracted to 3s1p1d pattern {311/2/1}

Atom   0C    basis set group =>   1
Atom   1C    basis set group =>   1
Atom   2C    basis set group =>   1
Atom   3C    basis set group =>   1
Atom   4C    basis set group =>   1
Atom   5C    basis set group =>   1
Atom   6C    basis set group =>   1
Atom   7C    basis set group =>   1
Atom   8C    basis set group =>   1
Atom   9C    basis set group =>   1
Atom  10O    basis set group =>   2
Atom  11C    basis set group =>   1
Atom  12O    basis set group =>   2
Atom  13C    basis set group =>   1
Atom  14H    basis set group =>   3
Atom  15H    basis set group =>   3
Atom  16H    basis set group =>   3
Atom  17H    basis set group =>   3
Atom  18H    basis set group =>   3
Atom  19H    basis set group =>   3
Atom  20H    basis set group =>   3
Atom  21H    basis set group =>   3
Atom  22H    basis set group =>   3
Atom  23H    basis set group =>   3
Atom  24H    basis set group =>   3
Atom  25H    basis set group =>   3
Atom  26H    basis set group =>   3
Atom  27H    basis set group =>   3
Atom  28H    basis set group =>   3
Atom  29H    basis set group =>   3
-------------------------
ECP PARAMETER INFORMATION
-------------------------

 Group 1, Type C  ECP vDZP-ECP (replacing 2 core electrons, lmax=3)
 Group 2, Type O  ECP vDZP-ECP (replacing 2 core electrons, lmax=3)

Atom   0C    ECP group =>   1
Atom   1C    ECP group =>   1
Atom   2C    ECP group =>   1
Atom   3C    ECP group =>   1
Atom   4C    ECP group =>   1
Atom   5C    ECP group =>   1
Atom   6C    ECP group =>   1
Atom   7C    ECP group =>   1
Atom   8C    ECP group =>   1
Atom   9C    ECP group =>   1
Atom  10O    ECP group =>   2
Atom  11C    ECP group =>   1
Atom  12O    ECP group =>   2
Atom  13C    ECP group =>   1



           ************************************************************
           *        Program running with 40 parallel MPI-processes    *
           *              working on a common directory               *
           ************************************************************
------------------------------------------------------------------------------
                             ORCA STARTUP CALCULATIONS
                           -- RI-GTO INTEGRALS CHOSEN --
------------------------------------------------------------------------------
------------------------------------------------------------------------------
                   ___                                                        
                  /   \      - P O W E R E D   B Y -                         
                 /     \                                                     
                 |  |  |   _    _      __       _____    __    __             
                 |  |  |  | |  | |    /  \     |  _  \  |  |  /  |          
                  \  \/   | |  | |   /    \    | | | |  |  | /  /          
                 / \  \   | |__| |  /  /\  \   | |_| |  |  |/  /          
                |  |  |   |  __  | /  /__\  \  |    /   |      \           
                |  |  |   | |  | | |   __   |  |    \   |  |\   \          
                \     /   | |  | | |  |  |  |  | |\  \  |  | \   \       
                 \___/    |_|  |_| |__|  |__|  |_| \__\ |__|  \__/        
                                                                              
                      - O R C A' S   B I G   F R I E N D -                    
                                      &                                       
                       - I N T E G R A L  F E E D E R -                       
                                                                              
 v1 FN, 2020, v2 2021, v3 2022-2024                                           
------------------------------------------------------------------------------


----------------------
SHARK INTEGRAL PACKAGE
----------------------

Number of atoms                             ...     30
Number of basis functions                   ...    262
Number of shells                            ...    118
Maximum angular momentum                    ...      2
Integral batch strategy                     ... SHARK/LIBINT Hybrid
RI-J (if used) integral strategy            ... SPLIT-RIJ (Revised 2003 algorithm where possible)
Printlevel                                  ...      1
Contraction scheme used                     ... SEGMENTED contraction
Prescreening option                         ... SCHWARTZ
   Thresh                                   ... 2.500e-11
   Tcut                                     ... 2.500e-12
   Tpresel                                  ... 2.500e-12 
Coulomb Range Separation                    ... NOT USED
Exchange Range Separation                   ... Long Range
   Mu parameter                             ... 3.000e-01
   Scaling (regular/separated)              ... 1.670e-01 8.330e-01
Multipole approximations                    ... NOT USED
Finite Nucleus Model                        ... NOT USED
CABS basis                                  ... NOT available
Auxiliary Coulomb fitting basis             ... AVAILABLE
   # of basis functions in Aux-J            ...    862
   # of shells in Aux-J                     ...    290
   Maximum angular momentum in Aux-J        ...      4
Auxiliary J/K fitting basis                 ... NOT available
Auxiliary Correlation fitting basis         ... NOT available
Auxiliary 'external' fitting basis          ... NOT available

Checking pre-screening integrals            ... done (  0.0 sec) Dimension = 118
Check shell pair data                       ... done (  0.0 sec)
Shell pair information
Shell pair cut-off parameter TPreSel        ...   2.5e-12
Total number of shell pairs                 ...      7021
Shell pairs after pre-screening             ...      6858
Total number of primitive shell pairs       ...     63980
Primitive shell pairs kept                  ...     46855
          la=0 lb=0:   1807 shell pairs
          la=1 lb=0:   2570 shell pairs
          la=1 lb=1:    937 shell pairs
          la=2 lb=0:    834 shell pairs
          la=2 lb=1:    605 shell pairs
          la=2 lb=2:    105 shell pairs

Calculating one electron integrals          ... done (  0.0 sec)
Calculating ECP integrals                   ... done (  0.1 sec)
Calculating RI/J V-Matrix + Cholesky decomp.... done (  0.0 sec)
Calculating Nuclear repulsion               ... done (  0.0 sec) ENN=    459.919835466741 Eh

Diagonalization of the overlap matrix:
Smallest eigenvalue                        ... 2.842e-04
Time for diagonalization                   ...    0.009 sec
Threshold for overlap eigenvalues          ... 1.000e-07
Number of eigenvalues below threshold      ... 0
Time for construction of square roots      ...    0.005 sec
Total time needed                          ...    0.018 sec

-------------------
DFT GRID GENERATION
-------------------

General Integration Accuracy     IntAcc      ... 4.388
Radial Grid Type                 RadialGrid  ... OptM3 with GC (2021)
Angular Grid (max. ang.)         AngularGrid ... 4 (Lebedev-302)
Angular grid pruning method      GridPruning ... 4 (adaptive)
Weight generation scheme         WeightScheme... mBecke (2022)
Basis function cutoff            BFCut       ... 1.0000e-11
Integration weight cutoff        WCut        ... 1.0000e-14
Partially contracted basis set               ... off
Rotationally invariant grid construction     ... off
Angular grids for H and He will be reduced by one unit

Total number of grid points                  ...   135192
Total number of batches                      ...     2128
Average number of points per batch           ...       63
Average number of grid points per atom       ...     4506

--------------------
COSX GRID GENERATION
--------------------

GRIDX 1
-------
General Integration Accuracy     IntAcc      ... 3.816
Radial Grid Type                 RadialGrid  ... OptM3 with GC (2021)
Angular Grid (max. ang.)         AngularGrid ... 1 (Lebedev-50)
Angular grid pruning method      GridPruning ... 4 (adaptive)
Weight generation scheme         WeightScheme... mBecke (2022)
Basis function cutoff            BFCut       ... 1.0000e-11
Integration weight cutoff        WCut        ... 1.0000e-14
Partially contracted basis set               ... on
Rotationally invariant grid construction     ... off
Angular grids for H and He will be reduced by one unit

Total number of grid points                  ...    17253
Total number of batches                      ...      153
Average number of points per batch           ...      112
Average number of grid points per atom       ...      575
UseSFitting                                  ... on

GRIDX 2
-------
General Integration Accuracy     IntAcc      ... 4.020
Radial Grid Type                 RadialGrid  ... OptM3 with GC (2021)
Angular Grid (max. ang.)         AngularGrid ... 2 (Lebedev-110)
Angular grid pruning method      GridPruning ... 4 (adaptive)
Weight generation scheme         WeightScheme... mBecke (2022)
Basis function cutoff            BFCut       ... 1.0000e-11
Integration weight cutoff        WCut        ... 1.0000e-14
Partially contracted basis set               ... on
Rotationally invariant grid construction     ... off
Angular grids for H and He will be reduced by one unit

Total number of grid points                  ...    36748
Total number of batches                      ...      304
Average number of points per batch           ...      120
Average number of grid points per atom       ...     1225
UseSFitting                                  ... on

GRIDX 3
-------
General Integration Accuracy     IntAcc      ... 4.338
Radial Grid Type                 RadialGrid  ... OptM3 with GC (2021)
Angular Grid (max. ang.)         AngularGrid ... 3 (Lebedev-194)
Angular grid pruning method      GridPruning ... 4 (adaptive)
Weight generation scheme         WeightScheme... mBecke (2022)
Basis function cutoff            BFCut       ... 1.0000e-11
Integration weight cutoff        WCut        ... 1.0000e-14
Partially contracted basis set               ... on
Rotationally invariant grid construction     ... off
Angular grids for H and He will be reduced by one unit

Total number of grid points                  ...    80380
Total number of batches                      ...      645
Average number of points per batch           ...      124
Average number of grid points per atom       ...     2679
UseSFitting                                  ... on
Initializing property integral containers    ... done (  0.0 sec)

SHARK setup successfully completed in   4.7 seconds

Maximum memory used throughout the entire STARTUP-calculation: 40.8 MB


           ************************************************************
           *        Program running with 40 parallel MPI-processes    *
           *              working on a common directory               *
           ************************************************************
-------------------------------------------------------------------------------
                                 ORCA GUESS
                   Start orbitals & Density for SCF / CASSCF
-------------------------------------------------------------------------------

------------
SCF SETTINGS
------------
Hamiltonian:
 Density Functional     Method          .... DFT(GTOs)
 Exchange Functional    Exchange        .... WB97X-V
 Correlation Functional Correlation     .... WB97X-V
 Gradients option       PostSCFGGA      .... off
 Hybrid DFT is turned on
   Fraction HF Exchange ScalHFX         ....  0.167000
   Scaling of DF-GGA-X  ScalDFX         ....  0.000000
   Scaling of DF-GGA-C  ScalDFC         ....  1.000000
   Scaling of DF-LDA-C  ScalLDAC        ....  1.000000
   Perturbative correction              ....  0.000000
 Long-range corrected/Screened/Range-Separated Hybrid DFT is turned on
   Amount of maximum screened exact exchange              ....  0.833000
   Range separation parameter mu (erf(mu*r12)/r12)        ....  0.300000
   NL short-range parameter             ....  6.000000
   NL long-range parameter              ....  0.010000
 RI-approximation to the Coulomb term is turned on
   Number of AuxJ basis functions       .... 862
   RIJ-COSX (HFX calculated with COS-X)).... on


General Settings:
 Integral files         IntName         .... ./output/carvacrol_acetate/carvacrol_acetate
 Hartree-Fock type      HFTyp           .... RHF
 Total Charge           Charge          ....    0
 Multiplicity           Mult            ....    1
 Number of Electrons    NEL             ....   76
 Basis Dimension        Dim             ....  262
 Nuclear Repulsion      ENuc            ....    459.9198354667 Eh

Convergence Acceleration:
 AO-DIIS                CNVDIIS         .... on
   Start iteration      DIISMaxIt       ....    12
   Startup error        DIISStart       ....  0.200000
   # of expansion vecs  DIISMaxEq       ....     5
   Bias factor          DIISBfac        ....   1.050
   Max. coefficient     DIISMaxC        ....  10.000
 MO-DIIS                CNVKDIIS        .... off
 Trust-Rad. Augm. Hess. CNVTRAH         .... auto
   Auto Start mean grad. ratio tolernc. ....  1.125000
   Auto Start start iteration           ....    50
   Auto Start num. interpolation iter.  ....    10
   Max. Number of Micro iterations      ....    24
   Max. Number of Macro iterations      .... Maxiter - #DIIS iter
   Number of Davidson start vectors     ....     2
   Converg. threshold    (grad. norm)   ....   1.000e-05
   Grad. Scal. Fac. for Micro threshold ....   0.100
   Minimum threshold for Micro iter.    ....   1.000e-02
   NR start threshold (gradient norm)   ....   1.000e-04
   Initial trust radius                 ....   0.400
   Minimum AH scaling param. (alpha)    ....   1.000
   Maximum AH scaling param. (alpha)    .... 1000.000
   Quad. conv. algorithm                .... NR
   White noise on init. David. guess    .... on
   Maximum white noise                  ....   0.010
   Pseudo random numbers                .... off
   Inactive MOs                         .... canonical
   Orbital update algorithm             .... Taylor
   Preconditioner                       .... Diag
   Full preconditioner red. dimension   ....   250
 SOSCF                  CNVSOSCF        .... on
   Start iteration      SOSCFMaxIt      ....   150
   Startup grad/error   SOSCFStart      ....  0.003300
   Hessian update       SOSCFHessUp     .... L-BFGS
 Level Shifting         CNVShift        .... on
   Level shift para.    LevelShift      ....    0.2500
   Turn off err/grad.   ShiftErr        ....    0.0010
 Zerner damping         CNVZerner       .... off
 Static damping         CNVDamp         .... on
   Fraction old density DampFac         ....    0.7000
   Max. Damping (<1)    DampMax         ....    0.9800
   Min. Damping (>=0)   DampMin         ....    0.0000
   Turn off err/grad.   DampErr         ....    0.1000

SCF Procedure:
 Maximum # iterations   MaxIter         ....   125
 SCF integral mode      SCFMode         .... Direct
   Integral package                     .... SHARK and LIBINT hybrid scheme
 Reset frequency        DirectResetFreq ....    20
 Integral Threshold     Thresh          ....  2.500e-11 Eh
 Primitive CutOff       TCut            ....  2.500e-12 Eh

Convergence Tolerance:
 Convergence Check Mode ConvCheckMode   .... Total+1el-Energy
 Convergence forced     ConvForced      .... 0
 Energy Change          TolE            ....  1.000e-08 Eh
 1-El. energy change                    ....  1.000e-05 Eh
 Orbital Gradient       TolG            ....  1.000e-05
 Orbital Rotation angle TolX            ....  1.000e-05
 DIIS Error             TolErr          ....  5.000e-07

------------------------------
INITIAL GUESS: MODEL POTENTIAL
------------------------------
Loading Hartree-Fock densities                     ... done
Atomic calculation to generate a density for atom 0 (C  with ECP)
  Multiplicity assumed   :    1
  Atomic configuration   : 1s2 2s2 2p2 
  Number of open shells  : 1
  Command: /home/aspe232/Project/Software/ORCA/6_0_1/build/orca ./output/carvacrol_acetate/carvacrol_acetate_atom6.inp "" > ./output/carvacrol_acetate/carvacrol_acetate_atom6.out
Returned from the atomic calculation with res=0
Atomic calculation to generate a density for atom 10 (O  with ECP)
  Multiplicity assumed   :    3
  Atomic configuration   : 1s2 2s2 2p4 
  Number of open shells  : 1
  Command: /home/aspe232/Project/Software/ORCA/6_0_1/build/orca ./output/carvacrol_acetate/carvacrol_acetate_atom8.inp "" > ./output/carvacrol_acetate/carvacrol_acetate_atom8.out
Returned from the atomic calculation with res=0
Calculating cut-offs                               ... done
Initializing the effective Hamiltonian             ... done
Setting up the integral package (SHARK)            ... done
Starting the Coulomb interaction                   ... done (   0.1 sec)
Making the grid                                    ... done (   0.8 sec)
Mapping shells                                     ... done
Starting the XC term evaluation                    ... done (   0.0 sec)
  promolecular density results
     # of electrons  =    103.988275576
     EX              =    -55.285632186
     EC              =     -4.247131343
     EX+EC           =    -59.532763528
Transforming the Hamiltonian                       ... done (   0.0 sec)
Diagonalizing the Hamiltonian                      ... done (   0.0 sec)
Back transforming the eigenvectors                 ... done (   0.0 sec)
Now organizing SCF variables                       ... done
                      ------------------
                      INITIAL GUESS DONE (   2.0 sec)
                      ------------------
             **** ENERGY FILE WAS UPDATED (./output/carvacrol_acetate/carvacrol_acetate.en.tmp) ****
Finished Guess after   2.7 sec
Maximum memory used throughout the entire GUESS-calculation: 25.6 MB


           ************************************************************
           *        Program running with 40 parallel MPI-processes    *
           *              working on a common directory               *
           ************************************************************

-------------------------------------------------------------------------------------------
                                      ORCA LEAN-SCF
                              memory conserving SCF solver
-------------------------------------------------------------------------------------------

----------------------------------------D-I-I-S--------------------------------------------
Iteration    Energy (Eh)           Delta-E    RMSDP     MaxDP     DIISErr   Damp  Time(sec)
-------------------------------------------------------------------------------------------
               ***  Starting incremental Fock matrix formation  ***
    1    -109.5733423301912239     0.00e+00  3.70e-03  8.39e-02  1.92e-01  0.700   5.6
    2    -109.7827389931207449    -2.09e-01  2.70e-03  6.07e-02  1.07e-01  0.700   4.5
                               ***Turning on AO-DIIS***
    3    -109.8896316016216019    -1.07e-01  1.49e-03  3.37e-02  5.75e-02  0.700   4.0
    4    -109.9531899690034038    -6.36e-02  3.19e-03  6.89e-02  3.59e-02  0.000   3.8
    5    -110.0883533364881828    -1.35e-01  2.59e-04  1.02e-02  7.15e-03  0.000   4.1
    6    -110.0888199980876720    -4.67e-04  1.17e-04  6.69e-03  5.61e-03  0.000   4.2
                              *** Initializing SOSCF ***
---------------------------------------S-O-S-C-F--------------------------------------
Iteration    Energy (Eh)           Delta-E    RMSDP     MaxDP     MaxGrad    Time(sec)
--------------------------------------------------------------------------------------
    7    -110.0889369096083215    -1.17e-04  6.18e-05  1.53e-03  9.05e-04     4.2
               *** Restarting incremental Fock matrix formation ***
    8    -110.0889193288784895     1.76e-05  3.84e-05  1.07e-03  3.89e-04     5.9
    9    -110.0889244851447870    -5.16e-06  2.63e-05  7.88e-04  1.92e-04     4.9
   10    -110.0889269367111751    -2.45e-06  8.54e-06  2.42e-04  6.40e-05     4.7
   11    -110.0889270638961648    -1.27e-07  3.78e-06  1.32e-04  3.79e-05     4.7
   12    -110.0889271429568339    -7.91e-08  1.24e-06  4.02e-05  1.91e-05     4.4
   13    -110.0889271544487542    -1.15e-08  4.87e-07  1.90e-05  4.30e-06     4.1
   14    -110.0889271585896836    -4.14e-09  2.14e-07  6.35e-06  1.75e-06     3.8
                 **** Energy Check signals convergence ****

               *****************************************************
               *                     SUCCESS                       *
               *           SCF CONVERGED AFTER  14 CYCLES          *
               *****************************************************

Recomputing exchange energy using gridx3       ... done (    5.233 sec)
Old exchange energy                            :    -14.737337044 Eh
New exchange energy                            :    -14.737335337 Eh
Exchange energy change after final integration :      0.000001707 Eh
Total energy after final integration           :   -110.088925451 Eh
             **** ENERGY FILE WAS UPDATED (./output/carvacrol_acetate/carvacrol_acetate.en.tmp) ****

----------------
TOTAL SCF ENERGY
----------------

Total Energy       :       -110.08892545134827 Eh           -2995.67196 eV

Components:
Nuclear Repulsion  :        459.91983546674072 Eh           12515.05498 eV
Electronic Energy  :       -570.00876262533029 Eh          -15510.72698 eV
One Electron Energy:      -1081.05043274898185 Eh          -29416.87780 eV
Two Electron Energy:        511.04167012365150 Eh           13906.15082 eV

Virial components:
Potential Energy   :       -195.12306588854216 Eh           -5309.56856 eV
Kinetic Energy     :         85.03414043719390 Eh            2313.89660 eV
Virial Ratio       :          2.29464383229298

DFT components:
N(Alpha)           :       37.999989384491 electrons
N(Beta)            :       37.999989384491 electrons
N(Total)           :       75.999978768981 electrons
E(X)               :      -16.150798230385 Eh       
E(C)               :       -2.895850009988 Eh       
E(XC)              :      -19.046648240373 Eh       

---------------
SCF CONVERGENCE
---------------

  Last Energy change         ...    4.1409e-09  Tolerance :   1.0000e-08
  Last MAX-Density change    ...    6.3518e-06  Tolerance :   1.0000e-07
  Last RMS-Density change    ...    2.1358e-07  Tolerance :   5.0000e-09
  Last DIIS Error            ...    9.0510e-04  Tolerance :   5.0000e-07
  Last Orbital Gradient      ...    1.7482e-06  Tolerance :   1.0000e-05
  Last Orbital Rotation      ...    6.3048e-06  Tolerance :   1.0000e-05


----------------
ORBITAL ENERGIES
----------------

  NO   OCC          E(Eh)            E(eV) 
   0   2.0000      -1.226740       -33.3813 
   1   2.0000      -1.132772       -30.8243 
   2   2.0000      -1.004835       -27.3430 
   3   2.0000      -0.950731       -25.8707 
   4   2.0000      -0.912402       -24.8277 
   5   2.0000      -0.894798       -24.3487 
   6   2.0000      -0.876202       -23.8427 
   7   2.0000      -0.817637       -22.2490 
   8   2.0000      -0.812969       -22.1220 
   9   2.0000      -0.775443       -21.1009 
  10   2.0000      -0.731737       -19.9116 
  11   2.0000      -0.715919       -19.4811 
  12   2.0000      -0.657310       -17.8863 
  13   2.0000      -0.621416       -16.9096 
  14   2.0000      -0.618596       -16.8329 
  15   2.0000      -0.602821       -16.4036 
  16   2.0000      -0.597633       -16.2624 
  17   2.0000      -0.576782       -15.6950 
  18   2.0000      -0.558283       -15.1917 
  19   2.0000      -0.546119       -14.8607 
  20   2.0000      -0.543013       -14.7761 
  21   2.0000      -0.536474       -14.5982 
  22   2.0000      -0.531448       -14.4614 
  23   2.0000      -0.522928       -14.2296 
  24   2.0000      -0.511742       -13.9252 
  25   2.0000      -0.504445       -13.7267 
  26   2.0000      -0.493903       -13.4398 
  27   2.0000      -0.493189       -13.4204 
  28   2.0000      -0.475173       -12.9301 
  29   2.0000      -0.465954       -12.6792 
  30   2.0000      -0.462618       -12.5885 
  31   2.0000      -0.445119       -12.1123 
  32   2.0000      -0.433686       -11.8012 
  33   2.0000      -0.430045       -11.7021 
  34   2.0000      -0.421500       -11.4696 
  35   2.0000      -0.390720       -10.6320 
  36   2.0000      -0.339068        -9.2265 
  37   2.0000      -0.322783        -8.7834 
  38   0.0000       0.044806         1.2192 
  39   0.0000       0.070277         1.9123 
  40   0.0000       0.077641         2.1127 
  41   0.0000       0.083262         2.2657 
  42   0.0000       0.090766         2.4699 
  43   0.0000       0.095114         2.5882 
  44   0.0000       0.109884         2.9901 
  45   0.0000       0.121392         3.3032 
  46   0.0000       0.124266         3.3814 
  47   0.0000       0.128947         3.5088 
  48   0.0000       0.133365         3.6290 
*Only the first 10 virtual orbitals were printed.

                    ********************************
                    * MULLIKEN POPULATION ANALYSIS *
                    ********************************

-----------------------
MULLIKEN ATOMIC CHARGES
-----------------------
   0 C :   -0.085003
   1 C :   -0.064252
   2 C :    0.095993
   3 C :    0.033579
   4 C :   -0.048499
   5 C :    0.018829
   6 C :    0.025050
   7 C :   -0.113485
   8 C :   -0.068383
   9 C :   -0.068978
  10 O :   -0.303225
  11 C :    0.272410
  12 O :   -0.339211
  13 C :   -0.086837
  14 H :    0.059873
  15 H :    0.039180
  16 H :    0.058674
  17 H :    0.037317
  18 H :    0.008595
  19 H :    0.017236
  20 H :    0.043462
  21 H :    0.035865
  22 H :    0.033556
  23 H :    0.049261
  24 H :    0.032292
  25 H :    0.055604
  26 H :    0.035512
  27 H :    0.063623
  28 H :    0.081095
  29 H :    0.080868
Sum of atomic charges:   -0.0000000

--------------------------------
MULLIKEN REDUCED ORBITAL CHARGES
--------------------------------
  0 C s       :     0.952381  s :     0.952381
      pz      :     0.998016  p :     3.058689
      px      :     1.004426
      py      :     1.056247
      dz2     :     0.021355  d :     0.073933
      dxz     :     0.016009
      dyz     :     0.005937
      dx2y2   :     0.009108
      dxy     :     0.021523

  1 C s       :     1.051466  s :     1.051466
      pz      :     0.943843  p :     2.895515
      px      :     0.972181
      py      :     0.979491
      dz2     :     0.029456  d :     0.117271
      dxz     :     0.031541
      dyz     :     0.021477
      dx2y2   :     0.014908
      dxy     :     0.019888

  2 C s       :     1.065700  s :     1.065700
      pz      :     1.008588  p :     2.678013
      px      :     0.711109
      py      :     0.958317
      dz2     :     0.034197  d :     0.160294
      dxz     :     0.045032
      dyz     :     0.025323
      dx2y2   :     0.025242
      dxy     :     0.030500

  3 C s       :     0.993060  s :     0.993060
      pz      :     0.981011  p :     2.883928
      px      :     0.933780
      py      :     0.969137
      dz2     :     0.021094  d :     0.089434
      dxz     :     0.026211
      dyz     :     0.010768
      dx2y2   :     0.012822
      dxy     :     0.018540

  4 C s       :     1.040630  s :     1.040630
      pz      :     0.966368  p :     2.887964
      px      :     0.957784
      py      :     0.963812
      dz2     :     0.029268  d :     0.119905
      dxz     :     0.035197
      dyz     :     0.020320
      dx2y2   :     0.015135
      dxy     :     0.019985

  5 C s       :     0.990694  s :     0.990694
      pz      :     0.942673  p :     2.897480
      px      :     0.974865
      py      :     0.979941
      dz2     :     0.025224  d :     0.092998
      dxz     :     0.027183
      dyz     :     0.020059
      dx2y2   :     0.010558
      dxy     :     0.009974

  6 C s       :     0.999287  s :     0.999287
      pz      :     0.983449  p :     2.880753
      px      :     0.937110
      py      :     0.960195
      dz2     :     0.026177  d :     0.094909
      dxz     :     0.024863
      dyz     :     0.009196
      dx2y2   :     0.014471
      dxy     :     0.020203

  7 C s       :     1.045425  s :     1.045425
      pz      :     1.019581  p :     2.941503
      px      :     0.962897
      py      :     0.959025
      dz2     :     0.023843  d :     0.126557
      dxz     :     0.028438
      dyz     :     0.018434
      dx2y2   :     0.026587
      dxy     :     0.029256

  8 C s       :     0.966702  s :     0.966702
      pz      :     1.034600  p :     3.027417
      px      :     0.988656
      py      :     1.004161
      dz2     :     0.013655  d :     0.074264
      dxz     :     0.024347
      dyz     :     0.003851
      dx2y2   :     0.018252
      dxy     :     0.014159

  9 C s       :     0.966553  s :     0.966553
      pz      :     1.033122  p :     3.028345
      px      :     1.036132
      py      :     0.959090
      dz2     :     0.012432  d :     0.074080
      dxz     :     0.019516
      dyz     :     0.009881
      dx2y2   :     0.011512
      dxy     :     0.020738

 10 O s       :     1.687284  s :     1.687284
      pz      :     1.445575  p :     4.579035
      px      :     1.381139
      py      :     1.752321
      dz2     :     0.010841  d :     0.036906
      dxz     :     0.006972
      dyz     :     0.005221
      dx2y2   :     0.006129
      dxy     :     0.007744

 11 C s       :     1.157542  s :     1.157542
      pz      :     0.716637  p :     2.324552
      px      :     0.854663
      py      :     0.753252
      dz2     :     0.070273  d :     0.245496
      dxz     :     0.046885
      dyz     :     0.045992
      dx2y2   :     0.039357
      dxy     :     0.042990

 12 O s       :     1.798601  s :     1.798601
      pz      :     1.539210  p :     4.506553
      px      :     1.634956
      py      :     1.332387
      dz2     :     0.006309  d :     0.034057
      dxz     :     0.005447
      dyz     :     0.008673
      dx2y2   :     0.008252
      dxy     :     0.005375

 13 C s       :     0.963615  s :     0.963615
      pz      :     1.067677  p :     3.060155
      px      :     0.954684
      py      :     1.037794
      dz2     :     0.015914  d :     0.063067
      dxz     :     0.007754
      dyz     :     0.010419
      dx2y2   :     0.014682
      dxy     :     0.014298

 14 H s       :     0.896385  s :     0.896385
      pz      :     0.009876  p :     0.043743
      px      :     0.017142
      py      :     0.016725

 15 H s       :     0.916846  s :     0.916846
      pz      :     0.022095  p :     0.043974
      px      :     0.011385
      py      :     0.010494

 16 H s       :     0.897524  s :     0.897524
      pz      :     0.009724  p :     0.043802
      px      :     0.012702
      py      :     0.021376

 17 H s       :     0.910363  s :     0.910363
      pz      :     0.026395  p :     0.052320
      px      :     0.011561
      py      :     0.014363

 18 H s       :     0.940535  s :     0.940535
      pz      :     0.011362  p :     0.050870
      px      :     0.023810
      py      :     0.015697

 19 H s       :     0.932251  s :     0.932251
      pz      :     0.024921  p :     0.050513
      px      :     0.010670
      py      :     0.014921

 20 H s       :     0.915784  s :     0.915784
      pz      :     0.020234  p :     0.040754
      px      :     0.010479
      py      :     0.010042

 21 H s       :     0.920960  s :     0.920960
      pz      :     0.016954  p :     0.043175
      px      :     0.016381
      py      :     0.009840

 22 H s       :     0.922845  s :     0.922845
      pz      :     0.020197  p :     0.043599
      px      :     0.013288
      py      :     0.010114

 23 H s       :     0.908160  s :     0.908160
      pz      :     0.009740  p :     0.042579
      px      :     0.011146
      py      :     0.021693

 24 H s       :     0.924090  s :     0.924090
      pz      :     0.019852  p :     0.043618
      px      :     0.013103
      py      :     0.010663

 25 H s       :     0.901800  s :     0.901800
      pz      :     0.009815  p :     0.042596
      px      :     0.017310
      py      :     0.015470

 26 H s       :     0.921285  s :     0.921285
      pz      :     0.017238  p :     0.043203
      px      :     0.015935
      py      :     0.010030

 27 H s       :     0.892144  s :     0.892144
      pz      :     0.012375  p :     0.044233
      px      :     0.009849
      py      :     0.022009

 28 H s       :     0.873076  s :     0.873076
      pz      :     0.011928  p :     0.045828
      px      :     0.019522
      py      :     0.014379

 29 H s       :     0.875059  s :     0.875059
      pz      :     0.025111  p :     0.044073
      px      :     0.009214
      py      :     0.009748



                     *******************************
                     * LOEWDIN POPULATION ANALYSIS *
                     *******************************

----------------------
LOEWDIN ATOMIC CHARGES
----------------------
   0 C :   -0.112102
   1 C :   -0.041606
   2 C :   -0.000616
   3 C :   -0.019581
   4 C :   -0.025301
   5 C :   -0.039717
   6 C :   -0.038813
   7 C :   -0.087093
   8 C :   -0.113335
   9 C :   -0.112078
  10 O :   -0.028934
  11 C :    0.031221
  12 O :   -0.181888
  13 C :   -0.090326
  14 H :    0.055991
  15 H :    0.054531
  16 H :    0.055744
  17 H :    0.046730
  18 H :    0.040570
  19 H :    0.046627
  20 H :    0.056223
  21 H :    0.047532
  22 H :    0.044383
  23 H :    0.050507
  24 H :    0.043964
  25 H :    0.053274
  26 H :    0.047531
  27 H :    0.063722
  28 H :    0.075022
  29 H :    0.077818

-------------------------------
LOEWDIN REDUCED ORBITAL CHARGES
-------------------------------
  0 C s       :     0.775931  s :     0.775931
      pz      :     1.015415  p :     3.098368
      px      :     1.015898
      py      :     1.067054
      dz2     :     0.074629  d :     0.237803
      dxz     :     0.048458
      dyz     :     0.015920
      dx2y2   :     0.028834
      dxy     :     0.069963

  1 C s       :     0.785644  s :     0.785644
      pz      :     0.986786  p :     2.886434
      px      :     0.998643
      py      :     0.901006
      dz2     :     0.098072  d :     0.369528
      dxz     :     0.104980
      dyz     :     0.060288
      dx2y2   :     0.048292
      dxy     :     0.057897

  2 C s       :     0.771743  s :     0.771743
      pz      :     1.026459  p :     2.755139
      px      :     0.812025
      py      :     0.916655
      dz2     :     0.110265  d :     0.473734
      dxz     :     0.129529
      dyz     :     0.067027
      dx2y2   :     0.080134
      dxy     :     0.086778

  3 C s       :     0.797917  s :     0.797917
      pz      :     1.029669  p :     2.932304
      px      :     0.995740
      py      :     0.906895
      dz2     :     0.075473  d :     0.289360
      dxz     :     0.085375
      dyz     :     0.026449
      dx2y2   :     0.047478
      dxy     :     0.054585

  4 C s       :     0.783496  s :     0.783496
      pz      :     1.004358  p :     2.868496
      px      :     0.987078
      py      :     0.877059
      dz2     :     0.094027  d :     0.373309
      dxz     :     0.116895
      dyz     :     0.057499
      dx2y2   :     0.048188
      dxy     :     0.056702

  5 C s       :     0.793951  s :     0.793951
      pz      :     1.013299  p :     2.944762
      px      :     1.024862
      py      :     0.906601
      dz2     :     0.092166  d :     0.301004
      dxz     :     0.090229
      dyz     :     0.056969
      dx2y2   :     0.034877
      dxy     :     0.026763

  6 C s       :     0.797535  s :     0.797535
      pz      :     1.033501  p :     2.937683
      px      :     1.002845
      py      :     0.901336
      dz2     :     0.089042  d :     0.303595
      dxz     :     0.080771
      dyz     :     0.023002
      dx2y2   :     0.051781
      dxy     :     0.058999

  7 C s       :     0.753962  s :     0.753962
      pz      :     1.012246  p :     2.946369
      px      :     0.969210
      py      :     0.964913
      dz2     :     0.075660  d :     0.386762
      dxz     :     0.086864
      dyz     :     0.055725
      dx2y2   :     0.081897
      dxy     :     0.086617

  8 C s       :     0.780905  s :     0.780905
      pz      :     1.059257  p :     3.088441
      px      :     1.007537
      py      :     1.021646
      dz2     :     0.043970  d :     0.243989
      dxz     :     0.081552
      dyz     :     0.012748
      dx2y2   :     0.061346
      dxy     :     0.044373

  9 C s       :     0.780661  s :     0.780661
      pz      :     1.060686  p :     3.088034
      px      :     1.050595
      py      :     0.976754
      dz2     :     0.039492  d :     0.243383
      dxz     :     0.063748
      dyz     :     0.035397
      dx2y2   :     0.036964
      dxy     :     0.067783

 10 O s       :     1.384735  s :     1.384735
      pz      :     1.469516  p :     4.545703
      px      :     1.408963
      py      :     1.667225
      dz2     :     0.025150  d :     0.098495
      dxz     :     0.026464
      dyz     :     0.011858
      dx2y2   :     0.016652
      dxy     :     0.018370

 11 C s       :     0.787802  s :     0.787802
      pz      :     0.801085  p :     2.515021
      px      :     0.876055
      py      :     0.837881
      dz2     :     0.181918  d :     0.665956
      dxz     :     0.124478
      dyz     :     0.143469
      dx2y2   :     0.101441
      dxy     :     0.114650

 12 O s       :     1.562548  s :     1.562548
      pz      :     1.549927  p :     4.551399
      px      :     1.588470
      py      :     1.413003
      dz2     :     0.011227  d :     0.067941
      dxz     :     0.009749
      dyz     :     0.020737
      dx2y2   :     0.012869
      dxy     :     0.013359

 13 C s       :     0.783912  s :     0.783912
      pz      :     1.066733  p :     3.095132
      px      :     0.982580
      py      :     1.045819
      dz2     :     0.055477  d :     0.211282
      dxz     :     0.027009
      dyz     :     0.031043
      dx2y2   :     0.048702
      dxy     :     0.049051

 14 H s       :     0.797498  s :     0.797498
      pz      :     0.039226  p :     0.146511
      px      :     0.054590
      py      :     0.052695

 15 H s       :     0.802979  s :     0.802979
      pz      :     0.060822  p :     0.142490
      px      :     0.040796
      py      :     0.040872

 16 H s       :     0.798020  s :     0.798020
      pz      :     0.038891  p :     0.146236
      px      :     0.045379
      py      :     0.061966

 17 H s       :     0.799154  s :     0.799154
      pz      :     0.071645  p :     0.154116
      px      :     0.037898
      py      :     0.044573

 18 H s       :     0.807640  s :     0.807640
      pz      :     0.038054  p :     0.151790
      px      :     0.066442
      py      :     0.047294

 19 H s       :     0.804123  s :     0.804123
      pz      :     0.068882  p :     0.149250
      px      :     0.035449
      py      :     0.044918

 20 H s       :     0.799162  s :     0.799162
      pz      :     0.063014  p :     0.144614
      px      :     0.041197
      py      :     0.040403

 21 H s       :     0.807384  s :     0.807384
      pz      :     0.053940  p :     0.145083
      px      :     0.052163
      py      :     0.038980

 22 H s       :     0.810009  s :     0.810009
      pz      :     0.060569  p :     0.145608
      px      :     0.045377
      py      :     0.039662

 23 H s       :     0.804855  s :     0.804855
      pz      :     0.039798  p :     0.144638
      px      :     0.041664
      py      :     0.063177

 24 H s       :     0.810315  s :     0.810315
      pz      :     0.060002  p :     0.145720
      px      :     0.045753
      py      :     0.039965

 25 H s       :     0.802256  s :     0.802256
      pz      :     0.040038  p :     0.144470
      px      :     0.054209
      py      :     0.050223

 26 H s       :     0.807378  s :     0.807378
      pz      :     0.054429  p :     0.145091
      px      :     0.052231
      py      :     0.038431

 27 H s       :     0.791446  s :     0.791446
      pz      :     0.044692  p :     0.144832
      px      :     0.037605
      py      :     0.062535

 28 H s       :     0.779069  s :     0.779069
      pz      :     0.043236  p :     0.145909
      px      :     0.055407
      py      :     0.047267

 29 H s       :     0.781824  s :     0.781824
      pz      :     0.067505  p :     0.140359
      px      :     0.035000
      py      :     0.037853



                      *****************************
                      * MAYER POPULATION ANALYSIS *
                      *****************************

  NA   - Mulliken gross atomic population
  ZA   - Total nuclear charge
  QA   - Mulliken gross atomic charge
  VA   - Mayer's total valence
  BVA  - Mayer's bonded valence
  FA   - Mayer's free valence

  ATOM       NA         ZA         QA         VA         BVA        FA
  0 C      4.0850     4.0000    -0.0850     3.9796     3.9796    -0.0000
  1 C      4.0643     4.0000    -0.0643     4.1240     4.1240    -0.0000
  2 C      3.9040     4.0000     0.0960     4.0873     4.0873    -0.0000
  3 C      3.9664     4.0000     0.0336     4.0410     4.0410    -0.0000
  4 C      4.0485     4.0000    -0.0485     4.0960     4.0960     0.0000
  5 C      3.9812     4.0000     0.0188     4.0497     4.0497     0.0000
  6 C      3.9749     4.0000     0.0251     4.0543     4.0543     0.0000
  7 C      4.1135     4.0000    -0.1135     4.0643     4.0643     0.0000
  8 C      4.0684     4.0000    -0.0684     3.9549     3.9549    -0.0000
  9 C      4.0690     4.0000    -0.0690     3.9565     3.9565    -0.0000
 10 O      6.3032     6.0000    -0.3032     2.0548     2.0548     0.0000
 11 C      3.7276     4.0000     0.2724     4.0708     4.0708    -0.0000
 12 O      6.3392     6.0000    -0.3392     2.0079     2.0079    -0.0000
 13 C      4.0868     4.0000    -0.0868     3.9533     3.9533     0.0000
 14 H      0.9401     1.0000     0.0599     1.0173     1.0173    -0.0000
 15 H      0.9608     1.0000     0.0392     1.0309     1.0309    -0.0000
 16 H      0.9413     1.0000     0.0587     1.0189     1.0189    -0.0000
 17 H      0.9627     1.0000     0.0373     1.0393     1.0393    -0.0000
 18 H      0.9914     1.0000     0.0086     1.0375     1.0375     0.0000
 19 H      0.9828     1.0000     0.0172     1.0417     1.0417    -0.0000
[...]
 39:    996.74   0.000779    3.94  0.000244  ( 0.014384 -0.005342  0.002925)
 40:   1003.08   0.001781    9.00  0.000554  (-0.019618  0.011661 -0.005761)
 41:   1036.83   0.001188    6.00  0.000357  ( 0.015734  0.003653 -0.009828)
 42:   1057.20   0.009381   47.41  0.002769  ( 0.051573  0.002150  0.010228)
 43:   1089.42   0.000741    3.74  0.000212  (-0.010229  0.009987 -0.002810)
 44:   1094.11   0.001763    8.91  0.000503  ( 0.010282 -0.000284 -0.019923)
 45:   1102.79   0.002756   13.93  0.000780  ( 0.024850  0.000446 -0.012733)
 46:   1164.61   0.009297   46.98  0.002491  ( 0.039545  0.005152  0.030014)
 47:   1171.98   0.000193    0.98  0.000051  ( 0.001991 -0.006708  0.001567)
 48:   1196.21   0.000277    1.40  0.000072  ( 0.000767 -0.002949 -0.007936)
 49:   1227.51   0.003615   18.27  0.000919  ( 0.025897  0.000080  0.015763)
 50:   1256.91   0.003873   19.57  0.000962  ( 0.028130 -0.002915  0.012722)
 51:   1302.48   0.085975  434.48  0.020599  (-0.132505  0.027626 -0.047729)
 52:   1319.09   0.026774  135.31  0.006334  ( 0.074369 -0.001227  0.028317)
 53:   1330.37   0.001403    7.09  0.000329  (-0.013818 -0.002038  0.011580)
 54:   1341.85   0.001000    5.05  0.000233  (-0.014395 -0.000217 -0.005035)
 55:   1380.72   0.000072    0.36  0.000016  (-0.000935  0.003796 -0.000971)
 56:   1397.83   0.001019    5.15  0.000227  (-0.013993 -0.004006  0.003944)
 57:   1435.86   0.002410   12.18  0.000524  ( 0.007504 -0.020797  0.005906)
 58:   1441.99   0.026465  133.74  0.005727  ( 0.071118  0.005125  0.025360)
 59:   1447.51   0.001669    8.43  0.000360  (-0.012200 -0.004618 -0.013772)
 60:   1452.69   0.001135    5.74  0.000244  ( 0.014012  0.005994  0.003403)
 61:   1497.56   0.003268   16.52  0.000681  (-0.024900 -0.005452 -0.005597)
 62:   1501.61   0.004071   20.57  0.000846  ( 0.004465  0.028361  0.004656)
 63:   1508.66   0.002608   13.18  0.000539  (-0.011259 -0.001491  0.020261)
 64:   1515.55   0.000701    3.54  0.000144  (-0.000766  0.011709 -0.002577)
 65:   1515.67   0.002026   10.24  0.000417  (-0.002751  0.019648 -0.004859)
 66:   1519.36   0.000774    3.91  0.000159  (-0.003182  0.011842 -0.002920)
 67:   1531.42   0.005009   25.31  0.001021  (-0.018185 -0.010064 -0.024265)
 68:   1534.75   0.000411    2.08  0.000084  (-0.008939  0.000740  0.001754)
 69:   1540.52   0.004106   20.75  0.000832  ( 0.010992  0.005348  0.026121)
 70:   1597.00   0.008567   43.29  0.001674  (-0.039943 -0.005703  0.006787)
 71:   1691.06   0.003974   20.08  0.000733  ( 0.020628  0.002316  0.017393)
 72:   1741.97   0.002075   10.49  0.000372  ( 0.018463 -0.000832 -0.005491)
 73:   1898.71   0.050515  255.28  0.008302  (-0.008902  0.090672  0.001304)
 74:   3099.07   0.005769   29.15  0.000581  ( 0.008852 -0.021645  0.005836)
 75:   3101.62   0.006239   31.53  0.000628  ( 0.023354  0.009040  0.000767)
 76:   3105.52   0.003472   17.54  0.000349  ( 0.004478 -0.003407 -0.017810)
 77:   3110.66   0.005034   25.44  0.000505  ( 0.015429  0.003454 -0.015968)
 78:   3136.92   0.000301    1.52  0.000030  (-0.003948 -0.003467 -0.001539)
 79:   3188.85   0.000032    0.16  0.000003  (-0.000345  0.001709 -0.000237)
 80:   3192.33   0.008765   44.29  0.000857  (-0.011996  0.003465  0.026474)
 81:   3197.49   0.002295   11.60  0.000224  ( 0.006237  0.013541 -0.001326)
 82:   3197.60   0.000865    4.37  0.000084  ( 0.001183  0.008797 -0.002379)
 83:   3199.63   0.003393   17.15  0.000331  (-0.017789  0.000133 -0.003800)
 84:   3214.50   0.001307    6.61  0.000127  (-0.004067 -0.003235 -0.009994)
 85:   3230.94   0.000036    0.18  0.000003  ( 0.000115  0.000138 -0.001847)
 86:   3242.57   0.001331    6.73  0.000128  ( 0.006925  0.000084 -0.008954)
 87:   3259.41   0.001458    7.37  0.000140  ( 0.004722  0.004364  0.009912)
 88:   3261.21   0.001416    7.16  0.000136  (-0.008172 -0.003840 -0.007349)
 89:   3267.00   0.000229    1.16  0.000022  ( 0.004279  0.000613  0.001787)

* The epsilon (eps) is given for a Dirac delta lineshape.
** The dipole moment derivative (T) already includes vibrational overlap.

The first frequency considered to be a vibration is 6
The total number of vibrations considered is 84


--------------------------
THERMOCHEMISTRY AT 298.15K
--------------------------

Temperature         ...   298.15 K
Pressure            ...     1.00 atm
Total Mass          ...   192.26 AMU
Quasi RRHO          ...     True
Cut-Off Frequency   ...     1.00 cm^-1

Throughout the following assumptions are being made:
  (1) The electronic state is orbitally nondegenerate
  (2) There are no thermally accessible electronically excited states
  (3) Hindered rotations indicated by low frequency modes are not
      treated as such but are treated as vibrations and this may
      cause some error
  (4) All equations used are the standard statistical mechanics
      equations for an ideal gas
  (5) All vibrations are strictly harmonic

freq.      29.96  E(vib)   ...       0.55 
freq.      41.60  E(vib)   ...       0.54 
freq.      57.54  E(vib)   ...       0.51 
freq.      85.35  E(vib)   ...       0.48 
freq.      96.81  E(vib)   ...       0.46 
freq.     106.84  E(vib)   ...       0.45 
freq.     142.36  E(vib)   ...       0.41 
freq.     190.61  E(vib)   ...       0.36 
freq.     201.45  E(vib)   ...       0.35 
freq.     236.96  E(vib)   ...       0.32 
freq.     258.26  E(vib)   ...       0.30 
freq.     277.25  E(vib)   ...       0.28 
freq.     295.52  E(vib)   ...       0.27 
freq.     300.96  E(vib)   ...       0.26 
freq.     350.97  E(vib)   ...       0.23 
freq.     395.46  E(vib)   ...       0.20 
freq.     441.01  E(vib)   ...       0.17 
freq.     467.76  E(vib)   ...       0.16 
freq.     485.77  E(vib)   ...       0.15 
freq.     568.09  E(vib)   ...       0.11 
freq.     585.42  E(vib)   ...       0.11 
freq.     621.97  E(vib)   ...       0.09 
freq.     640.98  E(vib)   ...       0.09 
freq.     710.37  E(vib)   ...       0.07 
freq.     735.72  E(vib)   ...       0.06 
freq.     756.83  E(vib)   ...       0.06 
freq.     810.00  E(vib)   ...       0.05 
freq.     856.79  E(vib)   ...       0.04 
freq.     893.39  E(vib)   ...       0.03 
freq.     920.69  E(vib)   ...       0.03 
freq.     953.61  E(vib)   ...       0.03 
freq.     956.94  E(vib)   ...       0.03 
freq.     994.12  E(vib)   ...       0.02 
freq.     996.74  E(vib)   ...       0.02 
freq.    1003.08  E(vib)   ...       0.02 
freq.    1036.83  E(vib)   ...       0.02 
freq.    1057.20  E(vib)   ...       0.02 
freq.    1089.42  E(vib)   ...       0.02 
freq.    1094.11  E(vib)   ...       0.02 
freq.    1102.79  E(vib)   ...       0.02 
freq.    1164.61  E(vib)   ...       0.01 
freq.    1171.98  E(vib)   ...       0.01 
freq.    1196.21  E(vib)   ...       0.01 
freq.    1227.51  E(vib)   ...       0.01 
freq.    1256.91  E(vib)   ...       0.01 
freq.    1302.48  E(vib)   ...       0.01 
freq.    1319.09  E(vib)   ...       0.01 
freq.    1330.37  E(vib)   ...       0.01 
freq.    1341.85  E(vib)   ...       0.01 
freq.    1380.72  E(vib)   ...       0.01 
freq.    1397.83  E(vib)   ...       0.00 
freq.    1435.86  E(vib)   ...       0.00 
freq.    1441.99  E(vib)   ...       0.00 
freq.    1447.51  E(vib)   ...       0.00 
freq.    1452.69  E(vib)   ...       0.00 
freq.    1497.56  E(vib)   ...       0.00 
freq.    1501.61  E(vib)   ...       0.00 
freq.    1508.66  E(vib)   ...       0.00 
freq.    1515.55  E(vib)   ...       0.00 
freq.    1515.67  E(vib)   ...       0.00 
freq.    1519.36  E(vib)   ...       0.00 
freq.    1531.42  E(vib)   ...       0.00 
freq.    1534.75  E(vib)   ...       0.00 
freq.    1540.52  E(vib)   ...       0.00 
freq.    1597.00  E(vib)   ...       0.00 
freq.    1691.06  E(vib)   ...       0.00 
freq.    1741.97  E(vib)   ...       0.00 
freq.    1898.71  E(vib)   ...       0.00 
freq.    3099.07  E(vib)   ...       0.00 
freq.    3101.62  E(vib)   ...       0.00 
freq.    3105.52  E(vib)   ...       0.00 
freq.    3110.66  E(vib)   ...       0.00 
freq.    3136.92  E(vib)   ...       0.00 
freq.    3188.85  E(vib)   ...       0.00 
freq.    3192.33  E(vib)   ...       0.00 
freq.    3197.49  E(vib)   ...       0.00 
freq.    3197.60  E(vib)   ...       0.00 
freq.    3199.63  E(vib)   ...       0.00 
freq.    3214.50  E(vib)   ...       0.00 
freq.    3230.94  E(vib)   ...       0.00 
freq.    3242.57  E(vib)   ...       0.00 
freq.    3259.41  E(vib)   ...       0.00 
freq.    3261.21  E(vib)   ...       0.00 
freq.    3267.00  E(vib)   ...       0.00 

------------
INNER ENERGY
------------

The inner energy is: U= E(el) + E(ZPE) + E(vib) + E(rot) + E(trans)
    E(el)   - is the total energy from the electronic structure calculation
              = E(kin-el) + E(nuc-el) + E(el-el) + E(nuc-nuc)
    E(ZPE)  - the the zero temperature vibrational energy from the frequency calculation
    E(vib)  - the the finite temperature correction to E(ZPE) due to population
              of excited vibrational states
    E(rot)  - is the rotational thermal energy
    E(trans)- is the translational thermal energy

Summary of contributions to the inner energy U:
Electronic energy                ...   -110.15194247 Eh
Zero point energy                ...      0.26042708 Eh     163.42 kcal/mol
Thermal vibrational correction   ...      0.01199737 Eh       7.53 kcal/mol
Thermal rotational correction    ...      0.00141627 Eh       0.89 kcal/mol
Thermal translational correction ...      0.00141627 Eh       0.89 kcal/mol
-----------------------------------------------------------------------
Total thermal energy                   -109.87668547 Eh


Summary of corrections to the electronic energy:
(perhaps to be used in another calculation)
Total thermal correction                  0.01482992 Eh       9.31 kcal/mol
Non-thermal (ZPE) correction              0.26042708 Eh     163.42 kcal/mol
-----------------------------------------------------------------------
Total correction                          0.27525700 Eh     172.73 kcal/mol


--------
ENTHALPY
--------

The enthalpy is H = U + kB*T
                kB is Boltzmann's constant
Total thermal energy              ...   -109.87668547 Eh 
Thermal Enthalpy correction       ...      0.00094421 Eh       0.59 kcal/mol
-----------------------------------------------------------------------
Total Enthalpy                    ...   -109.87574126 Eh


Note: Only C1 symmetry has been detected, increase convergence thresholds 
      if your molecule has a higher symmetry. Symmetry factor of 1.0 is   
      used for the rotational entropy correction. 
 

Note: Rotational entropy computed according to Herzberg 
Infrared and Raman Spectra, Chapter V,1, Van Nostrand Reinhold, 1945 
Point Group:  C1, Symmetry Number:   1  
Rotational constants in cm-1:     0.043176     0.012994     0.011366 

Vibrational entropy computed according to the QRRHO of S. Grimme
Chem.Eur.J. 2012 18 9955 using a reference frequency of 100.0 cm-1


-------
ENTROPY
-------

The entropy contributions are T*S = T*(S(el)+S(vib)+S(rot)+S(trans))
     S(el)   - electronic entropy
     S(vib)  - vibrational entropy
     S(rot)  - rotational entropy
     S(trans)- translational entropy
The entropies will be listed as multiplied by the temperature to get
units of energy

Electronic entropy                ...      0.00000000 Eh      0.00 kcal/mol
Vibrational entropy               ...      0.02133422 Eh     13.39 kcal/mol
Rotational entropy                ...      0.01515837 Eh      9.51 kcal/mol
Translational entropy             ...      0.01979701 Eh     12.42 kcal/mol
-----------------------------------------------------------------------
Final entropy term                ...      0.05628961 Eh     35.32 kcal/mol

In case the symmetry of your molecule has not been determined correctly
or in case you have a reason to use a different symmetry number we print 
out the resulting rotational entropy values for sn=1,12:

 non-linear molecules -----------------------------------
|  sn= 1 | S(rot)=       0.01515837 Eh      9.51 kcal/mol|
|  sn= 2 | S(rot)=       0.01450392 Eh      9.10 kcal/mol|
|  sn= 3 | S(rot)=       0.01412109 Eh      8.86 kcal/mol|
|  sn= 4 | S(rot)=       0.01384946 Eh      8.69 kcal/mol|
|  sn= 5 | S(rot)=       0.01363877 Eh      8.56 kcal/mol|
|  sn= 6 | S(rot)=       0.01346663 Eh      8.45 kcal/mol|
|  sn= 7 | S(rot)=       0.01332108 Eh      8.36 kcal/mol|
|  sn= 8 | S(rot)=       0.01319501 Eh      8.28 kcal/mol|
|  sn= 9 | S(rot)=       0.01308380 Eh      8.21 kcal/mol|
|  sn=10 | S(rot)=       0.01298432 Eh      8.15 kcal/mol|
|  sn=11 | S(rot)=       0.01289433 Eh      8.09 kcal/mol|
|  sn=12 | S(rot)=       0.01281217 Eh      8.04 kcal/mol|
 linear molecules ---------------------------------------
|  Dinfh | S(rot)=       0.00955304 Eh      5.99 kcal/mol|
|  Cinfv | S(rot)=       0.01020750 Eh      6.41 kcal/mol|
 --------------------------------------------------------


-------------------
GIBBS FREE ENERGY
-------------------

The Gibbs free energy is G = H - T*S

Total enthalpy                    ...   -109.87574126 Eh 
Total entropy correction          ...     -0.05628961 Eh    -35.32 kcal/mol
-----------------------------------------------------------------------
Final Gibbs free energy         ...   -109.93203087 Eh

For completeness - the Gibbs free energy minus the electronic energy
G-E(el)                           ...      0.21991160 Eh    138.00 kcal/mol


Maximum memory used throughout the entire PROP-calculation: 161.3 MB

--------------------------------
SUGGESTED CITATIONS FOR THIS RUN
--------------------------------

Below you find a list of papers that are relevant to this ORCA run
We neither can nor want to force you to cite these papers, but we appreciate if you do
You receive ORCA, which is the product of decades of hard work by many enthusiastic individuals, for free
The only thing we kindly ask in return is that you cite our papers,
We deeply appreciate it, if you show your appreciation for ORCA by not just citing the generic ORCA reference.

Please note that relegating all ORCA citations to the supporting information does *not* help us.
SI sections are not indexed - citations you put there will not count into any citation statistics
But we need these citations in order to attract the funding resources that allow us to do what we are doing

Therefore, if you are a happy ORCA user, please consider citing a few of the papers listed below in the main body of your paper

In addition to the list printed below, the program has created the file ./output/carvacrol_acetate/carvacrol_acetate.bibtex that contains the list in bibtex format
You can import this file easily into all common literature databanks and citation aid programs


List of essential papers. We consider these as the minimum necessary citations

  1. Neese,F.
     Software update: the ORCA program system, version 5.0
     WIRES Comput. Molec. Sci., 2022 12(1)e1606
     doi.org/10.1002/wcms.1606
  2. Mueller,M.; Hansen,A.; Grimme,S.
     wB97X-3c: A composite range-separated hybrid DFT method with a molecule-optimized polarized valence double-zeta basis set
     J. Chem. Phys., 2023 158 014103
     doi.org/10.1063/5.0133026

List of papers to cite with high priority. The work reported in these papers was absolutely
necessary for this run to complete.
Our perspective: the developers of density functionals and basis sets usually get cited in chemistry papers
Good! But without the algorithms to do something with them, the functionals or basis sets would not do anything.
Hence, in our opinion, the algorithm design and method developments papers are equally worthy of getting cited

  1. Neese,F.
     An improvement of the resolution of the identity approximation for the formation of the Coulomb matrix
     J. Comp. Chem., 2003 24(14)1740-1747
     doi.org/10.1002/jcc.10318
  2. Neese,F.; Wennmohs,F.; Hansen,A.; Becker,U.
     Efficient, approximate and parallel Hartree-Fock and hybrid DFT calculations. A 'chain-of-spheres' algorithm for the Hartree-Fock exchange
     Chem. Phys., 2009 356(1-3)98-109
     doi.org/10.1016/j.chemphys.2008.10.036
  3. Bykov,D.; Petrenko,T.; Izsak,R.; Kossmann,S.; Becker,U.; Valeev,E.; Neese,F.
     Efficient implementation of the analytic second derivatives of Hartree-Fock and hybrid DFT energies: a detailed analysis of different approximations
     Molec. Phys., 2015 113 1961-1977
     doi.org/10.1080/00268976.2015.1025114
  4. Helmich-Paris,B.; de Souza,B.; Neese,F.; Izsák,R.
     An improved chain of spheres for exchange algorithm
     J. Chem. Phys., 2021 155 104109
     doi.org/doi: 10.1063/5.0058766.
  5. Neese,F.
     The SHARK Integral Generation and Digestion System
     J. Comp. Chem., 2022  1-16
     doi.org/10.1002/jcc.26942
  6. Caldeweyher,E.; Bannwarth,C.; Grimme,S.
     Extension of the D3 dispersion coefficient model
     J. Chem. Phys., 2017 147 034112
     doi.org/10.1063/1.4993215
  7. Caldeweyher,E.; Ehlert,S.; Hansen,A.; Neugebauer,H.; Spicher,S.; Bannwarth,C.; Grimme,S.
     A generally applicable atomic-charge dependent London dispersion correction
     J. Chem. Phys., 2019 150 154122
     doi.org/10.1063/1.5090222
  8. Caldeweyher,E.; Mewes,J.; Ehlert,S.; Grimme,S.
     Extension and evaluation of the D4 London-dispersion model for periodic systems
     Phys. Chem. Chem. Phys., 2020 22(16)8499-8512
     doi.org/10.1039/D0CP00502A
  9. Wittmann,L.; Gordiy,I.; Friede,M.; Helmich-Paris,B.; Grimme,S.; Hansen,A.; Bursch,M.
     Extension of the D3 and D4 London Dispersion Corrections to the full Actinides Series
     Phys. Chem. Chem. Phys., 2024 26(32)21379-21394
     doi.org/https://doi.org/10.1039/D4CP01514B 

List of suggested additional citations. These are papers that are important in the 'surrounding' of 
of this run, or papers that preceded the highly important papers. If you like your results we are grateful for a citation.

  1. Izsak,R.; Neese,F.
     An overlap fitted chain of spheres exchange method
     J. Chem. Phys., 2011 135 144105
     doi.org/10.1063/1.3646921
  2. Izsak,R.; Hansen,A.; Neese,F.
     The resolution of identity and chain of spheres approximations for the LPNO-CCSD singles Fock term
     Molec. Phys., 2012 110 2413-2417
     doi.org/10.1080/00268976.2012.687466
  3. Neese,F.
     The ORCA program system
     WIRES Comput. Molec. Sci., 2012 2(1)73-78
     doi.org/10.1002/wcms.81
  4. Izsak,R.; Neese,F.; Klopper,W.
     Robust fitting techniques in the chain of spheres approximation to the Fock exchange: The role of the complementary space
     J. Chem. Phys., 2013 139 
     doi.org/10.1063/1.4819264
  5. Neese,F.
     Software update: the ORCA program system, version 4.0
     WIRES Comput. Molec. Sci., 2018 8(1)1-6
     doi.org/10.1002/wcms.1327
  6. Neese,F.; Wennmohs,F.; Becker,U.; Riplinger,C.
     The ORCA quantum chemistry program package
     J. Chem. Phys., 2020 152 Art. No. L224108
     doi.org/10.1063/5.0004608

List of optional additional citations

  1. Neese,F.
     Approximate second-order SCF convergence for spin unrestricted wavefunctions
     Chem. Phys. Lett., 2000 325(1-3)93-98
     doi.org/10.1016/s0009-2614(00)00662-x

Timings for individual modules:

Sum of individual times          ...     1930.888 sec (=  32.181 min)
Startup calculation              ...      103.714 sec (=   1.729 min)   5.4 %
SCF iterations                   ...     1300.074 sec (=  21.668 min)  67.3 %
Property integrals               ...       83.585 sec (=   1.393 min)   4.3 %
SCF Response                     ...       55.638 sec (=   0.927 min)   2.9 %
Property calculations            ...      130.039 sec (=   2.167 min)   6.7 %
SCF Gradient evaluation          ...      257.248 sec (=   4.287 min)  13.3 %
Geometry relaxation              ...        0.590 sec (=   0.010 min)   0.0 %
                             ****ORCA TERMINATED NORMALLY****
TOTAL RUN TIME: 0 days 0 hours 32 minutes 22 seconds 380 msec
