
                                 *****************
                                 * O   R   C   A *
                                 *****************

                                            #,                                       
                                            ###                                      
                                            ####                                     
                                            #####                                    
                                            ######                                   
                                           ########,                                 
                                     ,,################,,,,,                         
                               ,,#################################,,                 
                          ,,##########################################,,             
                       ,#########################################, ''#####,          
                    ,#############################################,,   '####,        
                  ,##################################################,,,,####,       
                ,###########''''           ''''###############################       
              ,#####''   ,,,,##########,,,,          '''####'''          '####       
            ,##' ,,,,###########################,,,                        '##       
           ' ,,###''''                  '''############,,,                           
         ,,##''                                '''############,,,,        ,,,,,,###''
      ,#''                                            '''#######################'''  
     '                                                          ''''####''''         
             ,#######,   #######,   ,#######,      ##                                
            ,#'     '#,  ##    ##  ,#'     '#,    #''#        ,####,   ,####,        
            ##       ##  ##   ,#'  ##            #'  '#       #'       #'  '#        
            ##       ##  #######   ##           ,######,      #####,   #    #        
            '#,     ,#'  ##    ##  '#,     ,#' ,#      #,     #,   #   #,  ,#        
             '#######'   ##     ##  '#######'  #'      '#     '####' # '####'        



                #########################################################
                #                        -***-                          #
                #          Department of theory and spectroscopy        #
                #                                                       #
                #                      Frank Neese                      #
                #                                                       #
                #     Directorship, Architecture, Infrastructure        #
                #                    SHARK, DRIVERS                     #
                #        Core code/Algorithms in most modules           #
                #                                                       #
                #        Max Planck Institute fuer Kohlenforschung      #
                #                Kaiser Wilhelm Platz 1                 #
                #                 D-45470 Muelheim/Ruhr                 #
                #                      Germany                          #
                #                                                       #
                #                  All rights reserved                  #
                #                        -***-                          #
                #########################################################


                         Program Version 6.0.1  -  RELEASE   -


 With contributions from (in alphabetic order):
[Max-Planck-Institut fuer Kohlenforschung]                               
  Daniel Aravena         : Magnetic Suceptibility                        
  Michael Atanasov       : Ab Initio Ligand Field Theory (pilot matlab implementation)
  Alexander A. Auer      : GIAO ZORA, VPT2 properties, NMR spectrum      
  Ute Becker             : All parallelization in ORCA, NUMFREQ, NUMCALC 
  Giovanni Bistoni       : ED, misc. LED, open-shell LED, HFLD           
  Martin Brehm           : Molecular dynamics                            
  Dmytro Bykov           : pre 5.0 version of the SCF Hessian            
  Marcos Casanova-Páez   : Triplet and SCS-CIS(D). UHF-(DLPNO)-IP/EA/STEOM-CCSD. UHF-CVS-IP/STEOM-CCSD   
  Vijay G. Chilkuri      : MRCI spin determinant printing, contributions to CSF-ICE 
  Pauline Colinet        : FMM embedding                                 
  Dipayan Datta          : RHF DLPNO-CCSD density                        
  Achintya Kumar Dutta   : EOM-CC, STEOM-CC                              
  Nicolas Foglia         : Exact transition moments, OPA infrastructure, MCD improvements    
  Dmitry Ganyushin       : Spin-Orbit,Spin-Spin,Magnetic field MRCI      
  Miquel Garcia-Rates    : C-PCM and meta-GGA Hessian, CCSD/C-PCM, Gaussian charge scheme 
  Tiago L. C. Gouveia    : GS-ROHF, GS-ROCIS                             
  Yang Guo               : DLPNO-NEVPT2, F12-NEVPT2, CIM, IAO-localization        
  Andreas Hansen         : Spin unrestricted coupled pair/coupled cluster methods 
  Ingolf Harden          : AUTO-CI MPn and infrastructure                
  Benjamin Helmich-Paris : MC-RPA, TRAH-(SCF,CASSCF), AVAS, COSX integrals, SCF dyn. polar. 
  Lee Huntington         : MR-EOM, pCC                                   
  Robert Izsak           : Overlap fitted RIJCOSX, COSX-SCS-MP3, EOM     
  Riya Kayal             : Wick's Theorem for AUTO-CI, AUTO-CI UHF-CCSDT 
  Emily Kempfer          : AUTO-CI, RHF CISDT and CCSDT                  
  Christian Kollmar      : KDIIS, OOCD, Brueckner-CCSD(T), CCSD density, CASPT2, CASPT2-K, improved NEVPT2 
  Axel Koslowski         : Symmetry handling                             
  Simone Kossmann        : meta-GGA functionals, TD-DFT gradient, OOMP2, (MP2 Hessian; deprecated post 5.0) 
  Lucas Lang             : DCDCAS                                        
  Marvin Lechner         : AUTO-CI (C++ implementation), FIC-MRCC        
  Spencer Leger          : CASSCF response                               
  Dagmar Lenk            : GEPOL surface, SMD, ORCA-2-JSON               
  Dimitrios Liakos       : Extrapolation schemes; Compound Job, initial MDCI parallelization 
  Dimitrios Manganas     : Further ROCIS development; embedding schemes. LFT, Crystal Embedding 
  Dimitrios Pantazis     : SARC Basis sets                               
  Anastasios Papadopoulos: AUTO-CI, single reference methods and gradients 
  Taras Petrenko         : pre 6.0 DFT Hessian and TD-DFT gradient, (ASA, deprecated), ECA, 1-Electron XAS/XES, NRVS 
  Peter Pinski           : DLPNO-MP2, DLPNO-MP2 Gradient                 
  Christoph Reimann      : Effective Core Potentials                     
  Marius Retegan         : Local ZFS, SOC                                
  Christoph Riplinger    : Optimizer, TS searches, QM/MM, DLPNO-CCSD(T), (RO)-DLPNO pert. Triples 
  Michael Roemelt        : Original ROCIS implementation                 
  Masaaki Saitow         : Open-shell DLPNO-CCSD energy and density      
  Barbara Sandhoefer     : DKH picture change effects                    
  Kantharuban Sivalingam : CASSCF convergence/infrastructure, NEVPT2 and variants, FIC-MRCI 
  Bernardo de Souza      : ESD, SOC TD-DFT                               
  Georgi L. Stoychev     : AutoAux, RI-MP2 NMR, DLPNO-MP2 response, X2C  
  Van Anh Tran           : RI-MP2 g-tensors                              
  Willem Van den Heuvel  : Paramagnetic NMR                              
  Zikuan Wang            : NOTCH, Electric field optimization            
  Frank Wennmohs         : Technical directorship and infrastructure     
  Hang Xu                : AUTO-CI-Response properties                   
                                                                         
[FACCTs GmbH]                                                            
  Markus Bursch, Miquel Garcia-Rates, Christoph Riplinger, Bernardo de Souza, Georgi L. Stoychev 
                                                                 
  APM, Basis sets (HGBS, AHGBS, def-TZVP (Ac-Lr), def2-XVPD (La-Lu)), CI-OPT, improved COSX, DLPNO-Multilevel,           
  DOCKER, DRACO, updates on ESD, GOAT, IRC, LR-CPCM, MBIS, meta-GGA TD-DFT gradient, ML-optimized integration grids, 
  MM, NACMEs, nearIR, NEB, NEB-TS, NL-DFT gradient (VV10), 2- and 3-layer-ONIOM, interface openCOSMO-RS, QMMM,   
  Crystal-QMMM, SF, symmetry and pop. for TD-DFT, r2SCAN hybrids, SOLVATOR                                   
                                                                         
[Other institutions]                                                     
  V. Asgeirsson          : NEB                                           
  Christoph Bannwarth    : sTDA-DFT, sTD-DFT, PBEh-3c, B97-3c, D3        
  Sebastian Ehlert       : rSCAN, r2SCAN, r2SCAN-3c, D4, dhf basis sets  
  Marvin Friede          : D4 for Fr, Ra, Ac-Lr                          
  Lars Goerigk           : TD-DFT with DH, B97 family of functionals     
  Stefan Grimme          : VdW corrections, initial TS optimization, DFT functionals, gCP, sTDA/sTD-DF 
  Waldemar Hujo          : DFT-NL                                        
  H. Jonsson             : NEB                                           
  Holger Kruse           : gCP                                           
  Marcel Mueller         : wB97X-3c, vDZP basis set                      
  Hagen Neugebauer       : wr2SCAN                                       
  Tobias Risthaus        : range-separated hybrid DFT                    
  Lukas Wittmann         : regularized MP2, r2SCAN double-hybrids, wr2SCAN        
                                                                         
We gratefully acknowledge several colleagues who have allowed us to      
interface, adapt or use parts of their codes:                            
  Ed Valeev, F. Pavosevic, A. Kumar             : LibInt (2-el integral package), F12 methods 
  Garnet Chan, S. Sharma, J. Yang, R. Olivares  : DMRG                   
  Ulf Ekstrom                                   : XCFun DFT Library      
  Mihaly Kallay                                 : mrcc  (arbitrary order and MRCC methods)
  Frank Weinhold                                : gennbo (NPA and NBO analysis)           
  Simon Mueller                                 : openCOSMO-RS                            
  Christopher J. Cramer and Donald G. Truhlar   : smd solvation model                     
  S Lehtola, MJT Oliveira, MAL Marques          : LibXC Library                           
  Liviu Ungur et al                             : ANISO software                          


 Your calculation uses the libint2 library for the computation of 2-el integrals
 For citations please refer to: http://libint.valeyev.net

 Your ORCA version has been built with support for libXC version: 6.2.2
 For citations please refer to: https://libxc.gitlab.io

 This ORCA versions uses:
   CBLAS   interface :  Fast vector & matrix operations
   LAPACKE interface :  Fast linear algebra routines
   SCALAPACK package :  Parallel linear algebra routines
   Shared memory     :  Shared parallel matrices
   BLAS/LAPACK       :  OpenBLAS 0.3.27  USE64BITINT DYNAMIC_ARCH NO_AFFINITY SkylakeX SINGLE_THREADED
        Core in use  :  SkylakeX
   Copyright (c) 2011-2014, The OpenBLAS Project


Your calculation utilizes the atom-pairwise dispersion correction
based on EEQ partial charges (D4)


================================================================================

cite the ECPs for C  [vDZP-ECP], O  [vDZP-ECP] as follows:
   B-Ne (ecp-2-mwb), Al-Ar (ecp-10-mwb), Ga-Kr (ecp-28-mwb), Y-Cd (ecp-28-mwb), In-Xe (ecp-46-mwb):
     A. Bergner, M. Dolg, W. Küchle, H. Stoll, and H. Preuß, Mol. Phys. 80, 1431 (1993)., T. Leininger, A. Berning, A. Nicklass, H. Stoll, H.-J. Werner, and H.-J.Flad, Chem. Phys. 217, 19 (1997).
   Na-Mg, K-Ca, Rb-Sr, Cs-Ba (CRENBL):
     L. Fernandez Pacios and P. A. Christiansen, J. Chem. Phys. 82, 2664 (1985)., M. M. Hurley, L. F. Pacios, P. A. Christiansen, R. B. Ross, and W. C. Ermler, J. Chem. Phys. 84, 6840 (1986)., L. A. LaJohn, P. A. Christiansen, R. B. Ross, T. Atashroo, and W. C. Ermler, J. Chem. Phys. 87, 2812 (1987)., R. B. Ross, J. M. Powers, T. Atashroo, W. C. Ermler, L. A. LaJohn, and P. A. Christiansen, J. Chem. Phys. 93, 6654 (1990). 
   Sc-Zn (ecp-10-mdf):
     M. Dolg, U. Wedig, H. Stoll, and H. Preuss, J. Chem. Phys. 86, 866 (1986). 
   Y-Cd (ecp-28-mwb), Hf-Hg (ecp-60-mwb):
     D. Andrae, U. Häußermann, M. Dolg, H. Stoll, and H. Preuß, Theor. Chim. Acta 77, 123 (1990). 
   La (ecp-46-mwb):
     M. Dolg, H. Stoll, and H. Preuss, J. Chem. Phys. 90, 1730 (1989)., M. Dolg, H. Stoll, and H. Preuss, Theor. Chim. Acta 85, 441 (1993).
   Ce-Lu (SBKJC-ecp):
     T. R. Cundari and W. J. Stevens, J. Chem. Phys. 98, 5555 (1993).
   Tl-Rn (ecp-78-mwb):
     W. Küchle, M. Dolg, H. Stoll, and H. Preuss, Mol. Phys. 74, 1245 (1991).

ECP parameters for C  [vDZP-ECP], O  [vDZP-ECP] have been obtained from:
MM, AH, SG, J. Chem. Phys. 158, 014103 (2023), 10.1063/5.0133026

----- Orbital basis set information -----
Your calculation utilizes the basis: vDZP
   Marcel Mueller, Andreas Hansen, Stefan Grimme 
   J. Chem. Phys. 158, 014103 (2023). DOI: 10.1063/5.0133026

----- AuxJ basis set information -----
Your calculation utilizes the auxiliary basis: def2/J
   F. Weigend, Phys. Chem. Chem. Phys. 8, 1057 (2006).

================================================================================
                                        WARNINGS
                       Please study these warnings very carefully!
================================================================================

WARNING: Frozen-Core approximation turned on, but there are no core electrons.
  ===> : Turning off frozen-core approximation


WARNING: Geometry Optimization
  ===> : Switching off AutoStart
         For restart on a previous wavefunction, please use MOREAD

================================================================================
                                       INPUT FILE
================================================================================
NAME = ./output/3_decanone/3_decanone.inp
|  1> ! wB97X-3c OPT FREQ TightSCF
|  2> %pal
|  3>   nprocs 40
|  4> end
|  5> * xyz 0 1
|  6> C      4.317776     1.829604    -0.786576
|  7> C      3.656471     0.708886     0.010313
|  8> C      2.162161     0.605124    -0.315309
|  9> C      1.501137    -0.521633     0.487399
| 10> C      0.006736    -0.625523     0.161380
| 11> C     -0.659962    -1.741085     0.978631
| 12> C     -2.124802    -1.965387     0.575560
| 13> C     -2.995862    -0.770709     0.877956
| 14> O     -3.066959    -0.354011     2.024931
| 15> C     -3.821022    -0.113399    -0.198138
| 16> C     -3.351024     1.313442    -0.462117
| 17> H      5.397054     1.880811    -0.530639
| 18> H      3.848044     2.806136    -0.541978
| 19> H      4.219914     1.637851    -1.876412
| 20> H      4.161039    -0.251504    -0.233442
| 21> H      3.790697     0.911832     1.095280
| 22> H      1.665086     1.570425    -0.072753
| 23> H      2.035516     0.405632    -1.402430
| 24> H      1.627139    -0.321980     1.574565
| 25> H      1.998852    -1.486504     0.244855
| 26> H     -0.481280     0.344004     0.398219
| 27> H     -0.120082    -0.833678    -0.923935
| 28> H     -0.600981    -1.500356     2.062961
| 29> H     -0.108543    -2.692712     0.813942
| 30> H     -2.172170    -2.228460    -0.503164
| 31> H     -2.519198    -2.835497     1.143019
| 32> H     -3.764476    -0.689411    -1.146367
| 33> H     -4.884856    -0.096093     0.122371
| 34> H     -4.009843     1.785763    -1.220916
| 35> H     -3.394580     1.917562     0.469197
| 36> H     -2.311983     1.310870    -0.852839
| 37> *
| 38> 
| 39>                          ****END OF INPUT****
================================================================================

                       *****************************
                       * Geometry Optimization Run *
                       *****************************

Geometry optimization settings:
Update method            Update   .... BFGS
Choice of coordinates    CoordSys .... (2022) Redundant Internals
Initial Hessian          InHess   .... Almloef's Model
Max. no of cycles        MaxIter  .... 93

Convergence Tolerances:
Energy Change            TolE     ....  5.0000e-06 Eh
Max. Gradient            TolMAXG  ....  3.0000e-04 Eh/bohr
RMS Gradient             TolRMSG  ....  1.0000e-04 Eh/bohr
Max. Displacement        TolMAXD  ....  4.0000e-03 bohr
RMS Displacement         TolRMSD  ....  2.0000e-03 bohr
Strict Convergence                .... False

------------------------------------------------------------------------------
                        ORCA OPTIMIZATION COORDINATE SETUP
------------------------------------------------------------------------------

The optimization will be done in redundant internal coordinates (2022)
Making redundant internal coordinates   ...  (2022 redundants) done
Evaluating the initial hessian          ...  (Almloef) done
Evaluating the coordinates              ...  done
Calculating the B-matrix                .... done
Calculating the G-matrix                .... done
Diagonalizing the G-matrix              .... done
Small eigenvalue found = 2.365e-03
Small eigenvalue found = 1.146e-02
Small eigenvalue found = 1.541e-02
Small eigenvalue found = 2.103e-02
The first mode is                       ....   52
The number of degrees of freedom        ....   87

    -----------------------------------------------------------------
                    Redundant Internal Coordinates


    -----------------------------------------------------------------
         Definition                    Initial Value    Approx d2E/dq
    -----------------------------------------------------------------
      1. B(C   1,C   0)                  1.5259         0.379247   
      2. B(C   2,C   1)                  1.5329         0.369627   
      3. B(C   3,C   2)                  1.5333         0.369133   
      4. B(C   4,C   3)                  1.5331         0.369380   
      5. B(C   5,C   4)                  1.5352         0.366495   
      6. B(C   6,C   5)                  1.5358         0.365764   
      7. B(C   7,C   6)                  1.5091         0.403357   
      8. B(O   8,C   7)                  1.2224         1.035815   
      9. B(C   9,C   7)                  1.5070         0.406573   
     10. B(C  10,C   9)                  1.5253         0.380118   
     11. B(H  11,C   0)                  1.1104         0.334112   
     12. B(H  12,C   0)                  1.1109         0.333491   
     13. B(H  13,C   0)                  1.1109         0.333492   
     14. B(H  14,C   1)                  1.1119         0.332246   
     15. B(H  15,C   1)                  1.1119         0.332244   
     16. B(H  16,C   2)                  1.1125         0.331496   
     17. B(H  17,C   2)                  1.1125         0.331526   
     18. B(H  18,C   3)                  1.1125         0.331526   
     19. B(H  19,C   3)                  1.1124         0.331605   
     20. B(H  20,C   4)                  1.1110         0.333412   
     21. B(H  21,C   4)                  1.1123         0.331716   
     22. B(H  22,C   5)                  1.1123         0.331782   
     23. B(H  23,C   5)                  1.1121         0.332013   
     24. B(H  24,C   6)                  1.1113         0.332937   
     25. B(H  25,C   6)                  1.1111         0.333183   
     26. B(H  26,C   9)                  1.1109         0.333472   
     27. B(H  27,C   9)                  1.1112         0.333118   
     28. B(H  28,C  10)                  1.1104         0.334145   
     29. B(H  29,C  10)                  1.1109         0.333429   
     30. B(H  30,C  10)                  1.1101         0.334493   
     31. A(H  12,C   0,H  13)          109.2986         0.283946   
     32. A(H  11,C   0,H  13)          108.6453         0.284028   
     33. A(H  11,C   0,H  12)          108.6450         0.284028   
     34. A(C   1,C   0,H  11)          109.5568         0.321153   
     35. A(C   1,C   0,H  13)          110.3276         0.321056   
     36. A(C   1,C   0,H  12)          110.3277         0.321056   
     37. A(C   0,C   1,H  14)          108.8581         0.320859   
     38. A(C   2,C   1,H  15)          109.7129         0.319514   
     39. A(C   2,C   1,H  14)          109.7142         0.319515   
     40. A(H  14,C   1,H  15)          108.4680         0.283616   
     41. A(C   0,C   1,C   2)          111.1775         0.363628   
     42. A(C   0,C   1,H  15)          108.8574         0.320859   
     43. A(H  16,C   2,H  17)          108.5283         0.283421   
     44. A(C   1,C   2,H  16)          109.2995         0.319397   
     45. A(C   1,C   2,H  17)          109.3105         0.319402   
     46. A(C   1,C   2,C   3)          111.0269         0.361953   
     47. A(C   3,C   2,H  16)          109.3210         0.319327   
     48. A(C   3,C   2,H  17)          109.3132         0.319332   
     49. A(C   4,C   3,H  19)          109.3283         0.319379   
     50. A(C   2,C   3,H  19)          109.2907         0.319344   
     51. A(C   2,C   3,C   4)          111.0214         0.361911   
     52. A(C   2,C   3,H  18)          109.3231         0.319332   
     53. A(C   4,C   3,H  18)          109.2917         0.319367   
     54. A(H  18,C   3,H  19)          108.5448         0.283436   
     55. A(C   5,C   4,H  21)          109.5063         0.318988   
     56. A(H  20,C   4,H  21)          108.7373         0.283700   
     57. A(C   3,C   4,H  21)          109.3479         0.319397   
     58. A(C   5,C   4,H  20)          109.2623         0.319254   
     59. A(C   3,C   4,H  20)          108.8880         0.319663   
     60. A(C   3,C   4,C   5)          111.0605         0.361469   
     61. A(C   4,C   5,C   6)          112.3729         0.360863   
     62. A(H  22,C   5,H  23)          107.6539         0.283524   
     63. A(C   6,C   5,H  23)          108.0046         0.318931   
     64. A(C   4,C   5,H  23)          109.1253         0.319035   
     65. A(C   6,C   5,H  22)          109.7580         0.318895   
     66. A(C   4,C   5,H  22)          109.7953         0.318998   
     67. A(C   5,C   6,C   7)          112.4783         0.366824   
     68. A(H  24,C   6,H  25)          107.1702         0.283832   
     69. A(C   7,C   6,H  25)          108.2223         0.324266   
     70. A(C   5,C   6,H  25)          108.5958         0.319114   
     71. A(C   7,C   6,H  24)          110.9337         0.324227   
     72. A(C   5,C   6,H  24)          109.2676         0.319075   
     73. A(C   6,C   7,O   8)          119.4357         0.437742   
     74. A(O   8,C   7,C   9)          119.3071         0.438370   
     75. A(C   6,C   7,C   9)          121.2160         0.373556   
     76. A(H  26,C   9,H  27)          107.6380         0.283894   
     77. A(C  10,C   9,H  27)          109.2903         0.321117   
     78. A(C   7,C   9,H  27)          108.9687         0.324679   
     79. A(C  10,C   9,H  26)          108.7617         0.321173   
     80. A(C   7,C   9,H  26)          110.8228         0.324736   
     81. A(C   7,C   9,C  10)          111.2780         0.369760   
     82. A(H  29,C  10,H  30)          109.4523         0.284070   
     83. A(H  28,C  10,H  30)          108.4102         0.284165   
     84. A(C   9,C  10,H  30)          110.3143         0.321334   
     85. A(H  28,C  10,H  29)          108.5604         0.284024   
     86. A(C   9,C  10,H  29)          110.5808         0.321166   
     87. A(C   9,C  10,H  28)          109.4732         0.321279   
     88. D(H  14,C   1,C   0,H  12)   -178.5927         0.011465   
     89. D(C   2,C   1,C   0,H  12)     60.4361         0.011465   
     90. D(H  14,C   1,C   0,H  11)    -59.0277         0.011465   
     91. D(C   2,C   1,C   0,H  13)    -60.4337         0.011465   
     92. D(C   2,C   1,C   0,H  11)   -179.9989         0.011465   
     93. D(H  14,C   1,C   0,H  13)     60.5376         0.011465   
     94. D(H  16,C   2,C   1,H  15)     61.1547         0.010923   
     95. D(C   3,C   2,C   1,C   0)   -179.9866         0.010923   
     96. D(H  16,C   2,C   1,C   0)    -59.3107         0.010923   
     97. D(H  16,C   2,C   1,H  14)   -179.7778         0.010923   
     98. D(C   3,C   2,C   1,H  14)     59.5463         0.010923   
     99. D(C   3,C   2,C   1,H  15)    -59.5212         0.010923   
    100. D(C   4,C   3,C   2,H  16)     59.3511         0.010896   
    101. D(C   4,C   3,C   2,H  17)    -59.3140         0.010896   
    102. D(C   4,C   3,C   2,C   1)   -179.9857         0.010896   
    103. D(H  18,C   3,C   2,H  17)   -179.9653         0.010896   
    104. D(H  18,C   3,C   2,H  16)    -61.3003         0.010896   
    105. D(H  18,C   3,C   2,C   1)     59.3629         0.010896   
    106. D(H  20,C   4,C   3,H  19)   -179.5336         0.010909   
    107. D(H  20,C   4,C   3,C   2)    -58.8802         0.010909   
    108. D(H  20,C   4,C   3,H  18)     61.7897         0.010909   
    109. D(C   5,C   4,C   3,H  19)     60.1101         0.010909   
    110. D(C   5,C   4,C   3,H  18)    -58.5666         0.010909   
    111. D(C   5,C   4,C   3,C   2)   -179.2365         0.010909   
    112. D(H  22,C   5,C   4,H  21)   -175.8942         0.010750   
    113. D(H  22,C   5,C   4,H  20)    -56.8955         0.010750   
    114. D(H  22,C   5,C   4,C   3)     63.2389         0.010750   
    115. D(C   6,C   5,C   4,H  21)    -53.4365         0.010750   
    116. D(C   6,C   5,C   4,H  20)     65.5622         0.010750   
    117. D(C   6,C   5,C   4,C   3)   -174.3035         0.010750   
    118. D(C   7,C   6,C   5,C   4)    -64.8275         0.010710   
    119. D(H  24,C   6,C   5,H  23)    -61.5883         0.010710   
    120. D(H  24,C   6,C   5,H  22)   -178.6900         0.010710   
    121. D(H  24,C   6,C   5,C   4)     58.8312         0.010710   
    122. D(C   7,C   6,C   5,H  23)    174.7529         0.010710   
    123. D(C   7,C   6,C   5,H  22)     57.6513         0.010710   
    124. D(C   9,C   7,C   6,H  24)      1.7949         0.012066   
    125. D(C   9,C   7,C   6,C   5)    124.5216         0.012066   
    126. D(O   8,C   7,C   6,H  25)     62.1404         0.012066   
    127. D(O   8,C   7,C   6,H  24)    179.4436         0.012066   
    128. D(O   8,C   7,C   6,C   5)    -57.8298         0.012066   
    129. D(H  27,C   9,C   7,C   6)    124.1704         0.012251   
    130. D(H  26,C   9,C   7,O   8)   -171.7438         0.012251   
    131. D(H  26,C   9,C   7,C   6)      5.9078         0.012251   
    132. D(C  10,C   9,C   7,O   8)     67.0986         0.012251   
    133. D(C  10,C   9,C   7,C   6)   -115.2498         0.012251   
    134. D(H  29,C  10,C   9,H  27)     62.7978         0.011515   
    135. D(H  29,C  10,C   9,H  26)   -179.9485         0.011515   
    136. D(H  29,C  10,C   9,C   7)    -57.5926         0.011515   
    137. D(H  28,C  10,C   9,H  27)    -56.7669         0.011515   
    138. D(H  28,C  10,C   9,H  26)     60.4868         0.011515   
    139. D(H  28,C  10,C   9,C   7)   -177.1572         0.011515   
    -----------------------------------------------------------------

Number of atoms                         .... 31
Number of degrees of freedom            .... 139


         *************************************************************
         *                GEOMETRY OPTIMIZATION CYCLE   1            *
         *************************************************************
---------------------------------
CARTESIAN COORDINATES (ANGSTROEM)
---------------------------------
  C      4.317776    1.829604   -0.786576
  C      3.656471    0.708886    0.010313
  C      2.162161    0.605124   -0.315309
  C      1.501137   -0.521633    0.487399
  C      0.006736   -0.625523    0.161380
  C     -0.659962   -1.741085    0.978631
  C     -2.124802   -1.965387    0.575560
  C     -2.995862   -0.770709    0.877956
  O     -3.066959   -0.354011    2.024931
  C     -3.821022   -0.113399   -0.198138
  C     -3.351024    1.313442   -0.462117
  H      5.397054    1.880811   -0.530639
  H      3.848044    2.806136   -0.541978
  H      4.219914    1.637851   -1.876412
  H      4.161039   -0.251504   -0.233442
  H      3.790697    0.911832    1.095280
  H      1.665086    1.570425   -0.072753
  H      2.035516    0.405632   -1.402430
  H      1.627139   -0.321980    1.574565
  H      1.998852   -1.486504    0.244855
  H     -0.481280    0.344004    0.398219
  H     -0.120082   -0.833678   -0.923935
  H     -0.600981   -1.500356    2.062961
  H     -0.108543   -2.692712    0.813942
  H     -2.172170   -2.228460   -0.503164
  H     -2.519198   -2.835497    1.143019
  H     -3.764476   -0.689411   -1.146367
  H     -4.884856   -0.096093    0.122371
  H     -4.009843    1.785763   -1.220916
  H     -3.394580    1.917562    0.469197
  H     -2.311983    1.310870   -0.852839

----------------------------
CARTESIAN COORDINATES (A.U.)
----------------------------
  NO LB      ZA    FRAG     MASS         X           Y           Z
   0 C     4.0000*   0    12.011    8.159414    3.457450   -1.486413
   1 C     4.0000*   0    12.011    6.909729    1.339600    0.019489
   2 C     4.0000*   0    12.011    4.085892    1.143519   -0.595848
   3 C     4.0000*   0    12.011    2.836738   -0.985744    0.921051
   4 C     4.0000*   0    12.011    0.012729   -1.182067    0.304964
   5 C     4.0000*   0    12.011   -1.247147   -3.290174    1.849345
   6 C     4.0000*   0    12.011   -4.015294   -3.714043    1.087651
   7 C     4.0000*   0    12.011   -5.661359   -1.456429    1.659096
   8 O     6.0000*   0    15.999   -5.795713   -0.668984    3.826565
   9 C     4.0000*   0    12.011   -7.220685   -0.214293   -0.374427
  10 C     4.0000*   0    12.011   -6.332518    2.482046   -0.873275
  11 H     1.0000    0     1.008   10.198954    3.554218   -1.002762
  12 H     1.0000    0     1.008    7.271749    5.302829   -1.024190
  13 H     1.0000    0     1.008    7.974482    3.095090   -3.545905
  14 H     1.0000    0     1.008    7.863224   -0.475274   -0.441141
  15 H     1.0000    0     1.008    7.163379    1.723113    2.069779
  16 H     1.0000    0     1.008    3.146557    2.967673   -0.137483
  17 H     1.0000    0     1.008    3.846568    0.766533   -2.650209
  18 H     1.0000    0     1.008    3.074847   -0.608454    2.975497
  19 H     1.0000    0     1.008    3.777283   -2.809085    0.462709
  20 H     1.0000    0     1.008   -0.909487    0.650073    0.752525
  21 H     1.0000    0     1.008   -0.226922   -1.575423   -1.745984
  22 H     1.0000    0     1.008   -1.135690   -2.835262    3.898431
  23 H     1.0000    0     1.008   -0.205117   -5.088488    1.538127
  24 H     1.0000    0     1.008   -4.104806   -4.211179   -0.950842
  25 H     1.0000    0     1.008   -4.760594   -5.358313    2.159993
  26 H     1.0000    0     1.008   -7.113829   -1.302798   -2.166320
  27 H     1.0000    0     1.008   -9.231040   -0.181589    0.231248
  28 H     1.0000    0     1.008   -7.577505    3.374603   -2.307197
  29 H     1.0000    0     1.008   -6.414827    3.623667    0.886654
  30 H     1.0000    0     1.008   -4.369015    2.477185   -1.611632
* core charge reduced due to ECP

--------------------------------
INTERNAL COORDINATES (ANGSTROEM)
--------------------------------
 C      0   0   0     0.000000000000     0.00000000     0.00000000
 C      1   0   0     1.525898167267     0.00000000     0.00000000
 C      2   1   0     1.532892238753   111.17752760     0.00000000
 C      3   2   1     1.533256077402   111.02694771   180.01336941
 C      4   3   2     1.533073993407   111.02135192   180.01425948
 C      5   4   3     1.535208127926   111.06051266   180.76351805
 C      6   5   4     1.535751882253   112.37291214   185.69654882
 C      7   6   5     1.509120402122   112.47825994   295.17248845
 O      8   7   6     1.222392595379   119.43571802   302.17022982
 C      8   7   6     1.506958446188   121.21601206   124.52156233
 C     10   8   7     1.525273179377   111.27801211   244.75022104
 H      1   2   3     1.110390429580   109.55683168   180.00109817
 H      1   2   3     1.110896521037   110.32766593    60.43608516
 H      1   2   3     1.110895445552   110.32758691   299.56634493
 H      2   1   3     1.111914708397   108.85812985   120.97122866
 H      2   1   3     1.111915954144   108.85744300   239.03078696
 H      3   2   1     1.112529994815   109.29948510   300.68928472
 H      3   2   1     1.112505318068   109.31047048    59.34004439
 H      4   3   2     1.112505162221   109.32311388    59.36294793
 H      4   3   2     1.112440497196   109.29066368   300.68990536
 H      5   4   3     1.110961264809   108.88797740   301.11983847
 H      5   4   3     1.112348847428   109.34788627    59.80329209
 H      6   5   4     1.112295265971   109.79531633    63.23886228
 H      6   5   4     1.112105807651   109.12532584   305.46664599
 H      7   6   5     1.111348999608   109.26760613    58.83124618
 H      7   6   5     1.111147755070   108.59578236   175.41879310
 H     10   8   7     1.110912017534   110.82276088     5.90782725
 H     10   8   7     1.111201285219   108.96873193   124.17039266
 H     11  10   8     1.110362789454   109.47318808   182.84279537
 H     11  10   8     1.110947283237   110.58084220   302.40744786
 H     11  10   8     1.110079499923   110.31433049    63.62731284

---------------------------
INTERNAL COORDINATES (A.U.)
---------------------------
 C      0   0   0     0.000000000000     0.00000000     0.00000000
 C      1   0   0     2.883529644388     0.00000000     0.00000000
 C      2   1   0     2.896746524056   111.17752760     0.00000000
 C      3   2   1     2.897434079459   111.02694771   180.01336941
 C      4   3   2     2.897089990577   111.02135192   180.01425948
 C      5   4   3     2.901122920349   111.06051266   180.76351805
 C      6   5   4     2.902150467113   112.37291214   185.69654882
 C      7   6   5     2.851824263123   112.47825994   295.17248845
 O      8   7   6     2.309987233400   119.43571802   302.17022982
 C      8   7   6     2.847738758494   121.21601206   124.52156233
 C     10   8   7     2.882348588437   111.27801211   244.75022104
 H      1   2   3     2.098333813633   109.55683168   180.00109817
 H      1   2   3     2.099290187886   110.32766593    60.43608516
 H      1   2   3     2.099288155514   110.32758691   299.56634493
 H      2   1   3     2.101214283149   108.85812985   120.97122866
 H      2   1   3     2.101216637271   108.85744300   239.03078696
 H      3   2   1     2.102377005972   109.29948510   300.68928472
 H      3   2   1     2.102330373680   109.31047048    59.34004439
 H      4   3   2     2.102330079172   109.32311388    59.36294793
 H      4   3   2     2.102207879984   109.29066368   300.68990536
 H      5   4   3     2.099412535884   108.88797740   301.11983847
 H      5   4   3     2.102034687022   109.34788627    59.80329209
 H      6   5   4     2.101933432743   109.79531633    63.23886228
 H      6   5   4     2.101575408404   109.12532584   305.46664599
 H      7   6   5     2.100145248466   109.26760613    58.83124618
 H      7   6   5     2.099764951404   108.59578236   175.41879310
 H     10   8   7     2.099319472021   110.82276088     5.90782725
 H     10   8   7     2.099866108726   108.96873193   124.17039266
 H     11  10   8     2.098281581364   109.47318808   182.84279537
 H     11  10   8     2.099386114542   110.58084220   302.40744786
 H     11  10   8     2.097746241734   110.31433049    63.62731284

---------------------
BASIS SET INFORMATION
---------------------
There are 3 groups of distinct atoms

 Group   1 Type C   : 6s6p2d contracted to 2s2p1d pattern {42/42/2}
 Group   2 Type O   : 6s6p2d contracted to 2s2p1d pattern {42/42/2}
 Group   3 Type H   : 8s2p contracted to 2s1p pattern {53/2}

Atom   0C    basis set group =>   1
Atom   1C    basis set group =>   1
Atom   2C    basis set group =>   1
Atom   3C    basis set group =>   1
Atom   4C    basis set group =>   1
Atom   5C    basis set group =>   1
Atom   6C    basis set group =>   1
Atom   7C    basis set group =>   1
Atom   8O    basis set group =>   2
Atom   9C    basis set group =>   1
Atom  10C    basis set group =>   1
Atom  11H    basis set group =>   3
Atom  12H    basis set group =>   3
Atom  13H    basis set group =>   3
Atom  14H    basis set group =>   3
Atom  15H    basis set group =>   3
Atom  16H    basis set group =>   3
Atom  17H    basis set group =>   3
Atom  18H    basis set group =>   3
Atom  19H    basis set group =>   3
Atom  20H    basis set group =>   3
Atom  21H    basis set group =>   3
Atom  22H    basis set group =>   3
Atom  23H    basis set group =>   3
Atom  24H    basis set group =>   3
Atom  25H    basis set group =>   3
Atom  26H    basis set group =>   3
Atom  27H    basis set group =>   3
Atom  28H    basis set group =>   3
Atom  29H    basis set group =>   3
Atom  30H    basis set group =>   3
---------------------------------
AUXILIARY/J BASIS SET INFORMATION
---------------------------------
There are 3 groups of distinct atoms

 Group   1 Type C   : 12s5p4d2f1g contracted to 6s4p3d1f1g pattern {711111/2111/211/2/1}
 Group   2 Type O   : 12s5p4d2f1g contracted to 6s4p3d1f1g pattern {711111/2111/211/2/1}
 Group   3 Type H   : 5s2p1d contracted to 3s1p1d pattern {311/2/1}

Atom   0C    basis set group =>   1
Atom   1C    basis set group =>   1
Atom   2C    basis set group =>   1
Atom   3C    basis set group =>   1
Atom   4C    basis set group =>   1
Atom   5C    basis set group =>   1
Atom   6C    basis set group =>   1
Atom   7C    basis set group =>   1
Atom   8O    basis set group =>   2
Atom   9C    basis set group =>   1
Atom  10C    basis set group =>   1
Atom  11H    basis set group =>   3
Atom  12H    basis set group =>   3
Atom  13H    basis set group =>   3
Atom  14H    basis set group =>   3
Atom  15H    basis set group =>   3
Atom  16H    basis set group =>   3
Atom  17H    basis set group =>   3
Atom  18H    basis set group =>   3
Atom  19H    basis set group =>   3
Atom  20H    basis set group =>   3
Atom  21H    basis set group =>   3
Atom  22H    basis set group =>   3
Atom  23H    basis set group =>   3
Atom  24H    basis set group =>   3
Atom  25H    basis set group =>   3
Atom  26H    basis set group =>   3
Atom  27H    basis set group =>   3
Atom  28H    basis set group =>   3
Atom  29H    basis set group =>   3
Atom  30H    basis set group =>   3
-------------------------
ECP PARAMETER INFORMATION
-------------------------

 Group 1, Type C  ECP vDZP-ECP (replacing 2 core electrons, lmax=3)
 Group 2, Type O  ECP vDZP-ECP (replacing 2 core electrons, lmax=3)

Atom   0C    ECP group =>   1
Atom   1C    ECP group =>   1
Atom   2C    ECP group =>   1
Atom   3C    ECP group =>   1
Atom   4C    ECP group =>   1
Atom   5C    ECP group =>   1
Atom   6C    ECP group =>   1
Atom   7C    ECP group =>   1
Atom   8O    ECP group =>   2
Atom   9C    ECP group =>   1
Atom  10C    ECP group =>   1



           ************************************************************
           *        Program running with 40 parallel MPI-processes    *
           *              working on a common directory               *
           ************************************************************
------------------------------------------------------------------------------
                             ORCA STARTUP CALCULATIONS
                           -- RI-GTO INTEGRALS CHOSEN --
------------------------------------------------------------------------------
------------------------------------------------------------------------------
                   ___                                                        
                  /   \      - P O W E R E D   B Y -                         
                 /     \                                                     
                 |  |  |   _    _      __       _____    __    __             
                 |  |  |  | |  | |    /  \     |  _  \  |  |  /  |          
                  \  \/   | |  | |   /    \    | | | |  |  | /  /          
                 / \  \   | |__| |  /  /\  \   | |_| |  |  |/  /          
                |  |  |   |  __  | /  /__\  \  |    /   |      \           
                |  |  |   | |  | | |   __   |  |    \   |  |\   \          
                \     /   | |  | | |  |  |  |  | |\  \  |  | \   \       
                 \___/    |_|  |_| |__|  |__|  |_| \__\ |__|  \__/        
                                                                              
                      - O R C A' S   B I G   F R I E N D -                    
                                      &                                       
                       - I N T E G R A L  F E E D E R -                       
                                                                              
 v1 FN, 2020, v2 2021, v3 2022-2024                                           
------------------------------------------------------------------------------


----------------------
SHARK INTEGRAL PACKAGE
----------------------

Number of atoms                             ...     31
Number of basis functions                   ...    243
Number of shells                            ...    115
Maximum angular momentum                    ...      2
Integral batch strategy                     ... SHARK/LIBINT Hybrid
RI-J (if used) integral strategy            ... SPLIT-RIJ (Revised 2003 algorithm where possible)
Printlevel                                  ...      1
Contraction scheme used                     ... SEGMENTED contraction
Prescreening option                         ... SCHWARTZ
   Thresh                                   ... 2.500e-11
   Tcut                                     ... 2.500e-12
   Tpresel                                  ... 2.500e-12 
Coulomb Range Separation                    ... NOT USED
Exchange Range Separation                   ... Long Range
   Mu parameter                             ... 3.000e-01
   Scaling (regular/separated)              ... 1.670e-01 8.330e-01
Multipole approximations                    ... NOT USED
Finite Nucleus Model                        ... NOT USED
CABS basis                                  ... NOT available
Auxiliary Coulomb fitting basis             ... AVAILABLE
   # of basis functions in Aux-J            ...    759
   # of shells in Aux-J                     ...    265
   Maximum angular momentum in Aux-J        ...      4
Auxiliary J/K fitting basis                 ... NOT available
Auxiliary Correlation fitting basis         ... NOT available
Auxiliary 'external' fitting basis          ... NOT available

Checking pre-screening integrals            ... done (  0.0 sec) Dimension = 115
Check shell pair data                       ... done (  0.0 sec)
Shell pair information
Shell pair cut-off parameter TPreSel        ...   2.5e-12
Total number of shell pairs                 ...      6670
Shell pairs after pre-screening             ...      6433
Total number of primitive shell pairs       ...     63280
Primitive shell pairs kept                  ...     46069
          la=0 lb=0:   1920 shell pairs
          la=1 lb=0:   2512 shell pairs
          la=1 lb=1:    836 shell pairs
          la=2 lb=0:    665 shell pairs
          la=2 lb=1:    435 shell pairs
          la=2 lb=2:     65 shell pairs

Calculating one electron integrals          ... done (  0.0 sec)
Calculating ECP integrals                   ... done (  0.1 sec)
Calculating RI/J V-Matrix + Cholesky decomp.... done (  0.0 sec)
Calculating Nuclear repulsion               ... done (  0.0 sec) ENN=    345.909302888179 Eh

Diagonalization of the overlap matrix:
Smallest eigenvalue                        ... 1.511e-03
Time for diagonalization                   ...    0.008 sec
Threshold for overlap eigenvalues          ... 1.000e-07
Number of eigenvalues below threshold      ... 0
Time for construction of square roots      ...    0.005 sec
Total time needed                          ...    0.016 sec

-------------------
DFT GRID GENERATION
-------------------

General Integration Accuracy     IntAcc      ... 4.388
Radial Grid Type                 RadialGrid  ... OptM3 with GC (2021)
Angular Grid (max. ang.)         AngularGrid ... 4 (Lebedev-302)
Angular grid pruning method      GridPruning ... 4 (adaptive)
Weight generation scheme         WeightScheme... mBecke (2022)
Basis function cutoff            BFCut       ... 1.0000e-11
Integration weight cutoff        WCut        ... 1.0000e-14
Partially contracted basis set               ... off
Rotationally invariant grid construction     ... off
Angular grids for H and He will be reduced by one unit

Total number of grid points                  ...   129778
Total number of batches                      ...     2044
Average number of points per batch           ...       63
Average number of grid points per atom       ...     4186

--------------------
COSX GRID GENERATION
--------------------

GRIDX 1
-------
General Integration Accuracy     IntAcc      ... 3.816
Radial Grid Type                 RadialGrid  ... OptM3 with GC (2021)
Angular Grid (max. ang.)         AngularGrid ... 1 (Lebedev-50)
Angular grid pruning method      GridPruning ... 4 (adaptive)
Weight generation scheme         WeightScheme... mBecke (2022)
Basis function cutoff            BFCut       ... 1.0000e-11
Integration weight cutoff        WCut        ... 1.0000e-14
Partially contracted basis set               ... on
Rotationally invariant grid construction     ... off
Angular grids for H and He will be reduced by one unit

Total number of grid points                  ...    16651
Total number of batches                      ...      153
Average number of points per batch           ...      108
Average number of grid points per atom       ...      537
UseSFitting                                  ... on

GRIDX 2
-------
General Integration Accuracy     IntAcc      ... 4.020
Radial Grid Type                 RadialGrid  ... OptM3 with GC (2021)
Angular Grid (max. ang.)         AngularGrid ... 2 (Lebedev-110)
Angular grid pruning method      GridPruning ... 4 (adaptive)
Weight generation scheme         WeightScheme... mBecke (2022)
Basis function cutoff            BFCut       ... 1.0000e-11
Integration weight cutoff        WCut        ... 1.0000e-14
Partially contracted basis set               ... on
Rotationally invariant grid construction     ... off
Angular grids for H and He will be reduced by one unit

Total number of grid points                  ...    34461
Total number of batches                      ...      288
Average number of points per batch           ...      119
Average number of grid points per atom       ...     1112
UseSFitting                                  ... on

GRIDX 3
-------
General Integration Accuracy     IntAcc      ... 4.338
Radial Grid Type                 RadialGrid  ... OptM3 with GC (2021)
Angular Grid (max. ang.)         AngularGrid ... 3 (Lebedev-194)
Angular grid pruning method      GridPruning ... 4 (adaptive)
Weight generation scheme         WeightScheme... mBecke (2022)
Basis function cutoff            BFCut       ... 1.0000e-11
Integration weight cutoff        WCut        ... 1.0000e-14
Partially contracted basis set               ... on
Rotationally invariant grid construction     ... off
Angular grids for H and He will be reduced by one unit

Total number of grid points                  ...    74908
Total number of batches                      ...      602
Average number of points per batch           ...      124
Average number of grid points per atom       ...     2416
UseSFitting                                  ... on
Initializing property integral containers    ... done (  0.0 sec)

SHARK setup successfully completed in   4.0 seconds

Maximum memory used throughout the entire STARTUP-calculation: 39.8 MB


           ************************************************************
           *        Program running with 40 parallel MPI-processes    *
           *              working on a common directory               *
           ************************************************************
-------------------------------------------------------------------------------
                                 ORCA GUESS
                   Start orbitals & Density for SCF / CASSCF
-------------------------------------------------------------------------------

------------
SCF SETTINGS
------------
Hamiltonian:
 Density Functional     Method          .... DFT(GTOs)
 Exchange Functional    Exchange        .... WB97X-V
 Correlation Functional Correlation     .... WB97X-V
 Gradients option       PostSCFGGA      .... off
 Hybrid DFT is turned on
   Fraction HF Exchange ScalHFX         ....  0.167000
   Scaling of DF-GGA-X  ScalDFX         ....  0.000000
   Scaling of DF-GGA-C  ScalDFC         ....  1.000000
   Scaling of DF-LDA-C  ScalLDAC        ....  1.000000
   Perturbative correction              ....  0.000000
 Long-range corrected/Screened/Range-Separated Hybrid DFT is turned on
   Amount of maximum screened exact exchange              ....  0.833000
   Range separation parameter mu (erf(mu*r12)/r12)        ....  0.300000
   NL short-range parameter             ....  6.000000
   NL long-range parameter              ....  0.010000
 RI-approximation to the Coulomb term is turned on
   Number of AuxJ basis functions       .... 759
   RIJ-COSX (HFX calculated with COS-X)).... on


General Settings:
 Integral files         IntName         .... ./output/3_decanone/3_decanone
 Hartree-Fock type      HFTyp           .... RHF
 Total Charge           Charge          ....    0
 Multiplicity           Mult            ....    1
 Number of Electrons    NEL             ....   66
 Basis Dimension        Dim             ....  243
 Nuclear Repulsion      ENuc            ....    345.9093028882 Eh

Convergence Acceleration:
 AO-DIIS                CNVDIIS         .... on
   Start iteration      DIISMaxIt       ....    12
   Startup error        DIISStart       ....  0.200000
   # of expansion vecs  DIISMaxEq       ....     5
   Bias factor          DIISBfac        ....   1.050
   Max. coefficient     DIISMaxC        ....  10.000
 MO-DIIS                CNVKDIIS        .... off
 Trust-Rad. Augm. Hess. CNVTRAH         .... auto
   Auto Start mean grad. ratio tolernc. ....  1.125000
   Auto Start start iteration           ....    50
   Auto Start num. interpolation iter.  ....    10
   Max. Number of Micro iterations      ....    24
   Max. Number of Macro iterations      .... Maxiter - #DIIS iter
   Number of Davidson start vectors     ....     2
   Converg. threshold    (grad. norm)   ....   1.000e-05
   Grad. Scal. Fac. for Micro threshold ....   0.100
   Minimum threshold for Micro iter.    ....   1.000e-02
   NR start threshold (gradient norm)   ....   1.000e-04
   Initial trust radius                 ....   0.400
   Minimum AH scaling param. (alpha)    ....   1.000
   Maximum AH scaling param. (alpha)    .... 1000.000
   Quad. conv. algorithm                .... NR
   White noise on init. David. guess    .... on
   Maximum white noise                  ....   0.010
   Pseudo random numbers                .... off
   Inactive MOs                         .... canonical
   Orbital update algorithm             .... Taylor
   Preconditioner                       .... Diag
   Full preconditioner red. dimension   ....   250
 SOSCF                  CNVSOSCF        .... on
   Start iteration      SOSCFMaxIt      ....   150
   Startup grad/error   SOSCFStart      ....  0.003300
   Hessian update       SOSCFHessUp     .... L-BFGS
 Level Shifting         CNVShift        .... on
   Level shift para.    LevelShift      ....    0.2500
   Turn off err/grad.   ShiftErr        ....    0.0010
 Zerner damping         CNVZerner       .... off
 Static damping         CNVDamp         .... on
   Fraction old density DampFac         ....    0.7000
   Max. Damping (<1)    DampMax         ....    0.9800
   Min. Damping (>=0)   DampMin         ....    0.0000
   Turn off err/grad.   DampErr         ....    0.1000

SCF Procedure:
 Maximum # iterations   MaxIter         ....   125
 SCF integral mode      SCFMode         .... Direct
   Integral package                     .... SHARK and LIBINT hybrid scheme
 Reset frequency        DirectResetFreq ....    20
 Integral Threshold     Thresh          ....  2.500e-11 Eh
 Primitive CutOff       TCut            ....  2.500e-12 Eh

Convergence Tolerance:
 Convergence Check Mode ConvCheckMode   .... Total+1el-Energy
 Convergence forced     ConvForced      .... 0
 Energy Change          TolE            ....  1.000e-08 Eh
 1-El. energy change                    ....  1.000e-05 Eh
 Orbital Gradient       TolG            ....  1.000e-05
 Orbital Rotation angle TolX            ....  1.000e-05
 DIIS Error             TolErr          ....  5.000e-07

------------------------------
INITIAL GUESS: MODEL POTENTIAL
------------------------------
Loading Hartree-Fock densities                     ... done
Atomic calculation to generate a density for atom 0 (C  with ECP)
  Multiplicity assumed   :    1
  Atomic configuration   : 1s2 2s2 2p2 
  Number of open shells  : 1
  Command: /home/aspe232/Project/Software/ORCA/6_0_1/build/orca ./output/3_decanone/3_decanone_atom6.inp "" > ./output/3_decanone/3_decanone_atom6.out
Returned from the atomic calculation with res=0
Atomic calculation to generate a density for atom 8 (O  with ECP)
  Multiplicity assumed   :    3
  Atomic configuration   : 1s2 2s2 2p4 
  Number of open shells  : 1
  Command: /home/aspe232/Project/Software/ORCA/6_0_1/build/orca ./output/3_decanone/3_decanone_atom8.inp "" > ./output/3_decanone/3_decanone_atom8.out
Returned from the atomic calculation with res=0
Calculating cut-offs                               ... done
Initializing the effective Hamiltonian             ... done
Setting up the integral package (SHARK)            ... done
Starting the Coulomb interaction                   ... done (   0.1 sec)
Making the grid                                    ... done (   1.0 sec)
Mapping shells                                     ... done
Starting the XC term evaluation                    ... done (   0.1 sec)
  promolecular density results
     # of electrons  =     87.991978430
     EX              =    -43.118787772
     EC              =     -3.499676690
     EX+EC           =    -46.618464462
Transforming the Hamiltonian                       ... done (   0.0 sec)
Diagonalizing the Hamiltonian                      ... done (   0.0 sec)
Back transforming the eigenvectors                 ... done (   0.0 sec)
Now organizing SCF variables                       ... done
                      ------------------
                      INITIAL GUESS DONE (   2.3 sec)
                      ------------------
             **** ENERGY FILE WAS UPDATED (./output/3_decanone/3_decanone.en.tmp) ****
Finished Guess after   3.0 sec
Maximum memory used throughout the entire GUESS-calculation: 24.5 MB


           ************************************************************
           *        Program running with 40 parallel MPI-processes    *
           *              working on a common directory               *
           ************************************************************

-------------------------------------------------------------------------------------------
                                      ORCA LEAN-SCF
                              memory conserving SCF solver
-------------------------------------------------------------------------------------------

----------------------------------------D-I-I-S--------------------------------------------
Iteration    Energy (Eh)           Delta-E    RMSDP     MaxDP     DIISErr   Damp  Time(sec)
-------------------------------------------------------------------------------------------
               ***  Starting incremental Fock matrix formation  ***
    1    -84.5692534049832716     0.00e+00  3.36e-03  7.17e-02  1.85e-01  0.700   4.8
    2    -84.7821062442709490    -2.13e-01  2.44e-03  4.94e-02  1.13e-01  0.700   4.8
                               ***Turning on AO-DIIS***
    3    -84.8920753571175055    -1.10e-01  1.21e-03  2.53e-02  6.14e-02  0.700   3.8
    4    -84.9566010158353606    -6.45e-02  2.49e-03  5.25e-02  3.86e-02  0.000   3.8
    5    -85.0921032541763793    -1.36e-01  2.24e-04  6.43e-03  4.68e-03  0.000   3.9
    6    -85.0924308933792304    -3.28e-04  1.12e-04  6.42e-03  4.76e-03  0.000   3.9
                              *** Initializing SOSCF ***
---------------------------------------S-O-S-C-F--------------------------------------
Iteration    Energy (Eh)           Delta-E    RMSDP     MaxDP     MaxGrad    Time(sec)
--------------------------------------------------------------------------------------
    7    -85.0925096293995580    -7.87e-05  5.87e-05  1.81e-03  1.90e-03     3.9
               *** Restarting incremental Fock matrix formation ***
    8    -85.0924737097767547     3.59e-05  2.88e-05  7.36e-04  3.68e-04     4.9
    9    -85.0924771782531479    -3.47e-06  1.88e-05  5.90e-04  1.78e-04     4.5
   10    -85.0924777513525328    -5.73e-07  4.18e-06  1.81e-04  5.00e-05     4.5
   11    -85.0924778326954083    -8.13e-08  2.08e-06  8.69e-05  2.08e-05     4.1
   12    -85.0924778324988438     1.97e-10  8.00e-07  2.40e-05  7.11e-06     4.1
                 **** Energy Check signals convergence ****

               *****************************************************
               *                     SUCCESS                       *
               *           SCF CONVERGED AFTER  12 CYCLES          *
               *****************************************************

Recomputing exchange energy using gridx3       ... done (    4.476 sec)
Old exchange energy                            :    -12.657911184 Eh
New exchange energy                            :    -12.657930416 Eh
Exchange energy change after final integration :     -0.000019232 Eh
Total energy after final integration           :    -85.092497065 Eh
             **** ENERGY FILE WAS UPDATED (./output/3_decanone/3_decanone.en.tmp) ****

----------------
TOTAL SCF ENERGY
----------------

Total Energy       :        -85.09249706455728 Eh           -2315.48456 eV

Components:
Nuclear Repulsion  :        345.90930288817856 Eh            9412.67066 eV
Electronic Energy  :       -431.00178072067740 Eh          -11728.15470 eV
One Electron Energy:       -812.80897581139254 Eh          -22117.65667 eV
Two Electron Energy:        381.80719509071514 Eh           10389.50197 eV

Virial components:
Potential Energy   :       -151.86270797771584 Eh           -4132.39437 eV
Kinetic Energy     :         66.77021091315855 Eh            1816.90981 eV
Virial Ratio       :          2.27440809158486

DFT components:
N(Alpha)           :       33.000067707682 electrons
N(Beta)            :       33.000067707682 electrons
N(Total)           :       66.000135415363 electrons
E(X)               :      -13.294426079745 Eh       
E(C)               :       -2.451839509034 Eh       
E(XC)              :      -15.746265588779 Eh       

---------------
SCF CONVERGENCE
---------------

  Last Energy change         ...   -1.9656e-10  Tolerance :   1.0000e-08
  Last MAX-Density change    ...    2.4007e-05  Tolerance :   1.0000e-07
  Last RMS-Density change    ...    7.9976e-07  Tolerance :   5.0000e-09
  Last DIIS Error            ...    1.8966e-03  Tolerance :   5.0000e-07
  Last Orbital Gradient      ...    7.1088e-06  Tolerance :   1.0000e-05
  Last Orbital Rotation      ...    5.9146e-06  Tolerance :   1.0000e-05


----------------
ORBITAL ENERGIES
----------------

  NO   OCC          E(Eh)            E(eV) 
   0   2.0000      -1.161174       -31.5972 
   1   2.0000      -0.956370       -26.0241 
   2   2.0000      -0.932289       -25.3689 
   3   2.0000      -0.917334       -24.9619 
   4   2.0000      -0.880166       -23.9505 
   5   2.0000      -0.822517       -22.3818 
   6   2.0000      -0.779070       -21.1996 
   7   2.0000      -0.741534       -20.1782 
   8   2.0000      -0.708376       -19.2759 
   9   2.0000      -0.699580       -19.0365 
  10   2.0000      -0.645439       -17.5633 
  11   2.0000      -0.610143       -16.6028 
  12   2.0000      -0.593677       -16.1548 
  13   2.0000      -0.585358       -15.9284 
  14   2.0000      -0.563587       -15.3360 
  15   2.0000      -0.554729       -15.0949 
  16   2.0000      -0.548632       -14.9290 
  17   2.0000      -0.531287       -14.4571 
  18   2.0000      -0.527891       -14.3646 
  19   2.0000      -0.513889       -13.9836 
  20   2.0000      -0.497578       -13.5398 
  21   2.0000      -0.482804       -13.1378 
  22   2.0000      -0.479034       -13.0352 
  23   2.0000      -0.472207       -12.8494 
  24   2.0000      -0.457092       -12.4381 
  25   2.0000      -0.454680       -12.3725 
  26   2.0000      -0.443081       -12.0568 
  27   2.0000      -0.441992       -12.0272 
  28   2.0000      -0.434471       -11.8226 
  29   2.0000      -0.432362       -11.7652 
  30   2.0000      -0.429833       -11.6964 
  31   2.0000      -0.402338       -10.9482 
  32   2.0000      -0.355449        -9.6723 
  33   0.0000       0.052518         1.4291 
  34   0.0000       0.085681         2.3315 
  35   0.0000       0.090966         2.4753 
  36   0.0000       0.092891         2.5277 
  37   0.0000       0.101885         2.7724 
  38   0.0000       0.106264         2.8916 
  39   0.0000       0.112034         3.0486 
  40   0.0000       0.121821         3.3149 
  41   0.0000       0.134000         3.6463 
  42   0.0000       0.140533         3.8241 
  43   0.0000       0.143430         3.9029 
*Only the first 10 virtual orbitals were printed.

                    ********************************
                    * MULLIKEN POPULATION ANALYSIS *
                    ********************************

-----------------------
MULLIKEN ATOMIC CHARGES
-----------------------
   0 C :   -0.094033
   1 C :   -0.079670
   2 C :   -0.071093
   3 C :   -0.075796
   4 C :   -0.072990
   5 C :   -0.072707
   6 C :   -0.082497
   7 C :    0.167641
   8 O :   -0.310065
   9 C :   -0.081138
  10 C :   -0.094911
  11 H :    0.038158
  12 H :    0.034518
  13 H :    0.033721
  14 H :    0.036362
  15 H :    0.037564
  16 H :    0.037615
  17 H :    0.033675
  18 H :    0.040177
  19 H :    0.034049
  20 H :    0.049156
  21 H :    0.035324
  22 H :    0.059633
  23 H :    0.040101
  24 H :    0.036559
  25 H :    0.071804
  26 H :    0.041385
  27 H :    0.068148
  28 H :    0.044301
  29 H :    0.061405
  30 H :    0.033607
Sum of atomic charges:    0.0000000

--------------------------------
MULLIKEN REDUCED ORBITAL CHARGES
--------------------------------
  0 C s       :     0.971507  s :     0.971507
      pz      :     1.016414  p :     3.047465
      px      :     1.035565
      py      :     0.995486
      dz2     :     0.025550  d :     0.075061
      dxz     :     0.006003
      dyz     :     0.009485
      dx2y2   :     0.021222
      dxy     :     0.012801

  1 C s       :     1.017484  s :     1.017484
      pz      :     1.019934  p :     2.960624
      px      :     0.939348
      py      :     1.001341
      dz2     :     0.028813  d :     0.101563
      dxz     :     0.014592
      dyz     :     0.010875
      dx2y2   :     0.022162
      dxy     :     0.025121

  2 C s       :     1.014984  s :     1.014984
      pz      :     1.012209  p :     2.955557
      px      :     0.948589
      py      :     0.994759
      dz2     :     0.028900  d :     0.100553
      dxz     :     0.014462
      dyz     :     0.010517
      dx2y2   :     0.021827
      dxy     :     0.024848

  3 C s       :     1.014078  s :     1.014078
      pz      :     1.018127  p :     2.961350
      px      :     0.947140
      py      :     0.996083
      dz2     :     0.028774  d :     0.100368
      dxz     :     0.014256
      dyz     :     0.010500
      dx2y2   :     0.022132
      dxy     :     0.024705

  4 C s       :     1.014422  s :     1.014422
      pz      :     1.009984  p :     2.958603
      px      :     0.950435
      py      :     0.998185
      dz2     :     0.028870  d :     0.099965
      dxz     :     0.014791
      dyz     :     0.010494
      dx2y2   :     0.021210
      dxy     :     0.024600

  5 C s       :     1.015306  s :     1.015306
      pz      :     1.030165  p :     2.957617
      px      :     0.925638
      py      :     1.001814
      dz2     :     0.028649  d :     0.099783
      dxz     :     0.013793
      dyz     :     0.011004
      dx2y2   :     0.021190
      dxy     :     0.025147

  6 C s       :     0.989995  s :     0.989995
      pz      :     1.047642  p :     3.001245
      px      :     0.956233
      py      :     0.997371
      dz2     :     0.023255  d :     0.091258
      dxz     :     0.014031
      dyz     :     0.013674
      dx2y2   :     0.015072
      dxy     :     0.025226

  7 C s       :     1.154316  s :     1.154316
      pz      :     0.849067  p :     2.471588
      px      :     0.789859
      py      :     0.832662
      dz2     :     0.053037  d :     0.206455
      dxz     :     0.056006
      dyz     :     0.056393
      dx2y2   :     0.022522
      dxy     :     0.018497

  8 O s       :     1.776214  s :     1.776214
      pz      :     1.354694  p :     4.498221
      px      :     1.555853
      py      :     1.587674
      dz2     :     0.011973  d :     0.035629
      dxz     :     0.010369
      dyz     :     0.010484
      dx2y2   :     0.001495
      dxy     :     0.001308

  9 C s       :     0.998443  s :     0.998443
      pz      :     0.996865  p :     2.990317
      px      :     1.029229
      py      :     0.964223
      dz2     :     0.016457  d :     0.092378
      dxz     :     0.013600
      dyz     :     0.027222
      dx2y2   :     0.020946
      dxy     :     0.014154

 10 C s       :     0.979922  s :     0.979922
      pz      :     1.061454  p :     3.040897
      px      :     1.031087
      py      :     0.948356
      dz2     :     0.009012  d :     0.074092
      dxz     :     0.012372
      dyz     :     0.021514
      dx2y2   :     0.019745
      dxy     :     0.011449

 11 H s       :     0.918395  s :     0.918395
      pz      :     0.010687  p :     0.043447
      px      :     0.022439
      py      :     0.010321

 12 H s       :     0.922342  s :     0.922342
      pz      :     0.010433  p :     0.043141
      px      :     0.012064
      py      :     0.020644

 13 H s       :     0.923145  s :     0.923145
      pz      :     0.022980  p :     0.043134
      px      :     0.009951
      py      :     0.010204

 14 H s       :     0.921845  s :     0.921845
      pz      :     0.009918  p :     0.041793
      px      :     0.012548
      py      :     0.019328

 15 H s       :     0.920666  s :     0.920666
      pz      :     0.022095  p :     0.041771
      px      :     0.009781
      py      :     0.009895

 16 H s       :     0.920942  s :     0.920942
      pz      :     0.009761  p :     0.041443
      px      :     0.012005
      py      :     0.019677

 17 H s       :     0.924885  s :     0.924885
      pz      :     0.022334  p :     0.041440
      px      :     0.009521
      py      :     0.009584

 18 H s       :     0.918337  s :     0.918337
      pz      :     0.022552  p :     0.041486
      px      :     0.009374
      py      :     0.009560

 19 H s       :     0.924400  s :     0.924400
      pz      :     0.009819  p :     0.041551
      px      :     0.012171
      py      :     0.019561

 20 H s       :     0.908882  s :     0.908882
      pz      :     0.010178  p :     0.041962
      px      :     0.012132
      py      :     0.019653

 21 H s       :     0.923667  s :     0.923667
      pz      :     0.021957  p :     0.041009
      px      :     0.009280
      py      :     0.009772

 22 H s       :     0.898675  s :     0.898675
      pz      :     0.023218  p :     0.041692
      px      :     0.008759
      py      :     0.009716

 23 H s       :     0.917706  s :     0.917706
      pz      :     0.009728  p :     0.042193
      px      :     0.013034
      py      :     0.019431

 24 H s       :     0.920827  s :     0.920827
      pz      :     0.022943  p :     0.042614
      px      :     0.009685
      py      :     0.009985

 25 H s       :     0.884469  s :     0.884469
      pz      :     0.013369  p :     0.043727
      px      :     0.012182
      py      :     0.018176

 26 H s       :     0.915649  s :     0.915649
      pz      :     0.020015  p :     0.042966
      px      :     0.009155
      py      :     0.013796

 27 H s       :     0.888718  s :     0.888718
      pz      :     0.010284  p :     0.043135
      px      :     0.022519
      py      :     0.010331

 28 H s       :     0.911947  s :     0.911947
      pz      :     0.016259  p :     0.043753
      px      :     0.014512
      py      :     0.012982

 29 H s       :     0.895564  s :     0.895564
      pz      :     0.020308  p :     0.043032
      px      :     0.009508
      py      :     0.013215

 30 H s       :     0.922144  s :     0.922144
      pz      :     0.012094  p :     0.044249
      px      :     0.022245
      py      :     0.009910



                     *******************************
                     * LOEWDIN POPULATION ANALYSIS *
                     *******************************

----------------------
LOEWDIN ATOMIC CHARGES
----------------------
   0 C :   -0.126474
   1 C :   -0.099299
   2 C :   -0.090358
   3 C :   -0.086590
   4 C :   -0.089467
   5 C :   -0.079327
   6 C :   -0.086333
   7 C :    0.012398
   8 O :   -0.141008
   9 C :   -0.093492
  10 C :   -0.111628
  11 H :    0.045952
  12 H :    0.045260
  13 H :    0.044698
  14 H :    0.045748
  15 H :    0.046578
  16 H :    0.046480
  17 H :    0.045080
  18 H :    0.048859
  19 H :    0.045707
  20 H :    0.044623
  21 H :    0.043045
  22 H :    0.055382
  23 H :    0.049896
  24 H :    0.049829
  25 H :    0.067100
  26 H :    0.050791
  27 H :    0.065470
  28 H :    0.051297
  29 H :    0.055291
  30 H :    0.044492

-------------------------------
LOEWDIN REDUCED ORBITAL CHARGES
-------------------------------
  0 C s       :     0.781754  s :     0.781754
      pz      :     1.038081  p :     3.099168
      px      :     1.046475
      py      :     1.014612
      dz2     :     0.085659  d :     0.245552
      dxz     :     0.018670
      dyz     :     0.029717
      dx2y2   :     0.070684
      dxy     :     0.040822

  1 C s       :     0.767821  s :     0.767821
      pz      :     1.030670  p :     3.007032
      px      :     0.964748
      py      :     1.011615
      dz2     :     0.094582  d :     0.324446
      dxz     :     0.046694
      dyz     :     0.032718
      dx2y2   :     0.069742
      dxy     :     0.080710

  2 C s       :     0.766678  s :     0.766678
      pz      :     1.027602  p :     3.002411
      px      :     0.964551
      py      :     1.010258
      dz2     :     0.094752  d :     0.321269
      dxz     :     0.046200
      dyz     :     0.032255
      dx2y2   :     0.068253
      dxy     :     0.079809

  3 C s       :     0.765322  s :     0.765322
      pz      :     1.030162  p :     3.000420
      px      :     0.959259
      py      :     1.010999
      dz2     :     0.094307  d :     0.320848
      dxz     :     0.045792
      dyz     :     0.032217
      dx2y2   :     0.068820
      dxy     :     0.079712

  4 C s       :     0.765345  s :     0.765345
      pz      :     1.025717  p :     3.003307
      px      :     0.966452
      py      :     1.011138
      dz2     :     0.094629  d :     0.320815
      dxz     :     0.047017
      dyz     :     0.032416
      dx2y2   :     0.067105
      dxy     :     0.079648

  5 C s       :     0.766424  s :     0.766424
      pz      :     1.036301  p :     2.993867
      px      :     0.944098
      py      :     1.013468
      dz2     :     0.094128  d :     0.319036
      dxz     :     0.044213
      dyz     :     0.033351
      dx2y2   :     0.065173
      dxy     :     0.082172

  6 C s       :     0.769982  s :     0.769982
      pz      :     1.047377  p :     3.020934
      px      :     0.969627
      py      :     1.003930
      dz2     :     0.073738  d :     0.295418
      dxz     :     0.043377
      dyz     :     0.046929
      dx2y2   :     0.050093
      dxy     :     0.081282

  7 C s       :     0.798306  s :     0.798306
      pz      :     0.960097  p :     2.613108
      px      :     0.795814
      py      :     0.857197
      dz2     :     0.163138  d :     0.576189
      dxz     :     0.139604
      dyz     :     0.155489
      dx2y2   :     0.064228
      dxy     :     0.053731

  8 O s       :     1.527496  s :     1.527496
      pz      :     1.504550  p :     4.537770
      px      :     1.491407
      py      :     1.541813
      dz2     :     0.029460  d :     0.075742
      dxz     :     0.018360
      dyz     :     0.022513
      dx2y2   :     0.002709
      dxy     :     0.002700

  9 C s       :     0.770742  s :     0.770742
      pz      :     1.016939  p :     3.023069
      px      :     1.029197
      py      :     0.976933
      dz2     :     0.055520  d :     0.299680
      dxz     :     0.041689
      dyz     :     0.087242
      dx2y2   :     0.069608
      dxy     :     0.045621

 10 C s       :     0.780177  s :     0.780177
      pz      :     1.068037  p :     3.088006
      px      :     1.054386
      py      :     0.965583
      dz2     :     0.027473  d :     0.243445
      dxz     :     0.039773
      dyz     :     0.073792
      dx2y2   :     0.064151
      dxy     :     0.038256

 11 H s       :     0.807972  s :     0.807972
      pz      :     0.041101  p :     0.146077
      px      :     0.064884
      py      :     0.040092

 12 H s       :     0.809667  s :     0.809667
      pz      :     0.040536  p :     0.145074
      px      :     0.044166
      py      :     0.060372

 13 H s       :     0.810170  s :     0.810170
      pz      :     0.065635  p :     0.145133
      px      :     0.039747
      py      :     0.039751

 14 H s       :     0.809075  s :     0.809075
      pz      :     0.040030  p :     0.145177
      px      :     0.043841
      py      :     0.061306

 15 H s       :     0.808326  s :     0.808326
      pz      :     0.067433  p :     0.145096
      px      :     0.038146
      py      :     0.039516

 16 H s       :     0.808837  s :     0.808837
      pz      :     0.039694  p :     0.144683
      px      :     0.043749
      py      :     0.061239

 17 H s       :     0.810103  s :     0.810103
      pz      :     0.067780  p :     0.144817
      px      :     0.038018
      py      :     0.039019

 18 H s       :     0.806691  s :     0.806691
      pz      :     0.067892  p :     0.144450
      px      :     0.037636
      py      :     0.038922

 19 H s       :     0.809507  s :     0.809507
      pz      :     0.039916  p :     0.144786
      px      :     0.043585
      py      :     0.061284

 20 H s       :     0.807492  s :     0.807492
      pz      :     0.040213  p :     0.147885
      px      :     0.045001
      py      :     0.062670

 21 H s       :     0.811443  s :     0.811443
      pz      :     0.068096  p :     0.145512
      px      :     0.038153
      py      :     0.039262

 22 H s       :     0.799311  s :     0.799311
      pz      :     0.068952  p :     0.145307
      px      :     0.036395
      py      :     0.039960

 23 H s       :     0.804515  s :     0.804515
      pz      :     0.040565  p :     0.145590
      px      :     0.044894
      py      :     0.060131

 24 H s       :     0.804757  s :     0.804757
      pz      :     0.067639  p :     0.145413
      px      :     0.038082
      py      :     0.039692

 25 H s       :     0.785342  s :     0.785342
      pz      :     0.046988  p :     0.147557
      px      :     0.043687
      py      :     0.056882

 26 H s       :     0.803620  s :     0.803620
      pz      :     0.059953  p :     0.145589
      px      :     0.038663
      py      :     0.046973

 27 H s       :     0.788936  s :     0.788936
      pz      :     0.038997  p :     0.145594
      px      :     0.066374
      py      :     0.040224

 28 H s       :     0.803346  s :     0.803346
      pz      :     0.052725  p :     0.145357
      px      :     0.048757
      py      :     0.043875

 29 H s       :     0.799865  s :     0.799865
      pz      :     0.060402  p :     0.144844
      px      :     0.039147
      py      :     0.045295

 30 H s       :     0.808619  s :     0.808619
      pz      :     0.043862  p :     0.146889
      px      :     0.064485
      py      :     0.038542



                      *****************************
                      * MAYER POPULATION ANALYSIS *
                      *****************************

  NA   - Mulliken gross atomic population
  ZA   - Total nuclear charge
  QA   - Mulliken gross atomic charge
  VA   - Mayer's total valence
  BVA  - Mayer's bonded valence
  FA   - Mayer's free valence

  ATOM       NA         ZA         QA         VA         BVA        FA
  0 C      4.0940     4.0000    -0.0940     3.9826     3.9826    -0.0000
  1 C      4.0797     4.0000    -0.0797     4.0008     4.0008     0.0000
  2 C      4.0711     4.0000    -0.0711     3.9731     3.9731     0.0000
  3 C      4.0758     4.0000    -0.0758     3.9995     3.9995     0.0000
  4 C      4.0730     4.0000    -0.0730     3.9633     3.9633     0.0000
  5 C      4.0727     4.0000    -0.0727     3.9863     3.9863    -0.0000
  6 C      4.0825     4.0000    -0.0825     3.9507     3.9507     0.0000
  7 C      3.8324     4.0000     0.1676     4.0057     4.0057    -0.0000
  8 O      6.3101     6.0000    -0.3101     2.0133     2.0133    -0.0000
  9 C      4.0811     4.0000    -0.0811     3.9571     3.9571    -0.0000
 10 C      4.0949     4.0000    -0.0949     3.9858     3.9858    -0.0000
 11 H      0.9618     1.0000     0.0382     1.0271     1.0271     0.0000
 12 H      0.9655     1.0000     0.0345     1.0269     1.0269     0.0000
 13 H      0.9663     1.0000     0.0337     1.0263     1.0263    -0.0000
 14 H      0.9636     1.0000     0.0364     1.0142     1.0142     0.0000
 15 H      0.9624     1.0000     0.0376     1.0149     1.0149     0.0000
 16 H      0.9624     1.0000     0.0376     1.0102     1.0102     0.0000
 17 H      0.9663     1.0000     0.0337     1.0122     1.0122     0.0000
 18 H      0.9598     1.0000     0.0402     1.0139     1.0139     0.0000
 19 H      0.9660     1.0000     0.0340     1.0135     1.0135     0.0000
 20 H      0.9508     1.0000     0.0492     0.9965     0.9965    -0.0000
 21 H      0.9647     1.0000     0.0353     1.0053     1.0053     0.0000
 22 H      0.9404     1.0000     0.0596     1.0215     1.0215    -0.0000
 23 H      0.9599     1.0000     0.0401     1.0182     1.0182     0.0000
 24 H      0.9634     1.0000     0.0366     1.0189     1.0189     0.0000
 25 H      0.9282     1.0000     0.0718     1.0252     1.0252     0.0000
 26 H      0.9586     1.0000     0.0414     1.0165     1.0165    -0.0000
 27 H      0.9319     1.0000     0.0681     1.0246     1.0246    -0.0000
 28 H      0.9557     1.0000     0.0443     1.0279     1.0279    -0.0000
 29 H      0.9386     1.0000     0.0614     1.0277     1.0277    -0.0000
[...]
 43:   1176.81   0.000594    3.00  0.000158  (-0.008217 -0.003568 -0.008791)
 44:   1216.32   0.007031   35.53  0.001804  (-0.039447  0.015510 -0.002713)
 45:   1243.15   0.000070    0.36  0.000018  ( 0.000049 -0.001158  0.004041)
 46:   1260.77   0.000898    4.54  0.000222  ( 0.009040 -0.011855  0.000033)
 47:   1296.07   0.000052    0.26  0.000012  ( 0.002020  0.001703 -0.002337)
 48:   1306.79   0.000707    3.57  0.000169  ( 0.011669  0.003964  0.004127)
 49:   1317.19   0.001153    5.83  0.000273  (-0.012090  0.011225  0.000991)
 50:   1351.06   0.000084    0.42  0.000019  (-0.002394  0.003270  0.001721)
 51:   1356.07   0.000384    1.94  0.000088  ( 0.008790 -0.002092  0.002590)
 52:   1362.12   0.000205    1.03  0.000047  ( 0.001591 -0.005701 -0.003442)
 53:   1371.43   0.000244    1.23  0.000055  (-0.004878  0.003016  0.004754)
 54:   1380.61   0.001795    9.07  0.000406  ( 0.015681 -0.009514  0.008320)
 55:   1409.67   0.000145    0.73  0.000032  (-0.004456  0.001996 -0.002859)
 56:   1440.63   0.001434    7.25  0.000311  (-0.015031  0.009011 -0.001850)
 57:   1443.47   0.002764   13.97  0.000597  (-0.004821  0.022825 -0.007297)
 58:   1449.52   0.002781   14.05  0.000599  ( 0.021121 -0.010923 -0.005764)
 59:   1458.59   0.002198   11.11  0.000470  (-0.007350  0.020375 -0.001001)
 60:   1468.42   0.000624    3.15  0.000133  (-0.009851  0.005802  0.001354)
 61:   1482.03   0.003212   16.23  0.000676  (-0.008244 -0.015116 -0.019491)
 62:   1510.36   0.000815    4.12  0.000168  (-0.006789  0.006908 -0.008637)
 63:   1515.18   0.000745    3.76  0.000153  ( 0.008838  0.001691 -0.008509)
 64:   1517.07   0.000049    0.25  0.000010  (-0.000237  0.002085  0.002372)
 65:   1519.17   0.000068    0.34  0.000014  (-0.001673  0.002215 -0.002497)
 66:   1524.13   0.000651    3.29  0.000133  ( 0.010706 -0.002865  0.003228)
 67:   1527.79   0.002152   10.87  0.000439  (-0.003859  0.012732  0.016201)
 68:   1529.80   0.002717   13.73  0.000554  ( 0.005246  0.014015  0.018174)
 69:   1533.43   0.000434    2.19  0.000088  ( 0.001180 -0.009322 -0.000149)
 70:   1537.53   0.005307   26.82  0.001077  (-0.031507  0.009157  0.000772)
 71:   1540.72   0.003188   16.11  0.000646  (-0.011378  0.015894 -0.016234)
 72:   1865.12   0.032507  164.28  0.005439  (-0.024798 -0.033880 -0.060631)
 73:   3074.74   0.000255    1.29  0.000026  (-0.002688  0.004156 -0.001196)
 74:   3076.75   0.000546    2.76  0.000055  ( 0.003310 -0.005758 -0.003358)
 75:   3080.30   0.007787   39.35  0.000789  (-0.009671  0.014833 -0.021802)
 76:   3088.12   0.004582   23.16  0.000463  (-0.019949 -0.001714 -0.007884)
 77:   3089.51   0.015354   77.59  0.001551  (-0.015195  0.026188 -0.025183)
 78:   3097.10   0.005905   29.84  0.000595  (-0.016765 -0.015449  0.008677)
 79:   3105.10   0.006432   32.50  0.000646  (-0.007196  0.023591 -0.006173)
 80:   3109.31   0.004058   20.51  0.000407  ( 0.000531 -0.011429  0.016626)
 81:   3114.25   0.000346    1.75  0.000035  (-0.002300  0.004583 -0.002891)
 82:   3121.83   0.003093   15.63  0.000309  (-0.012922 -0.011890  0.000934)
 83:   3126.85   0.000532    2.69  0.000053  ( 0.000885 -0.000253  0.007228)
 84:   3137.41   0.001282    6.48  0.000128  ( 0.001517  0.005711 -0.009622)
 85:   3140.84   0.002712   13.71  0.000269  ( 0.001166 -0.001313 -0.016322)
 86:   3148.00   0.009260   46.80  0.000918  (-0.007899  0.022360  0.018857)
 87:   3167.06   0.005820   29.41  0.000573  ( 0.003341 -0.012652 -0.020056)
 88:   3184.10   0.006539   33.05  0.000641  ( 0.004401 -0.015008 -0.019907)
 89:   3185.89   0.000221    1.12  0.000022  (-0.002840 -0.001940 -0.003134)
 90:   3189.39   0.004756   24.04  0.000465  (-0.019299  0.005322 -0.008038)
 91:   3202.65   0.003755   18.97  0.000366  (-0.014768  0.009920  0.007024)
 92:   3212.44   0.001897    9.58  0.000184  (-0.007099 -0.007276 -0.008995)

* The epsilon (eps) is given for a Dirac delta lineshape.
** The dipole moment derivative (T) already includes vibrational overlap.

The first frequency considered to be a vibration is 6
The total number of vibrations considered is 87


--------------------------
THERMOCHEMISTRY AT 298.15K
--------------------------

Temperature         ...   298.15 K
Pressure            ...     1.00 atm
Total Mass          ...   156.27 AMU
Quasi RRHO          ...     True
Cut-Off Frequency   ...     1.00 cm^-1

Throughout the following assumptions are being made:
  (1) The electronic state is orbitally nondegenerate
  (2) There are no thermally accessible electronically excited states
  (3) Hindered rotations indicated by low frequency modes are not
      treated as such but are treated as vibrations and this may
      cause some error
  (4) All equations used are the standard statistical mechanics
      equations for an ideal gas
  (5) All vibrations are strictly harmonic

freq.      26.00  E(vib)   ...       0.56 
freq.      42.77  E(vib)   ...       0.53 
freq.      45.19  E(vib)   ...       0.53 
freq.      60.19  E(vib)   ...       0.51 
freq.      93.19  E(vib)   ...       0.47 
freq.     114.33  E(vib)   ...       0.44 
freq.     131.45  E(vib)   ...       0.42 
freq.     159.60  E(vib)   ...       0.39 
freq.     211.71  E(vib)   ...       0.34 
freq.     237.05  E(vib)   ...       0.32 
freq.     249.18  E(vib)   ...       0.31 
freq.     259.47  E(vib)   ...       0.30 
freq.     272.13  E(vib)   ...       0.29 
freq.     290.43  E(vib)   ...       0.27 
freq.     409.62  E(vib)   ...       0.19 
freq.     435.11  E(vib)   ...       0.17 
freq.     509.32  E(vib)   ...       0.14 
freq.     572.32  E(vib)   ...       0.11 
freq.     626.33  E(vib)   ...       0.09 
freq.     740.49  E(vib)   ...       0.06 
freq.     749.21  E(vib)   ...       0.06 
freq.     779.81  E(vib)   ...       0.05 
freq.     820.91  E(vib)   ...       0.05 
freq.     848.44  E(vib)   ...       0.04 
freq.     890.26  E(vib)   ...       0.04 
freq.     926.04  E(vib)   ...       0.03 
freq.     935.38  E(vib)   ...       0.03 
freq.     983.53  E(vib)   ...       0.02 
freq.    1020.73  E(vib)   ...       0.02 
freq.    1046.63  E(vib)   ...       0.02 
freq.    1064.17  E(vib)   ...       0.02 
freq.    1075.20  E(vib)   ...       0.02 
freq.    1092.51  E(vib)   ...       0.02 
freq.    1110.17  E(vib)   ...       0.02 
freq.    1115.10  E(vib)   ...       0.01 
freq.    1122.56  E(vib)   ...       0.01 
freq.    1170.29  E(vib)   ...       0.01 
freq.    1176.81  E(vib)   ...       0.01 
freq.    1216.32  E(vib)   ...       0.01 
freq.    1243.15  E(vib)   ...       0.01 
freq.    1260.77  E(vib)   ...       0.01 
freq.    1296.07  E(vib)   ...       0.01 
freq.    1306.79  E(vib)   ...       0.01 
freq.    1317.19  E(vib)   ...       0.01 
freq.    1351.06  E(vib)   ...       0.01 
freq.    1356.07  E(vib)   ...       0.01 
freq.    1362.12  E(vib)   ...       0.01 
freq.    1371.43  E(vib)   ...       0.01 
freq.    1380.61  E(vib)   ...       0.01 
freq.    1409.67  E(vib)   ...       0.00 
freq.    1440.63  E(vib)   ...       0.00 
freq.    1443.47  E(vib)   ...       0.00 
freq.    1449.52  E(vib)   ...       0.00 
freq.    1458.59  E(vib)   ...       0.00 
freq.    1468.42  E(vib)   ...       0.00 
freq.    1482.03  E(vib)   ...       0.00 
freq.    1510.36  E(vib)   ...       0.00 
freq.    1515.18  E(vib)   ...       0.00 
freq.    1517.07  E(vib)   ...       0.00 
freq.    1519.17  E(vib)   ...       0.00 
freq.    1524.13  E(vib)   ...       0.00 
freq.    1527.79  E(vib)   ...       0.00 
freq.    1529.80  E(vib)   ...       0.00 
freq.    1533.43  E(vib)   ...       0.00 
freq.    1537.53  E(vib)   ...       0.00 
freq.    1540.72  E(vib)   ...       0.00 
freq.    1865.12  E(vib)   ...       0.00 
freq.    3074.74  E(vib)   ...       0.00 
freq.    3076.75  E(vib)   ...       0.00 
freq.    3080.30  E(vib)   ...       0.00 
freq.    3088.12  E(vib)   ...       0.00 
freq.    3089.51  E(vib)   ...       0.00 
freq.    3097.10  E(vib)   ...       0.00 
freq.    3105.10  E(vib)   ...       0.00 
freq.    3109.31  E(vib)   ...       0.00 
freq.    3114.25  E(vib)   ...       0.00 
freq.    3121.83  E(vib)   ...       0.00 
freq.    3126.85  E(vib)   ...       0.00 
freq.    3137.41  E(vib)   ...       0.00 
freq.    3140.84  E(vib)   ...       0.00 
freq.    3148.00  E(vib)   ...       0.00 
freq.    3167.06  E(vib)   ...       0.00 
freq.    3184.10  E(vib)   ...       0.00 
freq.    3185.89  E(vib)   ...       0.00 
freq.    3189.39  E(vib)   ...       0.00 
freq.    3202.65  E(vib)   ...       0.00 
freq.    3212.44  E(vib)   ...       0.00 

------------
INNER ENERGY
------------

The inner energy is: U= E(el) + E(ZPE) + E(vib) + E(rot) + E(trans)
    E(el)   - is the total energy from the electronic structure calculation
              = E(kin-el) + E(nuc-el) + E(el-el) + E(nuc-nuc)
    E(ZPE)  - the the zero temperature vibrational energy from the frequency calculation
    E(vib)  - the the finite temperature correction to E(ZPE) due to population
              of excited vibrational states
    E(rot)  - is the rotational thermal energy
    E(trans)- is the translational thermal energy

Summary of contributions to the inner energy U:
Electronic energy                ...    -85.13391699 Eh
Zero point energy                ...      0.29114861 Eh     182.70 kcal/mol
Thermal vibrational correction   ...      0.01123303 Eh       7.05 kcal/mol
Thermal rotational correction    ...      0.00141627 Eh       0.89 kcal/mol
Thermal translational correction ...      0.00141627 Eh       0.89 kcal/mol
-----------------------------------------------------------------------
Total thermal energy                    -84.82870281 Eh


Summary of corrections to the electronic energy:
(perhaps to be used in another calculation)
Total thermal correction                  0.01406557 Eh       8.83 kcal/mol
Non-thermal (ZPE) correction              0.29114861 Eh     182.70 kcal/mol
-----------------------------------------------------------------------
Total correction                          0.30521418 Eh     191.52 kcal/mol


--------
ENTHALPY
--------

The enthalpy is H = U + kB*T
                kB is Boltzmann's constant
Total thermal energy              ...    -84.82870281 Eh 
Thermal Enthalpy correction       ...      0.00094421 Eh       0.59 kcal/mol
-----------------------------------------------------------------------
Total Enthalpy                    ...    -84.82775860 Eh


Note: Only C1 symmetry has been detected, increase convergence thresholds 
      if your molecule has a higher symmetry. Symmetry factor of 1.0 is   
      used for the rotational entropy correction. 
 

Note: Rotational entropy computed according to Herzberg 
Infrared and Raman Spectra, Chapter V,1, Van Nostrand Reinhold, 1945 
Point Group:  C1, Symmetry Number:   1  
Rotational constants in cm-1:     0.074935     0.010911     0.010314 

Vibrational entropy computed according to the QRRHO of S. Grimme
Chem.Eur.J. 2012 18 9955 using a reference frequency of 100.0 cm-1


-------
ENTROPY
-------

The entropy contributions are T*S = T*(S(el)+S(vib)+S(rot)+S(trans))
     S(el)   - electronic entropy
     S(vib)  - vibrational entropy
     S(rot)  - rotational entropy
     S(trans)- translational entropy
The entropies will be listed as multiplied by the temperature to get
units of energy

Electronic entropy                ...      0.00000000 Eh      0.00 kcal/mol
Vibrational entropy               ...      0.02048902 Eh     12.86 kcal/mol
Rotational entropy                ...      0.01502645 Eh      9.43 kcal/mol
Translational entropy             ...      0.01950348 Eh     12.24 kcal/mol
-----------------------------------------------------------------------
Final entropy term                ...      0.05501894 Eh     34.52 kcal/mol

In case the symmetry of your molecule has not been determined correctly
or in case you have a reason to use a different symmetry number we print 
out the resulting rotational entropy values for sn=1,12:

 non-linear molecules -----------------------------------
|  sn= 1 | S(rot)=       0.01502645 Eh      9.43 kcal/mol|
|  sn= 2 | S(rot)=       0.01437199 Eh      9.02 kcal/mol|
|  sn= 3 | S(rot)=       0.01398916 Eh      8.78 kcal/mol|
|  sn= 4 | S(rot)=       0.01371753 Eh      8.61 kcal/mol|
|  sn= 5 | S(rot)=       0.01350685 Eh      8.48 kcal/mol|
|  sn= 6 | S(rot)=       0.01333470 Eh      8.37 kcal/mol|
|  sn= 7 | S(rot)=       0.01318916 Eh      8.28 kcal/mol|
|  sn= 8 | S(rot)=       0.01306308 Eh      8.20 kcal/mol|
|  sn= 9 | S(rot)=       0.01295187 Eh      8.13 kcal/mol|
|  sn=10 | S(rot)=       0.01285239 Eh      8.06 kcal/mol|
|  sn=11 | S(rot)=       0.01276240 Eh      8.01 kcal/mol|
|  sn=12 | S(rot)=       0.01268025 Eh      7.96 kcal/mol|
 linear molecules ---------------------------------------
|  Dinfh | S(rot)=       0.00964476 Eh      6.05 kcal/mol|
|  Cinfv | S(rot)=       0.01029922 Eh      6.46 kcal/mol|
 --------------------------------------------------------


-------------------
GIBBS FREE ENERGY
-------------------

The Gibbs free energy is G = H - T*S

Total enthalpy                    ...    -84.82775860 Eh 
Total entropy correction          ...     -0.05501894 Eh    -34.52 kcal/mol
-----------------------------------------------------------------------
Final Gibbs free energy         ...    -84.88277754 Eh

For completeness - the Gibbs free energy minus the electronic energy
G-E(el)                           ...      0.25113945 Eh    157.59 kcal/mol


Maximum memory used throughout the entire PROP-calculation: 151.2 MB

--------------------------------
SUGGESTED CITATIONS FOR THIS RUN
--------------------------------

Below you find a list of papers that are relevant to this ORCA run
We neither can nor want to force you to cite these papers, but we appreciate if you do
You receive ORCA, which is the product of decades of hard work by many enthusiastic individuals, for free
The only thing we kindly ask in return is that you cite our papers,
We deeply appreciate it, if you show your appreciation for ORCA by not just citing the generic ORCA reference.

Please note that relegating all ORCA citations to the supporting information does *not* help us.
SI sections are not indexed - citations you put there will not count into any citation statistics
But we need these citations in order to attract the funding resources that allow us to do what we are doing

Therefore, if you are a happy ORCA user, please consider citing a few of the papers listed below in the main body of your paper

In addition to the list printed below, the program has created the file ./output/3_decanone/3_decanone.bibtex that contains the list in bibtex format
You can import this file easily into all common literature databanks and citation aid programs


List of essential papers. We consider these as the minimum necessary citations

  1. Neese,F.
     Software update: the ORCA program system, version 5.0
     WIRES Comput. Molec. Sci., 2022 12(1)e1606
     doi.org/10.1002/wcms.1606
  2. Mueller,M.; Hansen,A.; Grimme,S.
     wB97X-3c: A composite range-separated hybrid DFT method with a molecule-optimized polarized valence double-zeta basis set
     J. Chem. Phys., 2023 158 014103
     doi.org/10.1063/5.0133026

List of papers to cite with high priority. The work reported in these papers was absolutely
necessary for this run to complete.
Our perspective: the developers of density functionals and basis sets usually get cited in chemistry papers
Good! But without the algorithms to do something with them, the functionals or basis sets would not do anything.
Hence, in our opinion, the algorithm design and method developments papers are equally worthy of getting cited

  1. Neese,F.
     An improvement of the resolution of the identity approximation for the formation of the Coulomb matrix
     J. Comp. Chem., 2003 24(14)1740-1747
     doi.org/10.1002/jcc.10318
  2. Neese,F.; Wennmohs,F.; Hansen,A.; Becker,U.
     Efficient, approximate and parallel Hartree-Fock and hybrid DFT calculations. A 'chain-of-spheres' algorithm for the Hartree-Fock exchange
     Chem. Phys., 2009 356(1-3)98-109
     doi.org/10.1016/j.chemphys.2008.10.036
  3. Bykov,D.; Petrenko,T.; Izsak,R.; Kossmann,S.; Becker,U.; Valeev,E.; Neese,F.
     Efficient implementation of the analytic second derivatives of Hartree-Fock and hybrid DFT energies: a detailed analysis of different approximations
     Molec. Phys., 2015 113 1961-1977
     doi.org/10.1080/00268976.2015.1025114
  4. Helmich-Paris,B.; de Souza,B.; Neese,F.; Izsák,R.
     An improved chain of spheres for exchange algorithm
     J. Chem. Phys., 2021 155 104109
     doi.org/doi: 10.1063/5.0058766.
  5. Neese,F.
     The SHARK Integral Generation and Digestion System
     J. Comp. Chem., 2022  1-16
     doi.org/10.1002/jcc.26942
  6. Caldeweyher,E.; Bannwarth,C.; Grimme,S.
     Extension of the D3 dispersion coefficient model
     J. Chem. Phys., 2017 147 034112
     doi.org/10.1063/1.4993215
  7. Caldeweyher,E.; Ehlert,S.; Hansen,A.; Neugebauer,H.; Spicher,S.; Bannwarth,C.; Grimme,S.
     A generally applicable atomic-charge dependent London dispersion correction
     J. Chem. Phys., 2019 150 154122
     doi.org/10.1063/1.5090222
  8. Caldeweyher,E.; Mewes,J.; Ehlert,S.; Grimme,S.
     Extension and evaluation of the D4 London-dispersion model for periodic systems
     Phys. Chem. Chem. Phys., 2020 22(16)8499-8512
     doi.org/10.1039/D0CP00502A
  9. Wittmann,L.; Gordiy,I.; Friede,M.; Helmich-Paris,B.; Grimme,S.; Hansen,A.; Bursch,M.
     Extension of the D3 and D4 London Dispersion Corrections to the full Actinides Series
     Phys. Chem. Chem. Phys., 2024 26(32)21379-21394
     doi.org/https://doi.org/10.1039/D4CP01514B 

List of suggested additional citations. These are papers that are important in the 'surrounding' of 
of this run, or papers that preceded the highly important papers. If you like your results we are grateful for a citation.

  1. Izsak,R.; Neese,F.
     An overlap fitted chain of spheres exchange method
     J. Chem. Phys., 2011 135 144105
     doi.org/10.1063/1.3646921
  2. Izsak,R.; Hansen,A.; Neese,F.
     The resolution of identity and chain of spheres approximations for the LPNO-CCSD singles Fock term
     Molec. Phys., 2012 110 2413-2417
     doi.org/10.1080/00268976.2012.687466
  3. Neese,F.
     The ORCA program system
     WIRES Comput. Molec. Sci., 2012 2(1)73-78
     doi.org/10.1002/wcms.81
  4. Izsak,R.; Neese,F.; Klopper,W.
     Robust fitting techniques in the chain of spheres approximation to the Fock exchange: The role of the complementary space
     J. Chem. Phys., 2013 139 
     doi.org/10.1063/1.4819264
  5. Neese,F.
     Software update: the ORCA program system, version 4.0
     WIRES Comput. Molec. Sci., 2018 8(1)1-6
     doi.org/10.1002/wcms.1327
  6. Neese,F.; Wennmohs,F.; Becker,U.; Riplinger,C.
     The ORCA quantum chemistry program package
     J. Chem. Phys., 2020 152 Art. No. L224108
     doi.org/10.1063/5.0004608

List of optional additional citations

  1. Neese,F.
     Approximate second-order SCF convergence for spin unrestricted wavefunctions
     Chem. Phys. Lett., 2000 325(1-3)93-98
     doi.org/10.1016/s0009-2614(00)00662-x

Timings for individual modules:

Sum of individual times          ...     1245.778 sec (=  20.763 min)
Startup calculation              ...       65.864 sec (=   1.098 min)   5.3 %
SCF iterations                   ...      835.385 sec (=  13.923 min)  67.1 %
Property integrals               ...       68.545 sec (=   1.142 min)   5.5 %
SCF Response                     ...       43.762 sec (=   0.729 min)   3.5 %
Property calculations            ...       89.085 sec (=   1.485 min)   7.2 %
SCF Gradient evaluation          ...      142.568 sec (=   2.376 min)  11.4 %
Geometry relaxation              ...        0.568 sec (=   0.009 min)   0.0 %
                             ****ORCA TERMINATED NORMALLY****
TOTAL RUN TIME: 0 days 0 hours 20 minutes 53 seconds 952 msec
