
                                 *****************
                                 * O   R   C   A *
                                 *****************

                                            #,                                       
                                            ###                                      
                                            ####                                     
                                            #####                                    
                                            ######                                   
                                           ########,                                 
                                     ,,################,,,,,                         
                               ,,#################################,,                 
                          ,,##########################################,,             
                       ,#########################################, ''#####,          
                    ,#############################################,,   '####,        
                  ,##################################################,,,,####,       
                ,###########''''           ''''###############################       
              ,#####''   ,,,,##########,,,,          '''####'''          '####       
            ,##' ,,,,###########################,,,                        '##       
           ' ,,###''''                  '''############,,,                           
         ,,##''                                '''############,,,,        ,,,,,,###''
      ,#''                                            '''#######################'''  
     '                                                          ''''####''''         
             ,#######,   #######,   ,#######,      ##                                
            ,#'     '#,  ##    ##  ,#'     '#,    #''#        ,####,   ,####,        
            ##       ##  ##   ,#'  ##            #'  '#       #'       #'  '#        
            ##       ##  #######   ##           ,######,      #####,   #    #        
            '#,     ,#'  ##    ##  '#,     ,#' ,#      #,     #,   #   #,  ,#        
             '#######'   ##     ##  '#######'  #'      '#     '####' # '####'        



                #########################################################
                #                        -***-                          #
                #          Department of theory and spectroscopy        #
                #                                                       #
                #                      Frank Neese                      #
                #                                                       #
                #     Directorship, Architecture, Infrastructure        #
                #                    SHARK, DRIVERS                     #
                #        Core code/Algorithms in most modules           #
                #                                                       #
                #        Max Planck Institute fuer Kohlenforschung      #
                #                Kaiser Wilhelm Platz 1                 #
                #                 D-45470 Muelheim/Ruhr                 #
                #                      Germany                          #
                #                                                       #
                #                  All rights reserved                  #
                #                        -***-                          #
                #########################################################


                         Program Version 6.0.1  -  RELEASE   -


 With contributions from (in alphabetic order):
[Max-Planck-Institut fuer Kohlenforschung]                               
  Daniel Aravena         : Magnetic Suceptibility                        
  Michael Atanasov       : Ab Initio Ligand Field Theory (pilot matlab implementation)
  Alexander A. Auer      : GIAO ZORA, VPT2 properties, NMR spectrum      
  Ute Becker             : All parallelization in ORCA, NUMFREQ, NUMCALC 
  Giovanni Bistoni       : ED, misc. LED, open-shell LED, HFLD           
  Martin Brehm           : Molecular dynamics                            
  Dmytro Bykov           : pre 5.0 version of the SCF Hessian            
  Marcos Casanova-Páez   : Triplet and SCS-CIS(D). UHF-(DLPNO)-IP/EA/STEOM-CCSD. UHF-CVS-IP/STEOM-CCSD   
  Vijay G. Chilkuri      : MRCI spin determinant printing, contributions to CSF-ICE 
  Pauline Colinet        : FMM embedding                                 
  Dipayan Datta          : RHF DLPNO-CCSD density                        
  Achintya Kumar Dutta   : EOM-CC, STEOM-CC                              
  Nicolas Foglia         : Exact transition moments, OPA infrastructure, MCD improvements    
  Dmitry Ganyushin       : Spin-Orbit,Spin-Spin,Magnetic field MRCI      
  Miquel Garcia-Rates    : C-PCM and meta-GGA Hessian, CCSD/C-PCM, Gaussian charge scheme 
  Tiago L. C. Gouveia    : GS-ROHF, GS-ROCIS                             
  Yang Guo               : DLPNO-NEVPT2, F12-NEVPT2, CIM, IAO-localization        
  Andreas Hansen         : Spin unrestricted coupled pair/coupled cluster methods 
  Ingolf Harden          : AUTO-CI MPn and infrastructure                
  Benjamin Helmich-Paris : MC-RPA, TRAH-(SCF,CASSCF), AVAS, COSX integrals, SCF dyn. polar. 
  Lee Huntington         : MR-EOM, pCC                                   
  Robert Izsak           : Overlap fitted RIJCOSX, COSX-SCS-MP3, EOM     
  Riya Kayal             : Wick's Theorem for AUTO-CI, AUTO-CI UHF-CCSDT 
  Emily Kempfer          : AUTO-CI, RHF CISDT and CCSDT                  
  Christian Kollmar      : KDIIS, OOCD, Brueckner-CCSD(T), CCSD density, CASPT2, CASPT2-K, improved NEVPT2 
  Axel Koslowski         : Symmetry handling                             
  Simone Kossmann        : meta-GGA functionals, TD-DFT gradient, OOMP2, (MP2 Hessian; deprecated post 5.0) 
  Lucas Lang             : DCDCAS                                        
  Marvin Lechner         : AUTO-CI (C++ implementation), FIC-MRCC        
  Spencer Leger          : CASSCF response                               
  Dagmar Lenk            : GEPOL surface, SMD, ORCA-2-JSON               
  Dimitrios Liakos       : Extrapolation schemes; Compound Job, initial MDCI parallelization 
  Dimitrios Manganas     : Further ROCIS development; embedding schemes. LFT, Crystal Embedding 
  Dimitrios Pantazis     : SARC Basis sets                               
  Anastasios Papadopoulos: AUTO-CI, single reference methods and gradients 
  Taras Petrenko         : pre 6.0 DFT Hessian and TD-DFT gradient, (ASA, deprecated), ECA, 1-Electron XAS/XES, NRVS 
  Peter Pinski           : DLPNO-MP2, DLPNO-MP2 Gradient                 
  Christoph Reimann      : Effective Core Potentials                     
  Marius Retegan         : Local ZFS, SOC                                
  Christoph Riplinger    : Optimizer, TS searches, QM/MM, DLPNO-CCSD(T), (RO)-DLPNO pert. Triples 
  Michael Roemelt        : Original ROCIS implementation                 
  Masaaki Saitow         : Open-shell DLPNO-CCSD energy and density      
  Barbara Sandhoefer     : DKH picture change effects                    
  Kantharuban Sivalingam : CASSCF convergence/infrastructure, NEVPT2 and variants, FIC-MRCI 
  Bernardo de Souza      : ESD, SOC TD-DFT                               
  Georgi L. Stoychev     : AutoAux, RI-MP2 NMR, DLPNO-MP2 response, X2C  
  Van Anh Tran           : RI-MP2 g-tensors                              
  Willem Van den Heuvel  : Paramagnetic NMR                              
  Zikuan Wang            : NOTCH, Electric field optimization            
  Frank Wennmohs         : Technical directorship and infrastructure     
  Hang Xu                : AUTO-CI-Response properties                   
                                                                         
[FACCTs GmbH]                                                            
  Markus Bursch, Miquel Garcia-Rates, Christoph Riplinger, Bernardo de Souza, Georgi L. Stoychev 
                                                                 
  APM, Basis sets (HGBS, AHGBS, def-TZVP (Ac-Lr), def2-XVPD (La-Lu)), CI-OPT, improved COSX, DLPNO-Multilevel,           
  DOCKER, DRACO, updates on ESD, GOAT, IRC, LR-CPCM, MBIS, meta-GGA TD-DFT gradient, ML-optimized integration grids, 
  MM, NACMEs, nearIR, NEB, NEB-TS, NL-DFT gradient (VV10), 2- and 3-layer-ONIOM, interface openCOSMO-RS, QMMM,   
  Crystal-QMMM, SF, symmetry and pop. for TD-DFT, r2SCAN hybrids, SOLVATOR                                   
                                                                         
[Other institutions]                                                     
  V. Asgeirsson          : NEB                                           
  Christoph Bannwarth    : sTDA-DFT, sTD-DFT, PBEh-3c, B97-3c, D3        
  Sebastian Ehlert       : rSCAN, r2SCAN, r2SCAN-3c, D4, dhf basis sets  
  Marvin Friede          : D4 for Fr, Ra, Ac-Lr                          
  Lars Goerigk           : TD-DFT with DH, B97 family of functionals     
  Stefan Grimme          : VdW corrections, initial TS optimization, DFT functionals, gCP, sTDA/sTD-DF 
  Waldemar Hujo          : DFT-NL                                        
  H. Jonsson             : NEB                                           
  Holger Kruse           : gCP                                           
  Marcel Mueller         : wB97X-3c, vDZP basis set                      
  Hagen Neugebauer       : wr2SCAN                                       
  Tobias Risthaus        : range-separated hybrid DFT                    
  Lukas Wittmann         : regularized MP2, r2SCAN double-hybrids, wr2SCAN        
                                                                         
We gratefully acknowledge several colleagues who have allowed us to      
interface, adapt or use parts of their codes:                            
  Ed Valeev, F. Pavosevic, A. Kumar             : LibInt (2-el integral package), F12 methods 
  Garnet Chan, S. Sharma, J. Yang, R. Olivares  : DMRG                   
  Ulf Ekstrom                                   : XCFun DFT Library      
  Mihaly Kallay                                 : mrcc  (arbitrary order and MRCC methods)
  Frank Weinhold                                : gennbo (NPA and NBO analysis)           
  Simon Mueller                                 : openCOSMO-RS                            
  Christopher J. Cramer and Donald G. Truhlar   : smd solvation model                     
  S Lehtola, MJT Oliveira, MAL Marques          : LibXC Library                           
  Liviu Ungur et al                             : ANISO software                          


 Your calculation uses the libint2 library for the computation of 2-el integrals
 For citations please refer to: http://libint.valeyev.net

 Your ORCA version has been built with support for libXC version: 6.2.2
 For citations please refer to: https://libxc.gitlab.io

 This ORCA versions uses:
   CBLAS   interface :  Fast vector & matrix operations
   LAPACKE interface :  Fast linear algebra routines
   SCALAPACK package :  Parallel linear algebra routines
   Shared memory     :  Shared parallel matrices
   BLAS/LAPACK       :  OpenBLAS 0.3.27  USE64BITINT DYNAMIC_ARCH NO_AFFINITY SkylakeX SINGLE_THREADED
        Core in use  :  SkylakeX
   Copyright (c) 2011-2014, The OpenBLAS Project


Your calculation utilizes the atom-pairwise dispersion correction
based on EEQ partial charges (D4)


================================================================================

cite the ECPs for C  [vDZP-ECP] as follows:
   B-Ne (ecp-2-mwb), Al-Ar (ecp-10-mwb), Ga-Kr (ecp-28-mwb), Y-Cd (ecp-28-mwb), In-Xe (ecp-46-mwb):
     A. Bergner, M. Dolg, W. Küchle, H. Stoll, and H. Preuß, Mol. Phys. 80, 1431 (1993)., T. Leininger, A. Berning, A. Nicklass, H. Stoll, H.-J. Werner, and H.-J.Flad, Chem. Phys. 217, 19 (1997).
   Na-Mg, K-Ca, Rb-Sr, Cs-Ba (CRENBL):
     L. Fernandez Pacios and P. A. Christiansen, J. Chem. Phys. 82, 2664 (1985)., M. M. Hurley, L. F. Pacios, P. A. Christiansen, R. B. Ross, and W. C. Ermler, J. Chem. Phys. 84, 6840 (1986)., L. A. LaJohn, P. A. Christiansen, R. B. Ross, T. Atashroo, and W. C. Ermler, J. Chem. Phys. 87, 2812 (1987)., R. B. Ross, J. M. Powers, T. Atashroo, W. C. Ermler, L. A. LaJohn, and P. A. Christiansen, J. Chem. Phys. 93, 6654 (1990). 
   Sc-Zn (ecp-10-mdf):
     M. Dolg, U. Wedig, H. Stoll, and H. Preuss, J. Chem. Phys. 86, 866 (1986). 
   Y-Cd (ecp-28-mwb), Hf-Hg (ecp-60-mwb):
     D. Andrae, U. Häußermann, M. Dolg, H. Stoll, and H. Preuß, Theor. Chim. Acta 77, 123 (1990). 
   La (ecp-46-mwb):
     M. Dolg, H. Stoll, and H. Preuss, J. Chem. Phys. 90, 1730 (1989)., M. Dolg, H. Stoll, and H. Preuss, Theor. Chim. Acta 85, 441 (1993).
   Ce-Lu (SBKJC-ecp):
     T. R. Cundari and W. J. Stevens, J. Chem. Phys. 98, 5555 (1993).
   Tl-Rn (ecp-78-mwb):
     W. Küchle, M. Dolg, H. Stoll, and H. Preuss, Mol. Phys. 74, 1245 (1991).

ECP parameters for C  [vDZP-ECP] have been obtained from:
MM, AH, SG, J. Chem. Phys. 158, 014103 (2023), 10.1063/5.0133026

----- Orbital basis set information -----
Your calculation utilizes the basis: vDZP
   Marcel Mueller, Andreas Hansen, Stefan Grimme 
   J. Chem. Phys. 158, 014103 (2023). DOI: 10.1063/5.0133026

----- AuxJ basis set information -----
Your calculation utilizes the auxiliary basis: def2/J
   F. Weigend, Phys. Chem. Chem. Phys. 8, 1057 (2006).

================================================================================
                                        WARNINGS
                       Please study these warnings very carefully!
================================================================================

WARNING: Frozen-Core approximation turned on, but there are no core electrons.
  ===> : Turning off frozen-core approximation


WARNING: Geometry Optimization
  ===> : Switching off AutoStart
         For restart on a previous wavefunction, please use MOREAD

================================================================================
                                       INPUT FILE
================================================================================
NAME = ./output/gamma_terpinene/gamma_terpinene.inp
|  1> ! wB97X-3c OPT FREQ TightSCF
|  2> %pal
|  3>   nprocs 40
|  4> end
|  5> * xyz 0 1
|  6> C      3.703430    -0.484233     0.243043
|  7> C      2.281139    -0.086065    -0.036662
|  8> C      1.772105     1.024702     0.528888
|  9> C      0.364133     1.472363     0.225703
| 10> C     -0.546993     0.294011    -0.060510
| 11> C     -0.030351    -0.818291    -0.629460
| 12> C      1.432452    -0.902518    -0.987558
| 13> C     -2.029329     0.402325     0.259697
| 14> C     -2.447409    -0.635828     1.307573
| 15> C     -2.885666     0.286117    -1.007380
| 16> H      3.982510    -1.394361    -0.328335
| 17> H      3.828002    -0.693895     1.326370
| 18> H      4.389535     0.338006    -0.051224
| 19> H      2.382806     1.629641     1.193729
| 20> H      0.384220     2.131933    -0.667411
| 21> H     -0.017257     2.060590     1.087184
| 22> H     -0.666109    -1.666968    -0.861675
| 23> H      1.570595    -0.509504    -2.016905
| 24> H      1.747485    -1.967577    -0.972584
| 25> H     -2.231438     1.405973     0.694863
| 26> H     -3.507622    -0.476408     1.598619
| 27> H     -1.818230    -0.532146     2.217460
| 28> H     -2.341049    -1.668548     0.912847
| 29> H     -3.952601     0.476253    -0.763038
| 30> H     -2.802903    -0.725905    -1.457170
| 31> H     -2.561458     1.040332    -1.756064
| 32> *
| 33> 
| 34>                          ****END OF INPUT****
================================================================================

                       *****************************
                       * Geometry Optimization Run *
                       *****************************

Geometry optimization settings:
Update method            Update   .... BFGS
Choice of coordinates    CoordSys .... (2022) Redundant Internals
Initial Hessian          InHess   .... Almloef's Model
Max. no of cycles        MaxIter  .... 78

Convergence Tolerances:
Energy Change            TolE     ....  5.0000e-06 Eh
Max. Gradient            TolMAXG  ....  3.0000e-04 Eh/bohr
RMS Gradient             TolRMSG  ....  1.0000e-04 Eh/bohr
Max. Displacement        TolMAXD  ....  4.0000e-03 bohr
RMS Displacement         TolRMSD  ....  2.0000e-03 bohr
Strict Convergence                .... False

------------------------------------------------------------------------------
                        ORCA OPTIMIZATION COORDINATE SETUP
------------------------------------------------------------------------------

The optimization will be done in redundant internal coordinates (2022)
Making redundant internal coordinates   ...  (2022 redundants) done
Evaluating the initial hessian          ...  (Almloef) done
Evaluating the coordinates              ...  done
Calculating the B-matrix                .... done
Calculating the G-matrix                .... done
Diagonalizing the G-matrix              .... done
Small eigenvalue found = 2.256e-02
Small eigenvalue found = 2.334e-02
The first mode is                       ....   52
The number of degrees of freedom        ....   72

    -----------------------------------------------------------------
                    Redundant Internal Coordinates


    -----------------------------------------------------------------
         Definition                    Initial Value    Approx d2E/dq
    -----------------------------------------------------------------
      1. B(C   1,C   0)                  1.5032         0.412188   
      2. B(C   2,C   1)                  1.3464         0.733357   
      3. B(C   3,C   2)                  1.5082         0.404704   
      4. B(C   4,C   3)                  1.5168         0.392184   
      5. B(C   5,C   4)                  1.3520         0.718462   
      6. B(C   6,C   5)                  1.5084         0.404500   
      7. B(C   6,C   1)                  1.5136         0.396733   
      8. B(C   7,C   4)                  1.5204         0.386999   
      9. B(C   8,C   7)                  1.5332         0.369256   
     10. B(C   9,C   7)                  1.5337         0.368502   
     11. B(H  10,C   0)                  1.1103         0.334264   
     12. B(H  11,C   0)                  1.1104         0.334053   
     13. B(H  12,C   0)                  1.1106         0.333867   
     14. B(H  13,C   2)                  1.0867         0.364490   
     15. B(H  14,C   3)                  1.1104         0.334044   
     16. B(H  15,C   3)                  1.1107         0.333751   
     17. B(H  16,C   5)                  1.0855         0.366069   
     18. B(H  17,C   6)                  1.1104         0.334039   
     19. B(H  18,C   6)                  1.1108         0.333640   
     20. B(H  19,C   7)                  1.1124         0.331603   
     21. B(H  20,C   8)                  1.1109         0.333445   
     22. B(H  21,C   8)                  1.1111         0.333260   
     23. B(H  22,C   8)                  1.1107         0.333744   
     24. B(H  23,C   9)                  1.1109         0.333428   
     25. B(H  24,C   9)                  1.1106         0.333900   
     26. B(H  25,C   9)                  1.1111         0.333277   
     27. A(C   1,C   0,H  11)          109.7357         0.325562   
     28. A(H  10,C   0,H  11)          108.6081         0.284122   
     29. A(C   1,C   0,H  12)          109.8231         0.325532   
     30. A(C   1,C   0,H  10)          111.0511         0.325596   
     31. A(H  10,C   0,H  12)          108.3763         0.284098   
     32. A(H  11,C   0,H  12)          109.2068         0.284070   
     33. A(C   0,C   1,C   2)          119.8731         0.415798   
     34. A(C   2,C   1,C   6)          119.7954         0.412983   
     35. A(C   0,C   1,C   6)          120.3001         0.373373   
     36. A(C   1,C   2,H  13)          120.2498         0.363885   
     37. A(C   3,C   2,H  13)          118.8410         0.329279   
     38. A(C   1,C   2,C   3)          120.8891         0.414445   
     39. A(C   4,C   3,H  15)          110.5812         0.322865   
     40. A(H  14,C   3,H  15)          108.3891         0.284054   
     41. A(C   2,C   3,H  15)          108.7741         0.324535   
     42. A(C   2,C   3,C   4)          111.5997         0.371458   
     43. A(C   4,C   3,H  14)          108.6958         0.322912   
     44. A(C   2,C   3,H  14)          108.7290         0.324581   
     45. A(C   5,C   4,C   7)          121.3199         0.409674   
     46. A(C   3,C   4,C   5)          119.2761         0.410641   
     47. A(C   3,C   4,C   7)          119.3787         0.368612   
     48. A(C   6,C   5,H  16)          118.2643         0.329486   
     49. A(C   4,C   5,C   6)          121.0944         0.412900   
     50. A(C   4,C   5,H  16)          120.6260         0.362879   
     51. A(C   1,C   6,H  18)          110.4696         0.323459   
     52. A(C   5,C   6,H  17)          108.7206         0.324554   
     53. A(C   1,C   6,H  17)          108.7646         0.323522   
     54. A(C   1,C   6,C   5)          111.3768         0.372164   
     55. A(H  17,C   6,H  18)          108.4556         0.284038   
     56. A(C   5,C   6,H  18)          108.9894         0.324490   
     57. A(C   8,C   7,C   9)          111.1670         0.361785   
     58. A(C   4,C   7,C   9)          111.4060         0.364698   
     59. A(C   4,C   7,C   8)          111.1967         0.364826   
     60. A(C   9,C   7,H  19)          106.8634         0.319255   
     61. A(C   8,C   7,H  19)          107.0979         0.319361   
     62. A(C   4,C   7,H  19)          108.8925         0.321822   
     63. A(H  21,C   8,H  22)          108.8791         0.283949   
     64. A(H  20,C   8,H  22)          108.5373         0.283973   
     65. A(C   7,C   8,H  22)          111.1362         0.319697   
     66. A(H  20,C   8,H  21)          108.2092         0.283909   
     67. A(C   7,C   8,H  21)          110.0050         0.319621   
     68. A(C   7,C   8,H  20)          110.0067         0.319650   
     69. A(H  24,C   9,H  25)          108.9006         0.283972   
     70. A(H  23,C   9,H  25)          108.1957         0.283909   
     71. A(C   7,C   9,H  25)          110.0192         0.319518   
     72. A(H  23,C   9,H  24)          108.4581         0.283992   
     73. A(C   7,C   9,H  24)          111.2252         0.319615   
     74. A(C   7,C   9,H  23)          109.9713         0.319541   
     75. D(C   2,C   1,C   0,H  10)   -177.6439         0.012579   
     76. D(C   2,C   1,C   0,H  12)    -57.7879         0.012579   
     77. D(C   2,C   1,C   0,H  11)     62.2680         0.012579   
     78. D(C   6,C   1,C   0,H  11)   -119.7749         0.012579   
     79. D(C   6,C   1,C   0,H  10)      0.3131         0.012579   
     80. D(C   3,C   2,C   1,C   0)    177.8084         0.038192   
     81. D(C   3,C   2,C   1,C   6)     -0.1591         0.038192   
     82. D(H  13,C   2,C   1,C   6)   -178.5100         0.038192   
     83. D(H  13,C   2,C   1,C   0)     -0.5426         0.038192   
     84. D(H  15,C   3,C   2,C   1)    153.5300         0.012143   
     85. D(H  14,C   3,C   2,H  13)     89.7484         0.012143   
     86. D(C   4,C   3,C   2,H  13)   -150.3664         0.012143   
     87. D(C   4,C   3,C   2,C   1)     31.2598         0.012143   
     88. D(H  14,C   3,C   2,C   1)    -88.6254         0.012143   
     89. D(C   5,C   4,C   3,C   2)    -30.8380         0.011436   
     90. D(C   7,C   4,C   3,C   2)    150.9659         0.011436   
     91. D(C   7,C   4,C   3,H  14)    -89.1294         0.011436   
     92. D(C   5,C   4,C   3,H  15)   -152.0638         0.011436   
     93. D(C   5,C   4,C   3,H  14)     89.0667         0.011436   
     94. D(H  16,C   5,C   4,C   7)     -0.6363         0.036520   
     95. D(H  16,C   5,C   4,C   3)   -178.7962         0.036520   
     96. D(C   6,C   5,C   4,C   7)    177.9170         0.036520   
     97. D(C   6,C   5,C   4,C   3)     -0.2429         0.036520   
     98. D(C   1,C   6,C   5,H  16)   -150.2219         0.012131   
     99. D(C   1,C   6,C   5,C   4)     31.1916         0.012131   
    100. D(H  18,C   6,C   1,C   0)     29.8925         0.011690   
    101. D(H  17,C   6,C   1,C   2)     88.9242         0.011690   
    102. D(H  17,C   6,C   1,C   0)    -89.0344         0.011690   
    103. D(C   5,C   6,C   1,C   2)    -30.8773         0.011690   
    104. D(H  17,C   6,C   5,C   4)    -88.6360         0.012131   
    105. D(C   5,C   6,C   1,C   0)    151.1641         0.011690   
    106. D(H  18,C   6,C   5,C   4)    153.3227         0.012131   
    107. D(H  17,C   6,C   5,H  16)     89.9506         0.012131   
    108. D(H  19,C   7,C   4,C   3)     -0.3911         0.011152   
    109. D(C   9,C   7,C   4,C   5)    -60.9369         0.011152   
    110. D(C   9,C   7,C   4,C   3)    117.2212         0.011152   
    111. D(C   8,C   7,C   4,C   5)     63.6749         0.011152   
    112. D(C   8,C   7,C   4,C   3)   -118.1670         0.011152   
    113. D(H  21,C   8,C   7,H  19)    -63.3938         0.010903   
    114. D(H  21,C   8,C   7,C   9)   -179.7897         0.010903   
    115. D(H  21,C   8,C   7,C   4)     55.4640         0.010903   
    116. D(H  20,C   8,C   7,H  19)     55.7149         0.010903   
    117. D(H  20,C   8,C   7,C   9)    -60.6810         0.010903   
    118. D(H  20,C   8,C   7,C   4)    174.5727         0.010903   
    119. D(H  24,C   9,C   7,H  19)   -175.3141         0.010861   
    120. D(H  24,C   9,C   7,C   8)    -58.7744         0.010861   
    121. D(H  24,C   9,C   7,C   4)     65.8541         0.010861   
    122. D(H  23,C   9,C   7,H  19)    -55.1471         0.010861   
    123. D(H  23,C   9,C   7,C   8)     61.3926         0.010861   
    124. D(H  23,C   9,C   7,C   4)   -173.9790         0.010861   
    -----------------------------------------------------------------

Number of atoms                         .... 26
Number of degrees of freedom            .... 124


         *************************************************************
         *                GEOMETRY OPTIMIZATION CYCLE   1            *
         *************************************************************
---------------------------------
CARTESIAN COORDINATES (ANGSTROEM)
---------------------------------
  C      3.703430   -0.484233    0.243043
  C      2.281139   -0.086065   -0.036662
  C      1.772105    1.024702    0.528888
  C      0.364133    1.472363    0.225703
  C     -0.546993    0.294011   -0.060510
  C     -0.030351   -0.818291   -0.629460
  C      1.432452   -0.902518   -0.987558
  C     -2.029329    0.402325    0.259697
  C     -2.447409   -0.635828    1.307573
  C     -2.885666    0.286117   -1.007380
  H      3.982510   -1.394361   -0.328335
  H      3.828002   -0.693895    1.326370
  H      4.389535    0.338006   -0.051224
  H      2.382806    1.629641    1.193729
  H      0.384220    2.131933   -0.667411
  H     -0.017257    2.060590    1.087184
  H     -0.666109   -1.666968   -0.861675
  H      1.570595   -0.509504   -2.016905
  H      1.747485   -1.967577   -0.972584
  H     -2.231438    1.405973    0.694863
  H     -3.507622   -0.476408    1.598619
  H     -1.818230   -0.532146    2.217460
  H     -2.341049   -1.668548    0.912847
  H     -3.952601    0.476253   -0.763038
  H     -2.802903   -0.725905   -1.457170
  H     -2.561458    1.040332   -1.756064

----------------------------
CARTESIAN COORDINATES (A.U.)
----------------------------
  NO LB      ZA    FRAG     MASS         X           Y           Z
   0 C     4.0000*   0    12.011    6.998468   -0.915068    0.459285
   1 C     4.0000*   0    12.011    4.310728   -0.162639   -0.069281
   2 C     4.0000*   0    12.011    3.348793    1.936406    0.999453
   3 C     4.0000*   0    12.011    0.688112    2.782363    0.426517
   4 C     4.0000*   0    12.011   -1.033667    0.555600   -0.114347
   5 C     4.0000*   0    12.011   -0.057355   -1.546346   -1.189507
   6 C     4.0000*   0    12.011    2.706942   -1.705512   -1.866214
   7 C     4.0000*   0    12.011   -3.834876    0.760284    0.490756
   8 C     4.0000*   0    12.011   -4.624933   -1.201541    2.470955
   9 C     4.0000*   0    12.011   -5.453118    0.540683   -1.903672
  10 H     1.0000    0     1.008    7.525853   -2.634960   -0.620463
  11 H     1.0000    0     1.008    7.233875   -1.311272    2.506476
  12 H     1.0000    0     1.008    8.295019    0.638739   -0.096799
  13 H     1.0000    0     1.008    4.502851    3.079575    2.255821
  14 H     1.0000    0     1.008    0.726071    4.028770   -1.261224
  15 H     1.0000    0     1.008   -0.032611    3.893951    2.054480
  16 H     1.0000    0     1.008   -1.258764   -3.150113   -1.628330
  17 H     1.0000    0     1.008    2.967994   -0.962823   -3.811398
  18 H     1.0000    0     1.008    3.302268   -3.718182   -1.837917
  19 H     1.0000    0     1.008   -4.216807    2.656904    1.313101
  20 H     1.0000    0     1.008   -6.628445   -0.900281    3.020952
  21 H     1.0000    0     1.008   -3.435957   -1.005610    4.190392
  22 H     1.0000    0     1.008   -4.423941   -3.153099    1.725031
  23 H     1.0000    0     1.008   -7.469333    0.899988   -1.441933
  24 H     1.0000    0     1.008   -5.296719   -1.371762   -2.753652
  25 H     1.0000    0     1.008   -4.840454    1.965943   -3.318480
* core charge reduced due to ECP

--------------------------------
INTERNAL COORDINATES (ANGSTROEM)
--------------------------------
 C      0   0   0     0.000000000000     0.00000000     0.00000000
 C      1   0   0     1.503224644533     0.00000000     0.00000000
 C      2   1   0     1.346389892990   119.87311673     0.00000000
 C      3   2   1     1.508213071131   120.88906854   177.80836037
 C      4   3   2     1.516766925124   111.59969259    31.25982406
 C      5   4   3     1.351975886570   119.27612536   329.16198667
 C      6   5   4     1.508350417490   121.09438400   359.75707067
 C      5   4   3     1.520389575846   119.37872116   150.96586568
 C      8   5   4     1.533165564831   111.19672178   241.83299493
 C      8   5   4     1.533721448230   111.40596062   117.22119418
 H      1   2   3     1.110266383202   111.05114677   182.35605358
 H      1   2   3     1.110438528851   109.73565691    62.26803730
 H      1   2   3     1.110589983493   109.82306333   302.21205308
 H      3   2   1     1.086701642772   120.24980425   359.45742168
 H      4   3   2     1.110445266308   108.72896104   271.37464955
 H      4   3   2     1.110683955493   108.77405476   153.53002010
 H      6   5   4     1.085525076227   120.62601484   181.20378472
 H      7   6   5     1.110449791325   108.72061545   271.36399294
 H      7   6   5     1.110774813023   108.98939002   153.32268108
 H      8   5   4     1.112441820205   108.89246962   359.60888467
 H      9   8   5     1.110933893571   110.00670573   174.57267903
 H      9   8   5     1.111085291026   110.00501558    55.46395506
 H      9   8   5     1.110689724035   111.13615066   294.80462253
 H     10   8   5     1.110947796112   109.97129104   186.02103179
 H     10   8   5     1.110562599205   111.22517707    65.85405521
 H     10   8   5     1.111071026238   110.01916900   305.10002591

---------------------------
INTERNAL COORDINATES (A.U.)
---------------------------
 C      0   0   0     0.000000000000     0.00000000     0.00000000
 C      1   0   0     2.840682895928     0.00000000     0.00000000
 C      2   1   0     2.544308167230   119.87311673     0.00000000
 C      3   2   1     2.850109656038   120.88906854   177.80836037
 C      4   3   2     2.866274097474   111.59969259    31.25982406
 C      5   4   3     2.554864165284   119.27612536   329.16198667
 C      6   5   4     2.850369203042   121.09438400   359.75707067
 C      5   4   3     2.873119915218   119.37872116   150.96586568
 C      8   5   4     2.897263035490   111.19672178   241.83299493
 C      8   5   4     2.898313502877   111.40596062   117.22119418
 H      1   2   3     2.098099399951   111.05114677   182.35605358
 H      1   2   3     2.098424708083   109.73565691    62.26803730
 H      1   2   3     2.098710915878   109.82306333   302.21205308
 H      3   2   1     2.053568494121   120.24980425   359.45742168
 H      4   3   2     2.098437440031   108.72896104   271.37464955
 H      4   3   2     2.098888497223   108.77405476   153.53002010
 H      6   5   4     2.051345105573   120.62601484   181.20378472
 H      7   6   5     2.098445991074   108.72061545   271.36399294
 H      7   6   5     2.099060193071   108.98939002   153.32268108
 H      8   5   4     2.102210380108   108.89246962   359.60888467
 H      9   8   5     2.099360811740   110.00670573   174.57267903
 H      9   8   5     2.099646911467   110.00501558    55.46395506
 H      9   8   5     2.098899398186   111.13615066   294.80462253
 H     10   8   5     2.099387083734   109.97129104   186.02103179
 H     10   8   5     2.098659167073   111.22517707    65.85405521
 H     10   8   5     2.099619954924   110.01916900   305.10002591

---------------------
BASIS SET INFORMATION
---------------------
There are 2 groups of distinct atoms

 Group   1 Type C   : 6s6p2d contracted to 2s2p1d pattern {42/42/2}
 Group   2 Type H   : 8s2p contracted to 2s1p pattern {53/2}

Atom   0C    basis set group =>   1
Atom   1C    basis set group =>   1
Atom   2C    basis set group =>   1
Atom   3C    basis set group =>   1
Atom   4C    basis set group =>   1
Atom   5C    basis set group =>   1
Atom   6C    basis set group =>   1
Atom   7C    basis set group =>   1
Atom   8C    basis set group =>   1
Atom   9C    basis set group =>   1
Atom  10H    basis set group =>   2
Atom  11H    basis set group =>   2
Atom  12H    basis set group =>   2
Atom  13H    basis set group =>   2
Atom  14H    basis set group =>   2
Atom  15H    basis set group =>   2
Atom  16H    basis set group =>   2
Atom  17H    basis set group =>   2
Atom  18H    basis set group =>   2
Atom  19H    basis set group =>   2
Atom  20H    basis set group =>   2
Atom  21H    basis set group =>   2
Atom  22H    basis set group =>   2
Atom  23H    basis set group =>   2
Atom  24H    basis set group =>   2
Atom  25H    basis set group =>   2
---------------------------------
AUXILIARY/J BASIS SET INFORMATION
---------------------------------
There are 2 groups of distinct atoms

 Group   1 Type C   : 12s5p4d2f1g contracted to 6s4p3d1f1g pattern {711111/2111/211/2/1}
 Group   2 Type H   : 5s2p1d contracted to 3s1p1d pattern {311/2/1}

Atom   0C    basis set group =>   1
Atom   1C    basis set group =>   1
Atom   2C    basis set group =>   1
Atom   3C    basis set group =>   1
Atom   4C    basis set group =>   1
Atom   5C    basis set group =>   1
Atom   6C    basis set group =>   1
Atom   7C    basis set group =>   1
Atom   8C    basis set group =>   1
Atom   9C    basis set group =>   1
Atom  10H    basis set group =>   2
Atom  11H    basis set group =>   2
Atom  12H    basis set group =>   2
Atom  13H    basis set group =>   2
Atom  14H    basis set group =>   2
Atom  15H    basis set group =>   2
Atom  16H    basis set group =>   2
Atom  17H    basis set group =>   2
Atom  18H    basis set group =>   2
Atom  19H    basis set group =>   2
Atom  20H    basis set group =>   2
Atom  21H    basis set group =>   2
Atom  22H    basis set group =>   2
Atom  23H    basis set group =>   2
Atom  24H    basis set group =>   2
Atom  25H    basis set group =>   2
-------------------------
ECP PARAMETER INFORMATION
-------------------------

 Group 1, Type C  ECP vDZP-ECP (replacing 2 core electrons, lmax=3)

Atom   0C    ECP group =>   1
Atom   1C    ECP group =>   1
Atom   2C    ECP group =>   1
Atom   3C    ECP group =>   1
Atom   4C    ECP group =>   1
Atom   5C    ECP group =>   1
Atom   6C    ECP group =>   1
Atom   7C    ECP group =>   1
Atom   8C    ECP group =>   1
Atom   9C    ECP group =>   1



           ************************************************************
           *        Program running with 40 parallel MPI-processes    *
           *              working on a common directory               *
           ************************************************************
------------------------------------------------------------------------------
                             ORCA STARTUP CALCULATIONS
                           -- RI-GTO INTEGRALS CHOSEN --
------------------------------------------------------------------------------
------------------------------------------------------------------------------
                   ___                                                        
                  /   \      - P O W E R E D   B Y -                         
                 /     \                                                     
                 |  |  |   _    _      __       _____    __    __             
                 |  |  |  | |  | |    /  \     |  _  \  |  |  /  |          
                  \  \/   | |  | |   /    \    | | | |  |  | /  /          
                 / \  \   | |__| |  /  /\  \   | |_| |  |  |/  /          
                |  |  |   |  __  | /  /__\  \  |    /   |      \           
                |  |  |   | |  | | |   __   |  |    \   |  |\   \          
                \     /   | |  | | |  |  |  |  | |\  \  |  | \   \       
                 \___/    |_|  |_| |__|  |__|  |_| \__\ |__|  \__/        
                                                                              
                      - O R C A' S   B I G   F R I E N D -                    
                                      &                                       
                       - I N T E G R A L  F E E D E R -                       
                                                                              
 v1 FN, 2020, v2 2021, v3 2022-2024                                           
------------------------------------------------------------------------------


----------------------
SHARK INTEGRAL PACKAGE
----------------------

Number of atoms                             ...     26
Number of basis functions                   ...    210
Number of shells                            ...     98
Maximum angular momentum                    ...      2
Integral batch strategy                     ... SHARK/LIBINT Hybrid
RI-J (if used) integral strategy            ... SPLIT-RIJ (Revised 2003 algorithm where possible)
Printlevel                                  ...      1
Contraction scheme used                     ... SEGMENTED contraction
Prescreening option                         ... SCHWARTZ
   Thresh                                   ... 2.500e-11
   Tcut                                     ... 2.500e-12
   Tpresel                                  ... 2.500e-12 
Coulomb Range Separation                    ... NOT USED
Exchange Range Separation                   ... Long Range
   Mu parameter                             ... 3.000e-01
   Scaling (regular/separated)              ... 1.670e-01 8.330e-01
Multipole approximations                    ... NOT USED
Finite Nucleus Model                        ... NOT USED
CABS basis                                  ... NOT available
Auxiliary Coulomb fitting basis             ... AVAILABLE
   # of basis functions in Aux-J            ...    666
   # of shells in Aux-J                     ...    230
   Maximum angular momentum in Aux-J        ...      4
Auxiliary J/K fitting basis                 ... NOT available
Auxiliary Correlation fitting basis         ... NOT available
Auxiliary 'external' fitting basis          ... NOT available

Checking pre-screening integrals            ... done (  0.0 sec) Dimension = 98
Check shell pair data                       ... done (  0.0 sec)
Shell pair information
Shell pair cut-off parameter TPreSel        ...   2.5e-12
Total number of shell pairs                 ...      4851
Shell pairs after pre-screening             ...      4830
Total number of primitive shell pairs       ...     45524
Primitive shell pairs kept                  ...     36465
          la=0 lb=0:   1374 shell pairs
          la=1 lb=0:   1863 shell pairs
          la=1 lb=1:    658 shell pairs
          la=2 lb=0:    520 shell pairs
          la=2 lb=1:    360 shell pairs
          la=2 lb=2:     55 shell pairs

Calculating one electron integrals          ... done (  0.0 sec)
Calculating ECP integrals                   ... done (  0.1 sec)
Calculating RI/J V-Matrix + Cholesky decomp.... done (  0.1 sec)
Calculating Nuclear repulsion               ... done (  0.0 sec) ENN=    282.236079317022 Eh

Diagonalization of the overlap matrix:
Smallest eigenvalue                        ... 9.017e-04
Time for diagonalization                   ...    0.007 sec
Threshold for overlap eigenvalues          ... 1.000e-07
Number of eigenvalues below threshold      ... 0
Time for construction of square roots      ...    0.004 sec
Total time needed                          ...    0.022 sec

-------------------
DFT GRID GENERATION
-------------------

General Integration Accuracy     IntAcc      ... 4.388
Radial Grid Type                 RadialGrid  ... OptM3 with GC (2021)
Angular Grid (max. ang.)         AngularGrid ... 4 (Lebedev-302)
Angular grid pruning method      GridPruning ... 4 (adaptive)
Weight generation scheme         WeightScheme... mBecke (2022)
Basis function cutoff            BFCut       ... 1.0000e-11
Integration weight cutoff        WCut        ... 1.0000e-14
Partially contracted basis set               ... off
Rotationally invariant grid construction     ... off
Angular grids for H and He will be reduced by one unit

Total number of grid points                  ...   110911
Total number of batches                      ...     1748
Average number of points per batch           ...       63
Average number of grid points per atom       ...     4266

--------------------
COSX GRID GENERATION
--------------------

GRIDX 1
-------
General Integration Accuracy     IntAcc      ... 3.816
Radial Grid Type                 RadialGrid  ... OptM3 with GC (2021)
Angular Grid (max. ang.)         AngularGrid ... 1 (Lebedev-50)
Angular grid pruning method      GridPruning ... 4 (adaptive)
Weight generation scheme         WeightScheme... mBecke (2022)
Basis function cutoff            BFCut       ... 1.0000e-11
Integration weight cutoff        WCut        ... 1.0000e-14
Partially contracted basis set               ... on
Rotationally invariant grid construction     ... off
Angular grids for H and He will be reduced by one unit

Total number of grid points                  ...    14212
Total number of batches                      ...      129
Average number of points per batch           ...      110
Average number of grid points per atom       ...      547
UseSFitting                                  ... on

GRIDX 2
-------
General Integration Accuracy     IntAcc      ... 4.020
Radial Grid Type                 RadialGrid  ... OptM3 with GC (2021)
Angular Grid (max. ang.)         AngularGrid ... 2 (Lebedev-110)
Angular grid pruning method      GridPruning ... 4 (adaptive)
Weight generation scheme         WeightScheme... mBecke (2022)
Basis function cutoff            BFCut       ... 1.0000e-11
Integration weight cutoff        WCut        ... 1.0000e-14
Partially contracted basis set               ... on
Rotationally invariant grid construction     ... off
Angular grids for H and He will be reduced by one unit

Total number of grid points                  ...    29657
Total number of batches                      ...      247
Average number of points per batch           ...      120
Average number of grid points per atom       ...     1141
UseSFitting                                  ... on

GRIDX 3
-------
General Integration Accuracy     IntAcc      ... 4.338
Radial Grid Type                 RadialGrid  ... OptM3 with GC (2021)
Angular Grid (max. ang.)         AngularGrid ... 3 (Lebedev-194)
Angular grid pruning method      GridPruning ... 4 (adaptive)
Weight generation scheme         WeightScheme... mBecke (2022)
Basis function cutoff            BFCut       ... 1.0000e-11
Integration weight cutoff        WCut        ... 1.0000e-14
Partially contracted basis set               ... on
Rotationally invariant grid construction     ... off
Angular grids for H and He will be reduced by one unit

Total number of grid points                  ...    64566
Total number of batches                      ...      520
Average number of points per batch           ...      124
Average number of grid points per atom       ...     2483
UseSFitting                                  ... on
Initializing property integral containers    ... done (  0.0 sec)

SHARK setup successfully completed in   3.6 seconds

Maximum memory used throughout the entire STARTUP-calculation: 31.6 MB


           ************************************************************
           *        Program running with 40 parallel MPI-processes    *
           *              working on a common directory               *
           ************************************************************
-------------------------------------------------------------------------------
                                 ORCA GUESS
                   Start orbitals & Density for SCF / CASSCF
-------------------------------------------------------------------------------

------------
SCF SETTINGS
------------
Hamiltonian:
 Density Functional     Method          .... DFT(GTOs)
 Exchange Functional    Exchange        .... WB97X-V
 Correlation Functional Correlation     .... WB97X-V
 Gradients option       PostSCFGGA      .... off
 Hybrid DFT is turned on
   Fraction HF Exchange ScalHFX         ....  0.167000
   Scaling of DF-GGA-X  ScalDFX         ....  0.000000
   Scaling of DF-GGA-C  ScalDFC         ....  1.000000
   Scaling of DF-LDA-C  ScalLDAC        ....  1.000000
   Perturbative correction              ....  0.000000
 Long-range corrected/Screened/Range-Separated Hybrid DFT is turned on
   Amount of maximum screened exact exchange              ....  0.833000
   Range separation parameter mu (erf(mu*r12)/r12)        ....  0.300000
   NL short-range parameter             ....  6.000000
   NL long-range parameter              ....  0.010000
 RI-approximation to the Coulomb term is turned on
   Number of AuxJ basis functions       .... 666
   RIJ-COSX (HFX calculated with COS-X)).... on


General Settings:
 Integral files         IntName         .... ./output/gamma_terpinene/gamma_terpinene
 Hartree-Fock type      HFTyp           .... RHF
 Total Charge           Charge          ....    0
 Multiplicity           Mult            ....    1
 Number of Electrons    NEL             ....   56
 Basis Dimension        Dim             ....  210
 Nuclear Repulsion      ENuc            ....    282.2360793170 Eh

Convergence Acceleration:
 AO-DIIS                CNVDIIS         .... on
   Start iteration      DIISMaxIt       ....    12
   Startup error        DIISStart       ....  0.200000
   # of expansion vecs  DIISMaxEq       ....     5
   Bias factor          DIISBfac        ....   1.050
   Max. coefficient     DIISMaxC        ....  10.000
 MO-DIIS                CNVKDIIS        .... off
 Trust-Rad. Augm. Hess. CNVTRAH         .... auto
   Auto Start mean grad. ratio tolernc. ....  1.125000
   Auto Start start iteration           ....    50
   Auto Start num. interpolation iter.  ....    10
   Max. Number of Micro iterations      ....    24
   Max. Number of Macro iterations      .... Maxiter - #DIIS iter
   Number of Davidson start vectors     ....     2
   Converg. threshold    (grad. norm)   ....   1.000e-05
   Grad. Scal. Fac. for Micro threshold ....   0.100
   Minimum threshold for Micro iter.    ....   1.000e-02
   NR start threshold (gradient norm)   ....   1.000e-04
   Initial trust radius                 ....   0.400
   Minimum AH scaling param. (alpha)    ....   1.000
   Maximum AH scaling param. (alpha)    .... 1000.000
   Quad. conv. algorithm                .... NR
   White noise on init. David. guess    .... on
   Maximum white noise                  ....   0.010
   Pseudo random numbers                .... off
   Inactive MOs                         .... canonical
   Orbital update algorithm             .... Taylor
   Preconditioner                       .... Diag
   Full preconditioner red. dimension   ....   250
 SOSCF                  CNVSOSCF        .... on
   Start iteration      SOSCFMaxIt      ....   150
   Startup grad/error   SOSCFStart      ....  0.003300
   Hessian update       SOSCFHessUp     .... L-BFGS
 Level Shifting         CNVShift        .... on
   Level shift para.    LevelShift      ....    0.2500
   Turn off err/grad.   ShiftErr        ....    0.0010
 Zerner damping         CNVZerner       .... off
 Static damping         CNVDamp         .... on
   Fraction old density DampFac         ....    0.7000
   Max. Damping (<1)    DampMax         ....    0.9800
   Min. Damping (>=0)   DampMin         ....    0.0000
   Turn off err/grad.   DampErr         ....    0.1000

SCF Procedure:
 Maximum # iterations   MaxIter         ....   125
 SCF integral mode      SCFMode         .... Direct
   Integral package                     .... SHARK and LIBINT hybrid scheme
 Reset frequency        DirectResetFreq ....    20
 Integral Threshold     Thresh          ....  2.500e-11 Eh
 Primitive CutOff       TCut            ....  2.500e-12 Eh

Convergence Tolerance:
 Convergence Check Mode ConvCheckMode   .... Total+1el-Energy
 Convergence forced     ConvForced      .... 0
 Energy Change          TolE            ....  1.000e-08 Eh
 1-El. energy change                    ....  1.000e-05 Eh
 Orbital Gradient       TolG            ....  1.000e-05
 Orbital Rotation angle TolX            ....  1.000e-05
 DIIS Error             TolErr          ....  5.000e-07

------------------------------
INITIAL GUESS: MODEL POTENTIAL
------------------------------
Loading Hartree-Fock densities                     ... done
Atomic calculation to generate a density for atom 0 (C  with ECP)
  Multiplicity assumed   :    1
  Atomic configuration   : 1s2 2s2 2p2 
  Number of open shells  : 1
  Command: /home/aspe232/Project/Software/ORCA/6_0_1/build/orca ./output/gamma_terpinene/gamma_terpinene_atom6.inp "" > ./output/gamma_terpinene/gamma_terpinene_atom6.out
Returned from the atomic calculation with res=0
Calculating cut-offs                               ... done
Initializing the effective Hamiltonian             ... done
Setting up the integral package (SHARK)            ... done
Starting the Coulomb interaction                   ... done (   0.1 sec)
Making the grid                                    ... done (   0.7 sec)
Mapping shells                                     ... done
Starting the XC term evaluation                    ... done (   0.0 sec)
  promolecular density results
     # of electrons  =     75.996200018
     EX              =    -36.893913037
     EC              =     -3.019547130
     EX+EC           =    -39.913460168
Transforming the Hamiltonian                       ... done (   0.1 sec)
Diagonalizing the Hamiltonian                      ... done (   0.1 sec)
Back transforming the eigenvectors                 ... done (   0.0 sec)
Now organizing SCF variables                       ... done
                      ------------------
                      INITIAL GUESS DONE (   2.7 sec)
                      ------------------
             **** ENERGY FILE WAS UPDATED (./output/gamma_terpinene/gamma_terpinene.en.tmp) ****
Finished Guess after   3.3 sec
Maximum memory used throughout the entire GUESS-calculation: 19.8 MB


           ************************************************************
           *        Program running with 40 parallel MPI-processes    *
           *              working on a common directory               *
           ************************************************************

-------------------------------------------------------------------------------------------
                                      ORCA LEAN-SCF
                              memory conserving SCF solver
-------------------------------------------------------------------------------------------

----------------------------------------D-I-I-S--------------------------------------------
Iteration    Energy (Eh)           Delta-E    RMSDP     MaxDP     DIISErr   Damp  Time(sec)
-------------------------------------------------------------------------------------------
               ***  Starting incremental Fock matrix formation  ***
    1    -66.1084141547387389     0.00e+00  4.06e-03  7.11e-02  1.83e-01  0.700   4.0
    2    -66.2915937160616409    -1.83e-01  2.99e-03  5.24e-02  1.10e-01  0.700   3.5
                               ***Turning on AO-DIIS***
    3    -66.3883504751206601    -9.68e-02  1.55e-03  2.85e-02  5.92e-02  0.700   3.7
    4    -66.4452492887297694    -5.69e-02  3.31e-03  5.90e-02  3.76e-02  0.000   3.5
    5    -66.5642575509968424    -1.19e-01  2.46e-04  3.52e-03  4.17e-03  0.000   3.3
                              *** Initializing SOSCF ***
---------------------------------------S-O-S-C-F--------------------------------------
Iteration    Energy (Eh)           Delta-E    RMSDP     MaxDP     MaxGrad    Time(sec)
--------------------------------------------------------------------------------------
    6    -66.5645476598647861    -2.90e-04  1.17e-04  1.87e-03  1.19e-03     3.5
               *** Restarting incremental Fock matrix formation ***
    7    -66.5645607045822203    -1.30e-05  6.37e-05  1.48e-03  3.72e-04     4.2
    8    -66.5645680576504901    -7.35e-06  3.31e-05  7.00e-04  2.10e-04     3.6
    9    -66.5645709608405127    -2.90e-06  7.17e-06  1.43e-04  2.89e-05     3.5
   10    -66.5645710230377290    -6.22e-08  2.46e-06  6.03e-05  1.60e-05     3.6
   11    -66.5645710405090654    -1.75e-08  7.32e-07  2.01e-05  6.96e-06     3.4
   12    -66.5645710503639521    -9.85e-09  2.85e-07  9.95e-06  2.45e-06     3.1
                 **** Energy Check signals convergence ****

               *****************************************************
               *                     SUCCESS                       *
               *           SCF CONVERGED AFTER  12 CYCLES          *
               *****************************************************

Recomputing exchange energy using gridx3       ... done (    3.608 sec)
Old exchange energy                            :    -10.579264088 Eh
New exchange energy                            :    -10.579302609 Eh
Exchange energy change after final integration :     -0.000038521 Eh
Total energy after final integration           :    -66.564609572 Eh
             **** ENERGY FILE WAS UPDATED (./output/gamma_terpinene/gamma_terpinene.en.tmp) ****

----------------
TOTAL SCF ENERGY
----------------

Total Energy       :        -66.56460957151339 Eh           -1811.31511 eV

Components:
Nuclear Repulsion  :        282.23607931702151 Eh            7680.03416 eV
Electronic Energy  :       -348.80065036738546 Eh           -9491.34823 eV
One Electron Energy:       -657.06960797923455 Eh          -17879.77302 eV
Two Electron Energy:        308.26895761184909 Eh            8388.42480 eV

Virial components:
Potential Energy   :       -118.47156226305897 Eh           -3223.77510 eV
Kinetic Energy     :         51.90695269154558 Eh            1412.45999 eV
Virial Ratio       :          2.28238330550958

DFT components:
N(Alpha)           :       27.999925484477 electrons
N(Beta)            :       27.999925484477 electrons
N(Total)           :       55.999850968954 electrons
E(X)               :      -10.703274983176 Eh       
E(C)               :       -2.076533927985 Eh       
E(XC)              :      -12.779808911162 Eh       

---------------
SCF CONVERGENCE
---------------

  Last Energy change         ...    9.8549e-09  Tolerance :   1.0000e-08
  Last MAX-Density change    ...    9.9492e-06  Tolerance :   1.0000e-07
  Last RMS-Density change    ...    2.8510e-07  Tolerance :   5.0000e-09
  Last DIIS Error            ...    1.1859e-03  Tolerance :   5.0000e-07
  Last Orbital Gradient      ...    2.4520e-06  Tolerance :   1.0000e-05
  Last Orbital Rotation      ...    2.5963e-06  Tolerance :   1.0000e-05


----------------
ORBITAL ENERGIES
----------------

  NO   OCC          E(Eh)            E(eV) 
   0   2.0000      -0.984709       -26.7953 
   1   2.0000      -0.939257       -25.5585 
   2   2.0000      -0.882379       -24.0108 
   3   2.0000      -0.871792       -23.7227 
   4   2.0000      -0.809715       -22.0335 
   5   2.0000      -0.804978       -21.9046 
   6   2.0000      -0.748699       -20.3731 
   7   2.0000      -0.718780       -19.5590 
   8   2.0000      -0.661209       -17.9924 
   9   2.0000      -0.597443       -16.2573 
  10   2.0000      -0.582700       -15.8561 
  11   2.0000      -0.569214       -15.4891 
  12   2.0000      -0.563440       -15.3320 
  13   2.0000      -0.535850       -14.5812 
  14   2.0000      -0.531785       -14.4706 
  15   2.0000      -0.524852       -14.2819 
  16   2.0000      -0.507264       -13.8034 
  17   2.0000      -0.505020       -13.7423 
  18   2.0000      -0.492670       -13.4062 
  19   2.0000      -0.488352       -13.2887 
  20   2.0000      -0.476714       -12.9720 
  21   2.0000      -0.455837       -12.4040 
  22   2.0000      -0.441504       -12.0139 
  23   2.0000      -0.440711       -11.9924 
  24   2.0000      -0.421688       -11.4747 
  25   2.0000      -0.404033       -10.9943 
  26   2.0000      -0.329444        -8.9646 
  27   2.0000      -0.320447        -8.7198 
  28   0.0000       0.084687         2.3044 
  29   0.0000       0.089723         2.4415 
  30   0.0000       0.097509         2.6534 
  31   0.0000       0.098144         2.6706 
  32   0.0000       0.105152         2.8613 
  33   0.0000       0.108730         2.9587 
  34   0.0000       0.117901         3.2083 
  35   0.0000       0.129362         3.5201 
  36   0.0000       0.137936         3.7534 
  37   0.0000       0.149222         4.0605 
  38   0.0000       0.157201         4.2777 
*Only the first 10 virtual orbitals were printed.

                    ********************************
                    * MULLIKEN POPULATION ANALYSIS *
                    ********************************

-----------------------
MULLIKEN ATOMIC CHARGES
-----------------------
   0 C :   -0.102819
   1 C :   -0.060660
   2 C :   -0.016050
   3 C :   -0.078812
   4 C :   -0.048103
   5 C :   -0.011803
   6 C :   -0.078687
   7 C :   -0.110148
   8 C :   -0.060172
   9 C :   -0.061012
  10 H :    0.032749
  11 H :    0.057956
  12 H :    0.054068
  13 H :    0.010941
  14 H :    0.058129
  15 H :    0.047370
  16 H :    0.008002
  17 H :    0.061544
  18 H :    0.049510
  19 H :    0.035300
  20 H :    0.032106
  21 H :    0.043919
  22 H :    0.032908
  23 H :    0.031478
  24 H :    0.032139
  25 H :    0.040149
Sum of atomic charges:   -0.0000000

--------------------------------
MULLIKEN REDUCED ORBITAL CHARGES
--------------------------------
  0 C s       :     0.959352  s :     0.959352
      pz      :     1.051726  p :     3.069568
      px      :     0.972544
      py      :     1.045299
      dz2     :     0.015983  d :     0.073899
      dxz     :     0.012235
      dyz     :     0.010959
      dx2y2   :     0.014862
      dxy     :     0.019860

  1 C s       :     1.089225  s :     1.089225
      pz      :     0.956775  p :     2.852306
      px      :     0.920542
      py      :     0.974989
      dz2     :     0.020790  d :     0.119129
      dxz     :     0.022211
      dyz     :     0.016561
      dx2y2   :     0.031302
      dxy     :     0.028265

  2 C s       :     1.027010  s :     1.027010
      pz      :     0.988557  p :     2.898342
      px      :     0.927510
      py      :     0.982275
      dz2     :     0.010046  d :     0.090698
      dxz     :     0.018448
      dyz     :     0.015062
      dx2y2   :     0.022046
      dxy     :     0.025096

  3 C s       :     0.987515  s :     0.987515
      pz      :     1.045552  p :     2.989177
      px      :     0.949796
      py      :     0.993829
      dz2     :     0.012522  d :     0.102121
      dxz     :     0.017310
      dyz     :     0.028214
      dx2y2   :     0.022013
      dxy     :     0.022062

  4 C s       :     1.077421  s :     1.077421
      pz      :     0.962772  p :     2.854438
      px      :     0.918362
      py      :     0.973304
      dz2     :     0.013978  d :     0.116243
      dxz     :     0.018348
      dyz     :     0.018883
      dx2y2   :     0.032580
      dxy     :     0.032453

  5 C s       :     1.027670  s :     1.027670
      pz      :     0.998758  p :     2.893985
      px      :     0.916563
      py      :     0.978664
      dz2     :     0.012621  d :     0.090148
      dxz     :     0.015318
      dyz     :     0.009243
      dx2y2   :     0.022856
      dxy     :     0.030110

  6 C s       :     0.987649  s :     0.987649
      pz      :     1.010995  p :     2.988819
      px      :     0.944657
      py      :     1.033167
      dz2     :     0.027376  d :     0.102219
      dxz     :     0.019747
      dyz     :     0.010822
      dx2y2   :     0.024616
      dxy     :     0.019658

  7 C s       :     1.046228  s :     1.046228
      pz      :     0.967477  p :     2.937762
      px      :     0.940784
      py      :     1.029501
      dz2     :     0.024516  d :     0.126159
      dxz     :     0.028592
      dyz     :     0.025189
      dx2y2   :     0.031659
      dxy     :     0.016203

  8 C s       :     0.965522  s :     0.965522
      pz      :     0.995675  p :     3.019729
      px      :     1.028027
      py      :     0.996028
      dz2     :     0.015206  d :     0.074921
      dxz     :     0.017014
      dyz     :     0.013186
      dx2y2   :     0.024358
      dxy     :     0.005158

  9 C s       :     0.966022  s :     0.966022
      pz      :     0.976750  p :     3.019984
      px      :     1.006425
      py      :     1.036809
      dz2     :     0.013336  d :     0.075006
      dxz     :     0.012546
      dyz     :     0.022609
      dx2y2   :     0.021896
      dxy     :     0.004617

 10 H s       :     0.923199  s :     0.923199
      pz      :     0.013645  p :     0.044052
      px      :     0.011117
      py      :     0.019290

 11 H s       :     0.897953  s :     0.897953
      pz      :     0.023030  p :     0.044091
      px      :     0.010417
      py      :     0.010643

 12 H s       :     0.901856  s :     0.901856
      pz      :     0.011124  p :     0.044076
      px      :     0.015654
      py      :     0.017299

 13 H s       :     0.939701  s :     0.939701
      pz      :     0.018434  p :     0.049358
      px      :     0.015183
      py      :     0.015741

 14 H s       :     0.897926  s :     0.897926
      pz      :     0.018849  p :     0.043945
      px      :     0.010497
      py      :     0.014599

 15 H s       :     0.909218  s :     0.909218
      pz      :     0.018068  p :     0.043412
      px      :     0.011570
      py      :     0.013774

 16 H s       :     0.941800  s :     0.941800
      pz      :     0.014809  p :     0.050197
      px      :     0.015592
      py      :     0.019796

 17 H s       :     0.894496  s :     0.894496
      pz      :     0.021981  p :     0.043960
      px      :     0.010624
      py      :     0.011354

 18 H s       :     0.907097  s :     0.907097
      pz      :     0.009934  p :     0.043393
      px      :     0.011040
      py      :     0.022418

 19 H s       :     0.923815  s :     0.923815
      pz      :     0.011523  p :     0.040885
      px      :     0.009458
      py      :     0.019903

 20 H s       :     0.924703  s :     0.924703
      pz      :     0.010971  p :     0.043191
      px      :     0.022093
      py      :     0.010127

 21 H s       :     0.913332  s :     0.913332
      pz      :     0.018814  p :     0.042749
      px      :     0.014028
      py      :     0.009907

 22 H s       :     0.923633  s :     0.923633
      pz      :     0.011187  p :     0.043460
      px      :     0.010311
      py      :     0.021962

 23 H s       :     0.925374  s :     0.925374
      pz      :     0.010286  p :     0.043148
      px      :     0.022516
      py      :     0.010347

 24 H s       :     0.924383  s :     0.924383
      pz      :     0.012214  p :     0.043478
      px      :     0.010137
      py      :     0.021126

 25 H s       :     0.917136  s :     0.917136
      pz      :     0.016411  p :     0.042715
      px      :     0.010560
      py      :     0.015745



                     *******************************
                     * LOEWDIN POPULATION ANALYSIS *
                     *******************************

----------------------
LOEWDIN ATOMIC CHARGES
----------------------
   0 C :   -0.119220
   1 C :   -0.044906
   2 C :   -0.051473
   3 C :   -0.088421
   4 C :   -0.022416
   5 C :   -0.043711
   6 C :   -0.088207
   7 C :   -0.089423
   8 C :   -0.113095
   9 C :   -0.114025
  10 H :    0.048934
  11 H :    0.055846
  12 H :    0.054415
  13 H :    0.035770
  14 H :    0.055321
  15 H :    0.053446
  16 H :    0.032150
  17 H :    0.056744
  18 H :    0.054406
  19 H :    0.050510
  20 H :    0.044915
  21 H :    0.049746
  22 H :    0.044995
  23 H :    0.045061
  24 H :    0.044353
  25 H :    0.048287

-------------------------------
LOEWDIN REDUCED ORBITAL CHARGES
-------------------------------
  0 C s       :     0.777437  s :     0.777437
      pz      :     1.062525  p :     3.104239
      px      :     0.985107
      py      :     1.056607
      dz2     :     0.052824  d :     0.237545
      dxz     :     0.038759
      dyz     :     0.034676
      dx2y2   :     0.045391
      dxy     :     0.065896

  1 C s       :     0.797480  s :     0.797480
      pz      :     0.922145  p :     2.870090
      px      :     0.957415
      py      :     0.990530
      dz2     :     0.063803  d :     0.377336
      dxz     :     0.068614
      dyz     :     0.056579
      dx2y2   :     0.094310
      dxy     :     0.094031

  2 C s       :     0.805887  s :     0.805887
      pz      :     0.969506  p :     2.949101
      px      :     0.970112
      py      :     1.009484
      dz2     :     0.028886  d :     0.296484
      dxz     :     0.058762
      dyz     :     0.052438
      dx2y2   :     0.068857
      dxy     :     0.087541

  3 C s       :     0.760315  s :     0.760315
      pz      :     1.048323  p :     3.012287
      px      :     0.969213
      py      :     0.994751
      dz2     :     0.038872  d :     0.315819
      dxz     :     0.052199
      dyz     :     0.088684
      dx2y2   :     0.066128
      dxy     :     0.069936

  4 C s       :     0.796129  s :     0.796129
      pz      :     0.896931  p :     2.858934
      px      :     0.962888
      py      :     0.999115
      dz2     :     0.039760  d :     0.367353
      dxz     :     0.059143
      dyz     :     0.059518
      dx2y2   :     0.105718
      dxy     :     0.103214

  5 C s       :     0.803943  s :     0.803943
      pz      :     0.935188  p :     2.944053
      px      :     0.973222
      py      :     1.035643
      dz2     :     0.036673  d :     0.295715
      dxz     :     0.051843
      dyz     :     0.030127
      dx2y2   :     0.074632
      dxy     :     0.102440

  6 C s       :     0.760690  s :     0.760690
      pz      :     1.018728  p :     3.012189
      px      :     0.967244
      py      :     1.026216
      dz2     :     0.082541  d :     0.315329
      dxz     :     0.059404
      dyz     :     0.034391
      dx2y2   :     0.077579
      dxy     :     0.061414

  7 C s       :     0.754611  s :     0.754611
      pz      :     0.970112  p :     2.948346
      px      :     0.960867
      py      :     1.017367
      dz2     :     0.075603  d :     0.386466
      dxz     :     0.083650
      dyz     :     0.078114
      dx2y2   :     0.097985
      dxy     :     0.051114

  8 C s       :     0.780929  s :     0.780929
      pz      :     1.017216  p :     3.086728
      px      :     1.053262
      py      :     1.016250
      dz2     :     0.051489  d :     0.245438
      dxz     :     0.055805
      dyz     :     0.041646
      dx2y2   :     0.080221
      dxy     :     0.016277

  9 C s       :     0.781085  s :     0.781085
      pz      :     0.996716  p :     3.087271
      px      :     1.029837
      py      :     1.060719
      dz2     :     0.043899  d :     0.245669
      dxz     :     0.039192
      dyz     :     0.076130
      dx2y2   :     0.071569
      dxy     :     0.014879

 10 H s       :     0.805906  s :     0.805906
      pz      :     0.047363  p :     0.145160
      px      :     0.039228
      py      :     0.058568

 11 H s       :     0.797480  s :     0.797480
      pz      :     0.065367  p :     0.146674
      px      :     0.040138
      py      :     0.041169

 12 H s       :     0.799096  s :     0.799096
      pz      :     0.042283  p :     0.146489
      px      :     0.050157
      py      :     0.054050

 13 H s       :     0.811153  s :     0.811153
      pz      :     0.055686  p :     0.153077
      px      :     0.049086
      py      :     0.048306

 14 H s       :     0.793244  s :     0.793244
      pz      :     0.058257  p :     0.151435
      px      :     0.041629
      py      :     0.051550

 15 H s       :     0.801444  s :     0.801444
      pz      :     0.056086  p :     0.145110
      px      :     0.041195
      py      :     0.047828

 16 H s       :     0.812788  s :     0.812788
      pz      :     0.047006  p :     0.155063
      px      :     0.050883
      py      :     0.057174

 17 H s       :     0.792128  s :     0.792128
      pz      :     0.066188  p :     0.151128
      px      :     0.042026
      py      :     0.042914

 18 H s       :     0.801093  s :     0.801093
      pz      :     0.039447  p :     0.144501
      px      :     0.039694
      py      :     0.065360

 19 H s       :     0.802625  s :     0.802625
      pz      :     0.044748  p :     0.146866
      px      :     0.036759
      py      :     0.065359

 20 H s       :     0.809752  s :     0.809752
      pz      :     0.041029  p :     0.145333
      px      :     0.064721
      py      :     0.039584

 21 H s       :     0.805774  s :     0.805774
      pz      :     0.057132  p :     0.144480
      px      :     0.047954
      py      :     0.039393

 22 H s       :     0.810062  s :     0.810062
      pz      :     0.041812  p :     0.144943
      px      :     0.039879
      py      :     0.063252

 23 H s       :     0.809619  s :     0.809619
      pz      :     0.039461  p :     0.145320
      px      :     0.065035
      py      :     0.040823

 24 H s       :     0.810420  s :     0.810420
      pz      :     0.043370  p :     0.145227
      px      :     0.039396
      py      :     0.062462

 25 H s       :     0.807170  s :     0.807170
      pz      :     0.052221  p :     0.144544
      px      :     0.040873
      py      :     0.051449



                      *****************************
                      * MAYER POPULATION ANALYSIS *
                      *****************************

  NA   - Mulliken gross atomic population
  ZA   - Total nuclear charge
  QA   - Mulliken gross atomic charge
  VA   - Mayer's total valence
  BVA  - Mayer's bonded valence
  FA   - Mayer's free valence

  ATOM       NA         ZA         QA         VA         BVA        FA
  0 C      4.1028     4.0000    -0.1028     3.9823     3.9823     0.0000
  1 C      4.0607     4.0000    -0.0607     4.0396     4.0396     0.0000
  2 C      4.0161     4.0000    -0.0161     3.9856     3.9856     0.0000
  3 C      4.0788     4.0000    -0.0788     4.0166     4.0166     0.0000
  4 C      4.0481     4.0000    -0.0481     4.0000     4.0000    -0.0000
  5 C      4.0118     4.0000    -0.0118     3.9817     3.9817    -0.0000
  6 C      4.0787     4.0000    -0.0787     4.0125     4.0125    -0.0000
  7 C      4.1101     4.0000    -0.1101     4.0577     4.0577    -0.0000
  8 C      4.0602     4.0000    -0.0602     3.9617     3.9617    -0.0000
  9 C      4.0610     4.0000    -0.0610     3.9634     3.9634    -0.0000
 10 H      0.9673     1.0000     0.0327     1.0343     1.0343    -0.0000
 11 H      0.9420     1.0000     0.0580     1.0231     1.0231     0.0000
 12 H      0.9459     1.0000     0.0541     1.0231     1.0231     0.0000
 13 H      0.9891     1.0000     0.0109     1.0445     1.0445     0.0000
 14 H      0.9419     1.0000     0.0581     1.0178     1.0178     0.0000
 15 H      0.9526     1.0000     0.0474     1.0103     1.0103     0.0000
 16 H      0.9920     1.0000     0.0080     1.0358     1.0358    -0.0000
 17 H      0.9385     1.0000     0.0615     1.0178     1.0178     0.0000
 18 H      0.9505     1.0000     0.0495     1.0095     1.0095     0.0000
 19 H      0.9647     1.0000     0.0353     1.0110     1.0110     0.0000
 20 H      0.9679     1.0000     0.0321     1.0246     1.0246     0.0000
 21 H      0.9561     1.0000     0.0439     1.0235     1.0235    -0.0000
 22 H      0.9671     1.0000     0.0329     1.0276     1.0276     0.0000
 23 H      0.9685     1.0000     0.0315     1.0260     1.0260    -0.0000
 24 H      0.9679     1.0000     0.0321     1.0255     1.0255    -0.0000
 25 H      0.9599     1.0000     0.0401     1.0231     1.0231    -0.0000

  Mayer bond orders larger than 0.100000
B(  0-C ,  1-C ) :   1.0182 B(  0-C , 10-H ) :   0.9941 B(  0-C , 11-H ) :   0.9849 
B(  0-C , 12-H ) :   0.9861 B(  1-C ,  2-C ) :   1.9116 B(  1-C ,  6-C ) :   0.9999 
B(  2-C ,  3-C ) :   1.0189 B(  2-C , 13-H ) :   0.9938 B(  3-C ,  4-C ) :   1.0050 
B(  3-C , 14-H ) :   0.9683 B(  3-C , 15-H ) :   0.9920 B(  4-C ,  5-C ) :   1.9130 
B(  4-C ,  7-C ) :   1.0096 B(  5-C ,  6-C ) :   1.0198 B(  5-C , 16-H ) :   0.9948 
B(  6-C , 17-H ) :   0.9671 B(  6-C , 18-H ) :   0.9919 B(  7-C ,  8-C ) :   0.9929 
B(  7-C ,  9-C ) :   0.9934 B(  7-C , 19-H ) :   0.9979 B(  8-C , 20-H ) :   0.9954 
B(  8-C , 21-H ) :   0.9958 B(  8-C , 22-H ) :   0.9929 B(  9-C , 23-H ) :   0.9952 
B(  9-C , 24-H ) :   0.9940 B(  9-C , 25-H ) :   0.9968 

-------
TIMINGS
-------

Total SCF time: 0 days 0 hours 0 min 50 sec 

Total time                  ....      50.761 sec
Sum of individual times     ....      48.923 sec  ( 96.4%)

SCF preparation             ....       2.172 sec  (  4.3%)
Fock matrix formation       ....      44.639 sec  ( 87.9%)
  Startup                   ....       0.265 sec  (  0.6% of F)
  Split-RI-J                ....       1.729 sec  (  3.9% of F)
  Chain of spheres X        ....      20.944 sec  ( 46.9% of F)
  XC integration            ....      20.558 sec  ( 46.1% of F)
    XC Preparation          ....       0.000 sec  (  0.0% of XC)
    Basis function eval.    ....       0.487 sec  (  2.4% of XC)
    Density eval.           ....       0.206 sec  (  1.0% of XC)
    XC-Functional eval.     ....       0.159 sec  (  0.8% of XC)
    XC-Potential eval.      ....       0.263 sec  (  1.3% of XC)
Diagonalization             ....       0.000 sec  (  0.0%)
Density matrix formation    ....       0.639 sec  (  1.3%)
Total Energy calculation    ....       0.304 sec  (  0.6%)
Population analysis         ....       0.097 sec  (  0.2%)
Orbital Transformation      ....       0.129 sec  (  0.3%)
Orbital Orthonormalization  ....       0.000 sec  (  0.0%)
DIIS solution               ....       0.604 sec  (  1.2%)
SOSCF solution              ....       0.340 sec  (  0.7%)
Finished LeanSCF after  50.8 sec

Maximum memory used throughout the entire LEANSCF-calculation: 38.7 MB


           ************************************************************
           *        Program running with 40 parallel MPI-processes    *
           *              working on a common directory               *
           ************************************************************

------------------------------------------------------------------------------
                         ORCA PROPERTY INTEGRAL CALCULATIONS
------------------------------------------------------------------------------

GBWName                                   ... ./output/gamma_terpinene/gamma_terpinene.gbw
Number of atoms                           ...     26
Number of basis functions                 ...    210
Max core memory                           ...   1024 MB

Dipole integrals                          ... YES
Quadrupole integrals                      ...  NO
Linear momentum integrals                 ...  NO
Angular momentum integrals                ...  NO
Higher moments length integrals           ...  NO
Higher moments velocity integrals         ...  NO
Kinetic energy integrals                  ...  NO
GIAO right hand sides                     ...  NO
GIAO dipole derivative integrals          ...  NO
SOC integrals                             ...  NO
EPR diamagnetic integrals (GIAO)          ...  NO
EPR gauge integrals                       ...  NO
Field gradient integrals                  ...  NO (   0 nuclei)
Spin-dipole/Fermi contact integrals       ...  NO (   0 nuclei)
Contact density integrals                 ...  NO (   0 nuclei)
Nucleus-orbit integrals                   ...  NO (   0 nuclei)
Geometric perturbations                   ...  NO (  26 nuclei)

Choice of electric origin   ... Center of mass
Position of electric origin ... (  0.2463,  0.0843, -0.0239) 
Choice of magnetic origin   ... GIAO
Position of magnetic origin ... (  0.0000,  0.0000,  0.0000) 

Calculating integrals                     ... Electric Dipole (Length)     done (  0.0 sec)

Property integrals calculated in   0.0 sec

Maximum memory used throughout the entire PROPINT-calculation: 16.6 MB


-------------------------------------------------------------------------------
                          DFT DISPERSION CORRECTION                            
                                                                               
                                DFTD4 V3.4.0                                   
-------------------------------------------------------------------------------
The wB97X-3c composite method is recognized
Using three-body term ABC
Active option DFTDOPT                   ...         5   

-------------------------   ----------------
Dispersion correction           -0.029697240
-------------------------   ----------------


-------------------------   --------------------
FINAL SINGLE POINT ENERGY       -66.594306811370
-------------------------   --------------------



           ************************************************************
           *        Program running with 40 parallel MPI-processes    *
           *              working on a common directory               *
           ************************************************************
------------------------------------------------------------------------------
                         ORCA SCF GRADIENT CALCULATION
------------------------------------------------------------------------------

Nuc. rep. gradient        (SHARK) ... done (  0.0 sec)
HCore & Overlap gradient  (SHARK) ... done (  0.1 sec)
ECP gradient              (SHARK) ... done (  0.4 sec)
Split-RIJ-J gradient      (SHARK) ... done (  0.4 sec)
COSX-gradient                     ... done (  5.7 sec)
XC gradient                       ... done (  1.6 sec)
Dispersion correction             ... done (  0.1 sec)

-------------------
DISPERSION GRADIENT
[...]
 20:    557.06   0.001113    5.63  0.000624  ( 0.004400  0.015298 -0.019241)
 21:    604.50   0.000019    0.10  0.000010  (-0.001399  0.000165  0.002797)
 22:    696.37   0.000116    0.59  0.000052  (-0.001396  0.000341  0.007073)
 23:    792.28   0.000033    0.17  0.000013  (-0.000542 -0.001867  0.003048)
 24:    815.11   0.002632   13.30  0.001008  ( 0.001054 -0.022253  0.022611)
 25:    873.46   0.000105    0.53  0.000038  (-0.001002  0.005314 -0.002882)
 26:    919.57   0.000117    0.59  0.000040  (-0.003563 -0.004931  0.001605)
 27:    949.46   0.000222    1.12  0.000073  (-0.003608  0.003925 -0.006684)
 28:    955.51   0.000377    1.91  0.000123  ( 0.004682 -0.005193 -0.008622)
 29:    991.92   0.000112    0.56  0.000035  ( 0.004448 -0.001549  0.003591)
 30:    997.11   0.002438   12.32  0.000763  ( 0.002592  0.021271 -0.017432)
 31:   1002.95   0.000906    4.58  0.000282  ( 0.000862 -0.001312  0.016715)
 32:   1009.92   0.001065    5.38  0.000329  (-0.002750 -0.013540  0.011754)
 33:   1063.34   0.002138   10.80  0.000627  (-0.019045  0.012770  0.010077)
 34:   1080.43   0.001272    6.43  0.000368  ( 0.008712  0.013370  0.010624)
 35:   1095.20   0.000044    0.22  0.000013  ( 0.000121 -0.002252  0.002756)
 36:   1139.34   0.000797    4.03  0.000218  ( 0.012402 -0.007568 -0.002674)
 37:   1157.85   0.000085    0.43  0.000023  ( 0.002785  0.002398  0.003081)
 38:   1178.31   0.000294    1.48  0.000078  ( 0.002005 -0.005963  0.006180)
 39:   1219.19   0.001218    6.16  0.000312  (-0.017645 -0.000635 -0.000276)
 40:   1250.61   0.000044    0.22  0.000011  (-0.003181 -0.000403  0.000870)
 41:   1265.53   0.000039    0.20  0.000010  ( 0.002652 -0.001632  0.000067)
 42:   1272.27   0.000187    0.94  0.000046  ( 0.005820 -0.003379  0.000692)
 43:   1355.72   0.000472    2.38  0.000109  (-0.009535  0.003693  0.002016)
 44:   1367.95   0.000070    0.35  0.000016  (-0.002098 -0.003273  0.000952)
 45:   1371.12   0.000094    0.47  0.000021  (-0.002275  0.001202  0.003832)
 46:   1408.67   0.000770    3.89  0.000171  (-0.011196 -0.000858  0.006669)
 47:   1436.05   0.002456   12.41  0.000534  ( 0.007156  0.001186  0.021934)
 48:   1445.62   0.000203    1.03  0.000044  ( 0.003572 -0.004917 -0.002629)
 49:   1448.43   0.002706   13.67  0.000583  (-0.019745 -0.013897 -0.000094)
 50:   1462.73   0.000049    0.25  0.000011  ( 0.001768 -0.001187 -0.002448)
 51:   1477.90   0.000599    3.03  0.000126  ( 0.009354  0.001177  0.006128)
 52:   1503.94   0.000029    0.15  0.000006  ( 0.002015 -0.000290  0.001400)
 53:   1505.72   0.001207    6.10  0.000250  ( 0.006156 -0.012009 -0.008253)
 54:   1510.41   0.002250   11.37  0.000465  (-0.001696 -0.013498  0.016731)
 55:   1518.18   0.000394    1.99  0.000081  (-0.001192 -0.001655  0.008762)
 56:   1522.07   0.000978    4.94  0.000201  (-0.000340  0.004434  0.013447)
 57:   1523.66   0.002218   11.21  0.000454  (-0.003538 -0.016804 -0.012625)
 58:   1535.90   0.002884   14.57  0.000586  (-0.001307  0.024168  0.000380)
 59:   1543.81   0.002268   11.46  0.000458  (-0.019876  0.007890 -0.001072)
 60:   1794.81   0.000472    2.38  0.000082  (-0.001508 -0.006683 -0.005921)
 61:   1835.44   0.000014    0.07  0.000002  ( 0.000438  0.001266  0.000795)
 62:   3067.92   0.008849   44.72  0.000900  (-0.012979  0.021683  0.016172)
 63:   3070.34   0.001101    5.56  0.000112  (-0.004620 -0.006690  0.006768)
 64:   3076.79   0.012536   63.35  0.001271  (-0.012605  0.031369  0.011339)
 65:   3094.08   0.009194   46.46  0.000927  (-0.027903  0.010441  0.006303)
 66:   3097.91   0.005267   26.62  0.000531  ( 0.005508  0.004071  0.021992)
 67:   3100.80   0.002457   12.41  0.000247  ( 0.000876 -0.008883  0.012944)
 68:   3101.49   0.005635   28.48  0.000567  (-0.021034 -0.006799  0.008852)
 69:   3115.38   0.003711   18.76  0.000372  ( 0.006523  0.007300 -0.016611)
 70:   3170.08   0.002357   11.91  0.000232  ( 0.001169  0.009848 -0.011560)
 71:   3184.16   0.000963    4.87  0.000094  ( 0.005633 -0.007616  0.002161)
 72:   3188.87   0.007568   38.25  0.000741  (-0.020431  0.017945 -0.001086)
 73:   3195.98   0.003540   17.89  0.000346  (-0.010804 -0.007418  0.013186)
 74:   3202.27   0.003692   18.66  0.000360  ( 0.010664  0.011337  0.010840)
 75:   3204.37   0.001805    9.12  0.000176  ( 0.004827  0.009179  0.008262)
 76:   3216.04   0.005738   29.00  0.000557  (-0.015904 -0.012777 -0.011857)
 77:   3241.29   0.002490   12.58  0.000240  ( 0.009477  0.008879  0.008432)

* The epsilon (eps) is given for a Dirac delta lineshape.
** The dipole moment derivative (T) already includes vibrational overlap.

The first frequency considered to be a vibration is 6
The total number of vibrations considered is 72


--------------------------
THERMOCHEMISTRY AT 298.15K
--------------------------

Temperature         ...   298.15 K
Pressure            ...     1.00 atm
Total Mass          ...   136.24 AMU
Quasi RRHO          ...     True
Cut-Off Frequency   ...     1.00 cm^-1

Throughout the following assumptions are being made:
  (1) The electronic state is orbitally nondegenerate
  (2) There are no thermally accessible electronically excited states
  (3) Hindered rotations indicated by low frequency modes are not
      treated as such but are treated as vibrations and this may
      cause some error
  (4) All equations used are the standard statistical mechanics
      equations for an ideal gas
  (5) All vibrations are strictly harmonic

freq.      34.14  E(vib)   ...       0.55 
freq.      59.33  E(vib)   ...       0.51 
freq.     171.79  E(vib)   ...       0.38 
freq.     180.81  E(vib)   ...       0.37 
freq.     203.81  E(vib)   ...       0.35 
freq.     233.90  E(vib)   ...       0.32 
freq.     254.27  E(vib)   ...       0.30 
freq.     295.84  E(vib)   ...       0.27 
freq.     313.28  E(vib)   ...       0.25 
freq.     341.21  E(vib)   ...       0.23 
freq.     369.86  E(vib)   ...       0.21 
freq.     439.19  E(vib)   ...       0.17 
freq.     450.81  E(vib)   ...       0.17 
freq.     499.07  E(vib)   ...       0.14 
freq.     557.06  E(vib)   ...       0.12 
freq.     604.50  E(vib)   ...       0.10 
freq.     696.37  E(vib)   ...       0.07 
freq.     792.28  E(vib)   ...       0.05 
freq.     815.11  E(vib)   ...       0.05 
freq.     873.46  E(vib)   ...       0.04 
freq.     919.57  E(vib)   ...       0.03 
freq.     949.46  E(vib)   ...       0.03 
freq.     955.51  E(vib)   ...       0.03 
freq.     991.92  E(vib)   ...       0.02 
freq.     997.11  E(vib)   ...       0.02 
freq.    1002.95  E(vib)   ...       0.02 
freq.    1009.92  E(vib)   ...       0.02 
freq.    1063.34  E(vib)   ...       0.02 
freq.    1080.43  E(vib)   ...       0.02 
freq.    1095.20  E(vib)   ...       0.02 
freq.    1139.34  E(vib)   ...       0.01 
freq.    1157.85  E(vib)   ...       0.01 
freq.    1178.31  E(vib)   ...       0.01 
freq.    1219.19  E(vib)   ...       0.01 
freq.    1250.61  E(vib)   ...       0.01 
freq.    1265.53  E(vib)   ...       0.01 
freq.    1272.27  E(vib)   ...       0.01 
freq.    1355.72  E(vib)   ...       0.01 
freq.    1367.95  E(vib)   ...       0.01 
freq.    1371.12  E(vib)   ...       0.01 
freq.    1408.67  E(vib)   ...       0.00 
freq.    1436.05  E(vib)   ...       0.00 
freq.    1445.62  E(vib)   ...       0.00 
freq.    1448.43  E(vib)   ...       0.00 
freq.    1462.73  E(vib)   ...       0.00 
freq.    1477.90  E(vib)   ...       0.00 
freq.    1503.94  E(vib)   ...       0.00 
freq.    1505.72  E(vib)   ...       0.00 
freq.    1510.41  E(vib)   ...       0.00 
freq.    1518.18  E(vib)   ...       0.00 
freq.    1522.07  E(vib)   ...       0.00 
freq.    1523.66  E(vib)   ...       0.00 
freq.    1535.90  E(vib)   ...       0.00 
freq.    1543.81  E(vib)   ...       0.00 
freq.    1794.81  E(vib)   ...       0.00 
freq.    1835.44  E(vib)   ...       0.00 
freq.    3067.92  E(vib)   ...       0.00 
freq.    3070.34  E(vib)   ...       0.00 
freq.    3076.79  E(vib)   ...       0.00 
freq.    3094.08  E(vib)   ...       0.00 
freq.    3097.91  E(vib)   ...       0.00 
freq.    3100.80  E(vib)   ...       0.00 
freq.    3101.49  E(vib)   ...       0.00 
freq.    3115.38  E(vib)   ...       0.00 
freq.    3170.08  E(vib)   ...       0.00 
freq.    3184.16  E(vib)   ...       0.00 
freq.    3188.87  E(vib)   ...       0.00 
freq.    3195.98  E(vib)   ...       0.00 
freq.    3202.27  E(vib)   ...       0.00 
freq.    3204.37  E(vib)   ...       0.00 
freq.    3216.04  E(vib)   ...       0.00 
freq.    3241.29  E(vib)   ...       0.00 

------------
INNER ENERGY
------------

The inner energy is: U= E(el) + E(ZPE) + E(vib) + E(rot) + E(trans)
    E(el)   - is the total energy from the electronic structure calculation
              = E(kin-el) + E(nuc-el) + E(el-el) + E(nuc-nuc)
    E(ZPE)  - the the zero temperature vibrational energy from the frequency calculation
    E(vib)  - the the finite temperature correction to E(ZPE) due to population
              of excited vibrational states
    E(rot)  - is the rotational thermal energy
    E(trans)- is the translational thermal energy

Summary of contributions to the inner energy U:
Electronic energy                ...    -66.61160087 Eh
Zero point energy                ...      0.24064403 Eh     151.01 kcal/mol
Thermal vibrational correction   ...      0.00798190 Eh       5.01 kcal/mol
Thermal rotational correction    ...      0.00141627 Eh       0.89 kcal/mol
Thermal translational correction ...      0.00141627 Eh       0.89 kcal/mol
-----------------------------------------------------------------------
Total thermal energy                    -66.36014240 Eh


Summary of corrections to the electronic energy:
(perhaps to be used in another calculation)
Total thermal correction                  0.01081444 Eh       6.79 kcal/mol
Non-thermal (ZPE) correction              0.24064403 Eh     151.01 kcal/mol
-----------------------------------------------------------------------
Total correction                          0.25145847 Eh     157.79 kcal/mol


--------
ENTHALPY
--------

The enthalpy is H = U + kB*T
                kB is Boltzmann's constant
Total thermal energy              ...    -66.36014240 Eh 
Thermal Enthalpy correction       ...      0.00094421 Eh       0.59 kcal/mol
-----------------------------------------------------------------------
Total Enthalpy                    ...    -66.35919819 Eh


Note: Only C1 symmetry has been detected, increase convergence thresholds 
      if your molecule has a higher symmetry. Symmetry factor of 1.0 is   
      used for the rotational entropy correction. 
 

Note: Rotational entropy computed according to Herzberg 
Infrared and Raman Spectra, Chapter V,1, Van Nostrand Reinhold, 1945 
Point Group:  C1, Symmetry Number:   1  
Rotational constants in cm-1:     0.102364     0.024595     0.021406 

Vibrational entropy computed according to the QRRHO of S. Grimme
Chem.Eur.J. 2012 18 9955 using a reference frequency of 100.0 cm-1


-------
ENTROPY
-------

The entropy contributions are T*S = T*(S(el)+S(vib)+S(rot)+S(trans))
     S(el)   - electronic entropy
     S(vib)  - vibrational entropy
     S(rot)  - rotational entropy
     S(trans)- translational entropy
The entropies will be listed as multiplied by the temperature to get
units of energy

Electronic entropy                ...      0.00000000 Eh      0.00 kcal/mol
Vibrational entropy               ...      0.01354234 Eh      8.50 kcal/mol
Rotational entropy                ...      0.01415076 Eh      8.88 kcal/mol
Translational entropy             ...      0.01930920 Eh     12.12 kcal/mol
-----------------------------------------------------------------------
Final entropy term                ...      0.04700230 Eh     29.49 kcal/mol

In case the symmetry of your molecule has not been determined correctly
or in case you have a reason to use a different symmetry number we print 
out the resulting rotational entropy values for sn=1,12:

 non-linear molecules -----------------------------------
|  sn= 1 | S(rot)=       0.01415076 Eh      8.88 kcal/mol|
|  sn= 2 | S(rot)=       0.01349631 Eh      8.47 kcal/mol|
|  sn= 3 | S(rot)=       0.01311347 Eh      8.23 kcal/mol|
|  sn= 4 | S(rot)=       0.01284185 Eh      8.06 kcal/mol|
|  sn= 5 | S(rot)=       0.01263116 Eh      7.93 kcal/mol|
|  sn= 6 | S(rot)=       0.01245902 Eh      7.82 kcal/mol|
|  sn= 7 | S(rot)=       0.01231347 Eh      7.73 kcal/mol|
|  sn= 8 | S(rot)=       0.01218739 Eh      7.65 kcal/mol|
|  sn= 9 | S(rot)=       0.01207618 Eh      7.58 kcal/mol|
|  sn=10 | S(rot)=       0.01197670 Eh      7.52 kcal/mol|
|  sn=11 | S(rot)=       0.01188671 Eh      7.46 kcal/mol|
|  sn=12 | S(rot)=       0.01180456 Eh      7.41 kcal/mol|
 linear molecules ---------------------------------------
|  Dinfh | S(rot)=       0.00895533 Eh      5.62 kcal/mol|
|  Cinfv | S(rot)=       0.00960978 Eh      6.03 kcal/mol|
 --------------------------------------------------------


-------------------
GIBBS FREE ENERGY
-------------------

The Gibbs free energy is G = H - T*S

Total enthalpy                    ...    -66.35919819 Eh 
Total entropy correction          ...     -0.04700230 Eh    -29.49 kcal/mol
-----------------------------------------------------------------------
Final Gibbs free energy         ...    -66.40620050 Eh

For completeness - the Gibbs free energy minus the electronic energy
G-E(el)                           ...      0.20540037 Eh    128.89 kcal/mol


Maximum memory used throughout the entire PROP-calculation: 112.7 MB

--------------------------------
SUGGESTED CITATIONS FOR THIS RUN
--------------------------------

Below you find a list of papers that are relevant to this ORCA run
We neither can nor want to force you to cite these papers, but we appreciate if you do
You receive ORCA, which is the product of decades of hard work by many enthusiastic individuals, for free
The only thing we kindly ask in return is that you cite our papers,
We deeply appreciate it, if you show your appreciation for ORCA by not just citing the generic ORCA reference.

Please note that relegating all ORCA citations to the supporting information does *not* help us.
SI sections are not indexed - citations you put there will not count into any citation statistics
But we need these citations in order to attract the funding resources that allow us to do what we are doing

Therefore, if you are a happy ORCA user, please consider citing a few of the papers listed below in the main body of your paper

In addition to the list printed below, the program has created the file ./output/gamma_terpinene/gamma_terpinene.bibtex that contains the list in bibtex format
You can import this file easily into all common literature databanks and citation aid programs


List of essential papers. We consider these as the minimum necessary citations

  1. Neese,F.
     Software update: the ORCA program system, version 5.0
     WIRES Comput. Molec. Sci., 2022 12(1)e1606
     doi.org/10.1002/wcms.1606
  2. Mueller,M.; Hansen,A.; Grimme,S.
     wB97X-3c: A composite range-separated hybrid DFT method with a molecule-optimized polarized valence double-zeta basis set
     J. Chem. Phys., 2023 158 014103
     doi.org/10.1063/5.0133026

List of papers to cite with high priority. The work reported in these papers was absolutely
necessary for this run to complete.
Our perspective: the developers of density functionals and basis sets usually get cited in chemistry papers
Good! But without the algorithms to do something with them, the functionals or basis sets would not do anything.
Hence, in our opinion, the algorithm design and method developments papers are equally worthy of getting cited

  1. Neese,F.
     An improvement of the resolution of the identity approximation for the formation of the Coulomb matrix
     J. Comp. Chem., 2003 24(14)1740-1747
     doi.org/10.1002/jcc.10318
  2. Neese,F.; Wennmohs,F.; Hansen,A.; Becker,U.
     Efficient, approximate and parallel Hartree-Fock and hybrid DFT calculations. A 'chain-of-spheres' algorithm for the Hartree-Fock exchange
     Chem. Phys., 2009 356(1-3)98-109
     doi.org/10.1016/j.chemphys.2008.10.036
  3. Bykov,D.; Petrenko,T.; Izsak,R.; Kossmann,S.; Becker,U.; Valeev,E.; Neese,F.
     Efficient implementation of the analytic second derivatives of Hartree-Fock and hybrid DFT energies: a detailed analysis of different approximations
     Molec. Phys., 2015 113 1961-1977
     doi.org/10.1080/00268976.2015.1025114
  4. Helmich-Paris,B.; de Souza,B.; Neese,F.; Izsák,R.
     An improved chain of spheres for exchange algorithm
     J. Chem. Phys., 2021 155 104109
     doi.org/doi: 10.1063/5.0058766.
  5. Neese,F.
     The SHARK Integral Generation and Digestion System
     J. Comp. Chem., 2022  1-16
     doi.org/10.1002/jcc.26942
  6. Caldeweyher,E.; Bannwarth,C.; Grimme,S.
     Extension of the D3 dispersion coefficient model
     J. Chem. Phys., 2017 147 034112
     doi.org/10.1063/1.4993215
  7. Caldeweyher,E.; Ehlert,S.; Hansen,A.; Neugebauer,H.; Spicher,S.; Bannwarth,C.; Grimme,S.
     A generally applicable atomic-charge dependent London dispersion correction
     J. Chem. Phys., 2019 150 154122
     doi.org/10.1063/1.5090222
  8. Caldeweyher,E.; Mewes,J.; Ehlert,S.; Grimme,S.
     Extension and evaluation of the D4 London-dispersion model for periodic systems
     Phys. Chem. Chem. Phys., 2020 22(16)8499-8512
     doi.org/10.1039/D0CP00502A
  9. Wittmann,L.; Gordiy,I.; Friede,M.; Helmich-Paris,B.; Grimme,S.; Hansen,A.; Bursch,M.
     Extension of the D3 and D4 London Dispersion Corrections to the full Actinides Series
     Phys. Chem. Chem. Phys., 2024 26(32)21379-21394
     doi.org/https://doi.org/10.1039/D4CP01514B 

List of suggested additional citations. These are papers that are important in the 'surrounding' of 
of this run, or papers that preceded the highly important papers. If you like your results we are grateful for a citation.

  1. Izsak,R.; Neese,F.
     An overlap fitted chain of spheres exchange method
     J. Chem. Phys., 2011 135 144105
     doi.org/10.1063/1.3646921
  2. Izsak,R.; Hansen,A.; Neese,F.
     The resolution of identity and chain of spheres approximations for the LPNO-CCSD singles Fock term
     Molec. Phys., 2012 110 2413-2417
     doi.org/10.1080/00268976.2012.687466
  3. Neese,F.
     The ORCA program system
     WIRES Comput. Molec. Sci., 2012 2(1)73-78
     doi.org/10.1002/wcms.81
  4. Izsak,R.; Neese,F.; Klopper,W.
     Robust fitting techniques in the chain of spheres approximation to the Fock exchange: The role of the complementary space
     J. Chem. Phys., 2013 139 
     doi.org/10.1063/1.4819264
  5. Neese,F.
     Software update: the ORCA program system, version 4.0
     WIRES Comput. Molec. Sci., 2018 8(1)1-6
     doi.org/10.1002/wcms.1327
  6. Neese,F.; Wennmohs,F.; Becker,U.; Riplinger,C.
     The ORCA quantum chemistry program package
     J. Chem. Phys., 2020 152 Art. No. L224108
     doi.org/10.1063/5.0004608

List of optional additional citations

  1. Neese,F.
     Approximate second-order SCF convergence for spin unrestricted wavefunctions
     Chem. Phys. Lett., 2000 325(1-3)93-98
     doi.org/10.1016/s0009-2614(00)00662-x

Timings for individual modules:

Sum of individual times          ...     1137.850 sec (=  18.964 min)
Startup calculation              ...       65.495 sec (=   1.092 min)   5.8 %
SCF iterations                   ...      735.728 sec (=  12.262 min)  64.7 %
Property integrals               ...       60.194 sec (=   1.003 min)   5.3 %
SCF Response                     ...       43.365 sec (=   0.723 min)   3.8 %
Property calculations            ...       79.169 sec (=   1.319 min)   7.0 %
SCF Gradient evaluation          ...      153.445 sec (=   2.557 min)  13.5 %
Geometry relaxation              ...        0.454 sec (=   0.008 min)   0.0 %
                             ****ORCA TERMINATED NORMALLY****
TOTAL RUN TIME: 0 days 0 hours 19 minutes 6 seconds 781 msec
