
                                 *****************
                                 * O   R   C   A *
                                 *****************

                                            #,                                       
                                            ###                                      
                                            ####                                     
                                            #####                                    
                                            ######                                   
                                           ########,                                 
                                     ,,################,,,,,                         
                               ,,#################################,,                 
                          ,,##########################################,,             
                       ,#########################################, ''#####,          
                    ,#############################################,,   '####,        
                  ,##################################################,,,,####,       
                ,###########''''           ''''###############################       
              ,#####''   ,,,,##########,,,,          '''####'''          '####       
            ,##' ,,,,###########################,,,                        '##       
           ' ,,###''''                  '''############,,,                           
         ,,##''                                '''############,,,,        ,,,,,,###''
      ,#''                                            '''#######################'''  
     '                                                          ''''####''''         
             ,#######,   #######,   ,#######,      ##                                
            ,#'     '#,  ##    ##  ,#'     '#,    #''#        ,####,   ,####,        
            ##       ##  ##   ,#'  ##            #'  '#       #'       #'  '#        
            ##       ##  #######   ##           ,######,      #####,   #    #        
            '#,     ,#'  ##    ##  '#,     ,#' ,#      #,     #,   #   #,  ,#        
             '#######'   ##     ##  '#######'  #'      '#     '####' # '####'        



                #########################################################
                #                        -***-                          #
                #          Department of theory and spectroscopy        #
                #                                                       #
                #                      Frank Neese                      #
                #                                                       #
                #     Directorship, Architecture, Infrastructure        #
                #                    SHARK, DRIVERS                     #
                #        Core code/Algorithms in most modules           #
                #                                                       #
                #        Max Planck Institute fuer Kohlenforschung      #
                #                Kaiser Wilhelm Platz 1                 #
                #                 D-45470 Muelheim/Ruhr                 #
                #                      Germany                          #
                #                                                       #
                #                  All rights reserved                  #
                #                        -***-                          #
                #########################################################


                         Program Version 6.0.1  -  RELEASE   -


 With contributions from (in alphabetic order):
[Max-Planck-Institut fuer Kohlenforschung]                               
  Daniel Aravena         : Magnetic Suceptibility                        
  Michael Atanasov       : Ab Initio Ligand Field Theory (pilot matlab implementation)
  Alexander A. Auer      : GIAO ZORA, VPT2 properties, NMR spectrum      
  Ute Becker             : All parallelization in ORCA, NUMFREQ, NUMCALC 
  Giovanni Bistoni       : ED, misc. LED, open-shell LED, HFLD           
  Martin Brehm           : Molecular dynamics                            
  Dmytro Bykov           : pre 5.0 version of the SCF Hessian            
  Marcos Casanova-Páez   : Triplet and SCS-CIS(D). UHF-(DLPNO)-IP/EA/STEOM-CCSD. UHF-CVS-IP/STEOM-CCSD   
  Vijay G. Chilkuri      : MRCI spin determinant printing, contributions to CSF-ICE 
  Pauline Colinet        : FMM embedding                                 
  Dipayan Datta          : RHF DLPNO-CCSD density                        
  Achintya Kumar Dutta   : EOM-CC, STEOM-CC                              
  Nicolas Foglia         : Exact transition moments, OPA infrastructure, MCD improvements    
  Dmitry Ganyushin       : Spin-Orbit,Spin-Spin,Magnetic field MRCI      
  Miquel Garcia-Rates    : C-PCM and meta-GGA Hessian, CCSD/C-PCM, Gaussian charge scheme 
  Tiago L. C. Gouveia    : GS-ROHF, GS-ROCIS                             
  Yang Guo               : DLPNO-NEVPT2, F12-NEVPT2, CIM, IAO-localization        
  Andreas Hansen         : Spin unrestricted coupled pair/coupled cluster methods 
  Ingolf Harden          : AUTO-CI MPn and infrastructure                
  Benjamin Helmich-Paris : MC-RPA, TRAH-(SCF,CASSCF), AVAS, COSX integrals, SCF dyn. polar. 
  Lee Huntington         : MR-EOM, pCC                                   
  Robert Izsak           : Overlap fitted RIJCOSX, COSX-SCS-MP3, EOM     
  Riya Kayal             : Wick's Theorem for AUTO-CI, AUTO-CI UHF-CCSDT 
  Emily Kempfer          : AUTO-CI, RHF CISDT and CCSDT                  
  Christian Kollmar      : KDIIS, OOCD, Brueckner-CCSD(T), CCSD density, CASPT2, CASPT2-K, improved NEVPT2 
  Axel Koslowski         : Symmetry handling                             
  Simone Kossmann        : meta-GGA functionals, TD-DFT gradient, OOMP2, (MP2 Hessian; deprecated post 5.0) 
  Lucas Lang             : DCDCAS                                        
  Marvin Lechner         : AUTO-CI (C++ implementation), FIC-MRCC        
  Spencer Leger          : CASSCF response                               
  Dagmar Lenk            : GEPOL surface, SMD, ORCA-2-JSON               
  Dimitrios Liakos       : Extrapolation schemes; Compound Job, initial MDCI parallelization 
  Dimitrios Manganas     : Further ROCIS development; embedding schemes. LFT, Crystal Embedding 
  Dimitrios Pantazis     : SARC Basis sets                               
  Anastasios Papadopoulos: AUTO-CI, single reference methods and gradients 
  Taras Petrenko         : pre 6.0 DFT Hessian and TD-DFT gradient, (ASA, deprecated), ECA, 1-Electron XAS/XES, NRVS 
  Peter Pinski           : DLPNO-MP2, DLPNO-MP2 Gradient                 
  Christoph Reimann      : Effective Core Potentials                     
  Marius Retegan         : Local ZFS, SOC                                
  Christoph Riplinger    : Optimizer, TS searches, QM/MM, DLPNO-CCSD(T), (RO)-DLPNO pert. Triples 
  Michael Roemelt        : Original ROCIS implementation                 
  Masaaki Saitow         : Open-shell DLPNO-CCSD energy and density      
  Barbara Sandhoefer     : DKH picture change effects                    
  Kantharuban Sivalingam : CASSCF convergence/infrastructure, NEVPT2 and variants, FIC-MRCI 
  Bernardo de Souza      : ESD, SOC TD-DFT                               
  Georgi L. Stoychev     : AutoAux, RI-MP2 NMR, DLPNO-MP2 response, X2C  
  Van Anh Tran           : RI-MP2 g-tensors                              
  Willem Van den Heuvel  : Paramagnetic NMR                              
  Zikuan Wang            : NOTCH, Electric field optimization            
  Frank Wennmohs         : Technical directorship and infrastructure     
  Hang Xu                : AUTO-CI-Response properties                   
                                                                         
[FACCTs GmbH]                                                            
  Markus Bursch, Miquel Garcia-Rates, Christoph Riplinger, Bernardo de Souza, Georgi L. Stoychev 
                                                                 
  APM, Basis sets (HGBS, AHGBS, def-TZVP (Ac-Lr), def2-XVPD (La-Lu)), CI-OPT, improved COSX, DLPNO-Multilevel,           
  DOCKER, DRACO, updates on ESD, GOAT, IRC, LR-CPCM, MBIS, meta-GGA TD-DFT gradient, ML-optimized integration grids, 
  MM, NACMEs, nearIR, NEB, NEB-TS, NL-DFT gradient (VV10), 2- and 3-layer-ONIOM, interface openCOSMO-RS, QMMM,   
  Crystal-QMMM, SF, symmetry and pop. for TD-DFT, r2SCAN hybrids, SOLVATOR                                   
                                                                         
[Other institutions]                                                     
  V. Asgeirsson          : NEB                                           
  Christoph Bannwarth    : sTDA-DFT, sTD-DFT, PBEh-3c, B97-3c, D3        
  Sebastian Ehlert       : rSCAN, r2SCAN, r2SCAN-3c, D4, dhf basis sets  
  Marvin Friede          : D4 for Fr, Ra, Ac-Lr                          
  Lars Goerigk           : TD-DFT with DH, B97 family of functionals     
  Stefan Grimme          : VdW corrections, initial TS optimization, DFT functionals, gCP, sTDA/sTD-DF 
  Waldemar Hujo          : DFT-NL                                        
  H. Jonsson             : NEB                                           
  Holger Kruse           : gCP                                           
  Marcel Mueller         : wB97X-3c, vDZP basis set                      
  Hagen Neugebauer       : wr2SCAN                                       
  Tobias Risthaus        : range-separated hybrid DFT                    
  Lukas Wittmann         : regularized MP2, r2SCAN double-hybrids, wr2SCAN        
                                                                         
We gratefully acknowledge several colleagues who have allowed us to      
interface, adapt or use parts of their codes:                            
  Ed Valeev, F. Pavosevic, A. Kumar             : LibInt (2-el integral package), F12 methods 
  Garnet Chan, S. Sharma, J. Yang, R. Olivares  : DMRG                   
  Ulf Ekstrom                                   : XCFun DFT Library      
  Mihaly Kallay                                 : mrcc  (arbitrary order and MRCC methods)
  Frank Weinhold                                : gennbo (NPA and NBO analysis)           
  Simon Mueller                                 : openCOSMO-RS                            
  Christopher J. Cramer and Donald G. Truhlar   : smd solvation model                     
  S Lehtola, MJT Oliveira, MAL Marques          : LibXC Library                           
  Liviu Ungur et al                             : ANISO software                          


 Your calculation uses the libint2 library for the computation of 2-el integrals
 For citations please refer to: http://libint.valeyev.net

 Your ORCA version has been built with support for libXC version: 6.2.2
 For citations please refer to: https://libxc.gitlab.io

 This ORCA versions uses:
   CBLAS   interface :  Fast vector & matrix operations
   LAPACKE interface :  Fast linear algebra routines
   SCALAPACK package :  Parallel linear algebra routines
   Shared memory     :  Shared parallel matrices
   BLAS/LAPACK       :  OpenBLAS 0.3.27  USE64BITINT DYNAMIC_ARCH NO_AFFINITY SkylakeX SINGLE_THREADED
        Core in use  :  SkylakeX
   Copyright (c) 2011-2014, The OpenBLAS Project


Your calculation utilizes the atom-pairwise dispersion correction
based on EEQ partial charges (D4)


================================================================================

cite the ECPs for C  [vDZP-ECP], O  [vDZP-ECP] as follows:
   B-Ne (ecp-2-mwb), Al-Ar (ecp-10-mwb), Ga-Kr (ecp-28-mwb), Y-Cd (ecp-28-mwb), In-Xe (ecp-46-mwb):
     A. Bergner, M. Dolg, W. Küchle, H. Stoll, and H. Preuß, Mol. Phys. 80, 1431 (1993)., T. Leininger, A. Berning, A. Nicklass, H. Stoll, H.-J. Werner, and H.-J.Flad, Chem. Phys. 217, 19 (1997).
   Na-Mg, K-Ca, Rb-Sr, Cs-Ba (CRENBL):
     L. Fernandez Pacios and P. A. Christiansen, J. Chem. Phys. 82, 2664 (1985)., M. M. Hurley, L. F. Pacios, P. A. Christiansen, R. B. Ross, and W. C. Ermler, J. Chem. Phys. 84, 6840 (1986)., L. A. LaJohn, P. A. Christiansen, R. B. Ross, T. Atashroo, and W. C. Ermler, J. Chem. Phys. 87, 2812 (1987)., R. B. Ross, J. M. Powers, T. Atashroo, W. C. Ermler, L. A. LaJohn, and P. A. Christiansen, J. Chem. Phys. 93, 6654 (1990). 
   Sc-Zn (ecp-10-mdf):
     M. Dolg, U. Wedig, H. Stoll, and H. Preuss, J. Chem. Phys. 86, 866 (1986). 
   Y-Cd (ecp-28-mwb), Hf-Hg (ecp-60-mwb):
     D. Andrae, U. Häußermann, M. Dolg, H. Stoll, and H. Preuß, Theor. Chim. Acta 77, 123 (1990). 
   La (ecp-46-mwb):
     M. Dolg, H. Stoll, and H. Preuss, J. Chem. Phys. 90, 1730 (1989)., M. Dolg, H. Stoll, and H. Preuss, Theor. Chim. Acta 85, 441 (1993).
   Ce-Lu (SBKJC-ecp):
     T. R. Cundari and W. J. Stevens, J. Chem. Phys. 98, 5555 (1993).
   Tl-Rn (ecp-78-mwb):
     W. Küchle, M. Dolg, H. Stoll, and H. Preuss, Mol. Phys. 74, 1245 (1991).

ECP parameters for C  [vDZP-ECP], O  [vDZP-ECP] have been obtained from:
MM, AH, SG, J. Chem. Phys. 158, 014103 (2023), 10.1063/5.0133026

----- Orbital basis set information -----
Your calculation utilizes the basis: vDZP
   Marcel Mueller, Andreas Hansen, Stefan Grimme 
   J. Chem. Phys. 158, 014103 (2023). DOI: 10.1063/5.0133026

----- AuxJ basis set information -----
Your calculation utilizes the auxiliary basis: def2/J
   F. Weigend, Phys. Chem. Chem. Phys. 8, 1057 (2006).

================================================================================
                                        WARNINGS
                       Please study these warnings very carefully!
================================================================================

WARNING: Frozen-Core approximation turned on, but there are no core electrons.
  ===> : Turning off frozen-core approximation


WARNING: Geometry Optimization
  ===> : Switching off AutoStart
         For restart on a previous wavefunction, please use MOREAD

================================================================================
                                       INPUT FILE
================================================================================
NAME = ./output/cedrol/cedrol.inp
|  1> ! wB97X-3c OPT FREQ TightSCF
|  2> %pal
|  3>   nprocs 40
|  4> end
|  5> * xyz 0 1
|  6> C      3.443664     1.244358    -0.509609
|  7> C      2.517833     0.024044    -0.394582
|  8> C      2.852651    -0.824786     0.830845
|  9> C      1.584250    -1.607801     1.115417
| 10> C      0.451662    -0.613584     0.820460
| 11> C      0.988888     0.319100    -0.286950
| 12> C      0.609421     1.805546     0.011163
| 13> C     -0.914040     2.010337     0.206919
| 14> C     -1.785213     1.182426    -0.784271
| 15> C     -1.202056    -0.279932    -0.973674
| 16> C      0.215351    -0.112615    -1.533651
| 17> C     -0.929643    -1.157621     0.306783
| 18> C     -2.001176    -1.071217     1.418747
| 19> C     -0.899257    -2.654940    -0.119440
| 20> C     -3.265940     1.190889    -0.334153
| 21> O     -1.738702     1.854398    -2.025418
| 22> H      4.495926     0.904795    -0.616743
| 23> H      3.183024     1.837058    -1.411410
| 24> H      3.381016     1.890168     0.390878
| 25> H      2.716742    -0.607158    -1.290295
| 26> H      3.086173    -0.178286     1.706628
| 27> H      3.712240    -1.502930     0.636216
| 28> H      1.553006    -1.958468     2.169707
| 29> H      1.582170    -2.485490     0.439380
| 30> H      0.314816    -0.029135     1.759393
| 31> H      0.940476     2.450423    -0.831662
| 32> H      1.129059     2.157039     0.928548
| 33> H     -1.146066     3.091618     0.087278
| 34> H     -1.166905     1.774185     1.257564
| 35> H     -1.834114    -0.827829    -1.708334
| 36> H      0.301000     0.627426    -2.358447
| 37> H      0.591233    -1.072661    -1.945494
| 38> H     -3.012673    -1.268685     1.004937
| 39> H     -1.802581    -1.835300     2.201300
| 40> H     -1.995469    -0.106531     1.953732
| 41> H     -1.901584    -2.969690    -0.483092
| 42> H     -0.182243    -2.859020    -0.938362
| 43> H     -0.635742    -3.308471     0.740161
| 44> H     -3.737696     2.158392    -0.611336
| 45> H     -3.393684     1.098773     0.759660
| 46> H     -3.833518     0.380637    -0.839148
| 47> H     -2.272301     1.330535    -2.680089
| 48> *
| 49> 
| 50>                          ****END OF INPUT****
================================================================================

                       *****************************
                       * Geometry Optimization Run *
                       *****************************

Geometry optimization settings:
Update method            Update   .... BFGS
Choice of coordinates    CoordSys .... (2022) Redundant Internals
Initial Hessian          InHess   .... Almloef's Model
Max. no of cycles        MaxIter  .... 126

Convergence Tolerances:
Energy Change            TolE     ....  5.0000e-06 Eh
Max. Gradient            TolMAXG  ....  3.0000e-04 Eh/bohr
RMS Gradient             TolRMSG  ....  1.0000e-04 Eh/bohr
Max. Displacement        TolMAXD  ....  4.0000e-03 bohr
RMS Displacement         TolRMSD  ....  2.0000e-03 bohr
Strict Convergence                .... False

------------------------------------------------------------------------------
                        ORCA OPTIMIZATION COORDINATE SETUP
------------------------------------------------------------------------------

The optimization will be done in redundant internal coordinates (2022)
Making redundant internal coordinates   ...  (2022 redundants) done
Evaluating the initial hessian          ...  (Almloef) done
Evaluating the coordinates              ...  done
Calculating the B-matrix                .... done
Calculating the G-matrix                .... done
Diagonalizing the G-matrix              .... done
Small eigenvalue found = 2.578e-02
Small eigenvalue found = 2.818e-02
The first mode is                       ....  120
The number of degrees of freedom        ....  120

    -----------------------------------------------------------------
                    Redundant Internal Coordinates


    -----------------------------------------------------------------
         Definition                    Initial Value    Approx d2E/dq
    -----------------------------------------------------------------
      1. B(C   1,C   0)                  1.5361         0.365315   
      2. B(C   2,C   1)                  1.5278         0.376555   
      3. B(C   3,C   2)                  1.5175         0.391069   
      4. B(C   4,C   3)                  1.5357         0.365900   
      5. B(C   5,C   4)                  1.5443         0.354454   
      6. B(C   5,C   1)                  1.5609         0.333523   
      7. B(C   6,C   5)                  1.5628         0.331150   
      8. B(C   7,C   6)                  1.5496         0.347649   
      9. B(C   8,C   7)                  1.5578         0.337268   
     10. B(C   9,C   8)                  1.5857         0.304450   
     11. B(C  10,C   9)                  1.5332         0.369249   
     12. B(C  10,C   5)                  1.5294         0.374428   
     13. B(C  11,C   9)                  1.5761         0.315366   
     14. B(C  11,C   4)                  1.5709         0.321414   
     15. B(C  12,C  11)                  1.5466         0.351415   
     16. B(C  13,C  11)                  1.5571         0.338177   
     17. B(C  14,C   8)                  1.5477         0.350117   
     18. B(O  15,C   8)                  1.4121         0.515874   
     19. B(H  16,C   0)                  1.1109         0.333521   
     20. B(H  17,C   0)                  1.1102         0.334385   
     21. B(H  18,C   0)                  1.1099         0.334717   
     22. B(H  19,C   1)                  1.1137         0.330099   
     23. B(H  20,C   2)                  1.1133         0.330530   
     24. B(H  21,C   2)                  1.1120         0.332082   
     25. B(H  22,C   3)                  1.1115         0.332731   
     26. B(H  23,C   3)                  1.1079         0.337224   
     27. B(H  24,C   4)                  1.1144         0.329218   
     28. B(H  25,C   6)                  1.1117         0.332541   
     29. B(H  26,C   6)                  1.1114         0.332899   
     30. B(H  27,C   7)                  1.1123         0.331717   
     31. B(H  28,C   7)                  1.1061         0.339360   
     32. B(H  29,C   9)                  1.1133         0.330572   
     33. B(H  30,C  10)                  1.1114         0.332833   
     34. B(H  31,C  10)                  1.1102         0.334320   
     35. B(H  32,C  12)                  1.1106         0.333895   
     36. B(H  33,C  12)                  1.1116         0.332632   
     37. B(H  34,C  12)                  1.1031         0.343163   
     38. B(H  35,C  13)                  1.1117         0.332457   
     39. B(H  36,C  13)                  1.1074         0.337771   
     40. B(H  37,C  13)                  1.1115         0.332739   
     41. B(H  38,C  14)                  1.1115         0.332745   
     42. B(H  39,C  14)                  1.1051         0.340677   
     43. B(H  40,C  14)                  1.1107         0.333722   
     44. B(H  41,O  15)                  0.9939         0.459143   
     45. A(H  16,C   0,H  17)          107.8931         0.284068   
     46. A(C   1,C   0,H  18)          111.5600         0.319289   
     47. A(H  17,C   0,H  18)          109.5815         0.284226   
     48. A(C   1,C   0,H  17)          110.0877         0.319238   
     49. A(C   1,C   0,H  16)          109.5912         0.319103   
     50. A(H  16,C   0,H  18)          108.0334         0.284112   
     51. A(C   5,C   1,H  19)          109.7277         0.313884   
     52. A(C   0,C   1,C   5)          116.4479         0.355049   
     53. A(C   0,C   1,H  19)          106.4026         0.318566   
     54. A(C   2,C   1,H  19)          106.9216         0.320146   
     55. A(C   0,C   1,C   2)          111.6752         0.362458   
     56. A(C   2,C   1,C   5)          105.3300         0.356880   
     57. A(H  20,C   2,H  21)          109.2480         0.283367   
     58. A(C   1,C   2,H  21)          111.5810         0.320460   
     59. A(C   3,C   2,H  21)          111.3611         0.322450   
     60. A(C   1,C   2,C   3)          104.7085         0.366707   
     61. A(C   1,C   2,H  20)          110.7495         0.320215   
     62. A(C   3,C   2,H  20)          109.1128         0.322202   
     63. A(C   4,C   3,H  22)          111.4510         0.319063   
     64. A(C   4,C   3,H  23)          113.2236         0.319762   
     65. A(C   2,C   3,C   4)          104.2630         0.364909   
     66. A(C   2,C   3,H  22)          111.3549         0.322553   
     67. A(C   2,C   3,H  23)          107.2123         0.323263   
     68. A(H  22,C   3,H  23)          109.1964         0.284337   
     69. A(C   5,C   4,H  24)          109.2783         0.316866   
     70. A(C  11,C   4,H  24)          110.4353         0.311875   
     71. A(C   3,C   4,H  24)          105.5618         0.318511   
     72. A(C   3,C   4,C   5)          105.7939         0.358838   
     73. A(C   5,C   4,C  11)          106.2936         0.351035   
     74. A(C   3,C   4,C  11)          119.1498         0.352927   
     75. A(C   1,C   5,C  10)          112.6977         0.356537   
     76. A(C   1,C   5,C   4)          106.0241         0.353238   
     77. A(C   4,C   5,C   6)          110.6821         0.352811   
     78. A(C   1,C   5,C   6)          115.5179         0.349202   
     79. A(C   4,C   5,C  10)          103.7755         0.360248   
     80. A(C   6,C   5,C  10)          107.5281         0.356105   
     81. A(C   7,C   6,H  26)          108.2766         0.316440   
     82. A(C   7,C   6,H  25)          108.1733         0.316384   
     83. A(C   5,C   6,H  25)          109.5615         0.313896   
     84. A(C   5,C   6,H  26)          110.1660         0.313950   
     85. A(C   5,C   6,C   7)          112.8622         0.351656   
     86. A(H  25,C   6,H  26)          107.6448         0.283742   
     87. A(C   6,C   7,H  27)          108.6603         0.316257   
     88. A(C   6,C   7,C   8)          113.5271         0.352747   
     89. A(H  27,C   7,H  28)          105.1890         0.284481   
     90. A(C   8,C   7,H  27)          109.3613         0.314703   
     91. A(C   8,C   7,H  28)          111.2870         0.315869   
     92. A(C   6,C   7,H  28)          108.4527         0.317431   
     93. A(C   9,C   8,O  15)          108.7685         0.368467   
     94. A(C   7,C   8,O  15)          106.7326         0.375018   
     95. A(C   9,C   8,C  14)          113.0565         0.347119   
     96. A(C   7,C   8,C  14)          110.3090         0.353170   
     97. A(C   7,C   8,C   9)          111.1280         0.344944   
     98. A(C  14,C   8,O  15)          106.5308         0.377449   
     99. A(C  10,C   9,C  11)          101.4032         0.352337   
    100. A(C   8,C   9,C  11)          118.6907         0.341084   
    101. A(C  11,C   9,H  29)          111.1114         0.311125   
    102. A(C  10,C   9,H  29)          109.7281         0.319198   
    103. A(C   8,C   9,H  29)          108.8984         0.309361   
    104. A(C   8,C   9,C  10)          106.4379         0.350246   
    105. A(H  30,C  10,H  31)          105.9263         0.283968   
    106. A(C   9,C  10,H  31)          110.7395         0.319786   
    107. A(C   5,C  10,H  31)          112.0397         0.320515   
    108. A(C   9,C  10,H  30)          114.5164         0.319554   
    109. A(C   5,C  10,H  30)          112.2102         0.320282   
    110. A(C   5,C  10,C   9)          101.5760         0.362770   
    111. A(C  12,C  11,C  13)          105.3098         0.353552   
    112. A(C   9,C  11,C  13)          108.4504         0.347150   
    113. A(C   4,C  11,C  13)          113.9140         0.348262   
    114. A(C   9,C  11,C  12)          115.6730         0.349403   
    115. A(C   4,C  11,C  12)          110.7778         0.350525   
    116. A(C   4,C  11,C   9)          102.9896         0.344196   
    117. A(H  33,C  12,H  34)          104.9973         0.285097   
    118. A(H  32,C  12,H  34)          109.9327         0.285265   
    119. A(C  11,C  12,H  34)          113.2002         0.318567   
    120. A(H  32,C  12,H  33)          107.6267         0.283886   
    121. A(C  11,C  12,H  33)          110.1182         0.316954   
    122. A(C  11,C  12,H  32)          110.6822         0.317149   
    123. A(H  36,C  13,H  37)          108.0615         0.284410   
    124. A(H  35,C  13,H  37)          107.4727         0.283709   
    125. A(C  11,C  13,H  37)          110.9976         0.314998   
    126. A(H  35,C  13,H  36)          106.8388         0.284372   
    127. A(C  11,C  13,H  36)          113.0953         0.315767   
    128. A(C  11,C  13,H  35)          110.1323         0.314954   
    129. A(H  39,C  14,H  40)          109.2774         0.284920   
    130. A(H  38,C  14,H  40)          107.7409         0.283878   
    131. A(C   8,C  14,H  40)          110.6517         0.316931   
    132. A(H  38,C  14,H  39)          105.6836         0.284790   
    133. A(C   8,C  14,H  39)          113.4539         0.317998   
    134. A(C   8,C  14,H  38)          109.7738         0.316780   
    135. A(C   8,O  15,H  41)          108.0862         0.351172   
    136. D(C   5,C   1,C   0,H  16)   -177.9309         0.010686   
    137. D(C   2,C   1,C   0,H  16)     61.0411         0.010686   
    138. D(C   5,C   1,C   0,H  18)     62.4690         0.010686   
    139. D(C   5,C   1,C   0,H  17)    -59.4149         0.010686   
    140. D(C   2,C   1,C   0,H  18)    -58.5590         0.010686   
    141. D(C   2,C   1,C   0,H  17)    179.5570         0.010686   
    142. D(C   3,C   2,C   1,C   5)     30.8001         0.011312   
    143. D(H  20,C   2,C   1,C   5)    -86.6808         0.011312   
    144. D(H  20,C   2,C   1,H  19)    156.6240         0.011312   
    145. D(C   3,C   2,C   1,H  19)    -85.8952         0.011312   
    146. D(C   3,C   2,C   1,C   0)    158.0941         0.011312   
    147. D(H  20,C   2,C   1,C   0)     40.6132         0.011312   
    148. D(C   4,C   3,C   2,H  20)     80.5195         0.012156   
    149. D(C   4,C   3,C   2,H  21)   -158.8061         0.012156   
    150. D(H  22,C   3,C   2,C   1)   -158.3770         0.012156   
    151. D(H  22,C   3,C   2,H  20)    -39.7817         0.012156   
    152. D(C   4,C   3,C   2,C   1)    -38.0758         0.012156   
    153. D(H  22,C   3,C   2,H  21)     80.8927         0.012156   
    154. D(C  11,C   4,C   3,H  23)     33.7125         0.010718   
    155. D(C  11,C   4,C   3,H  22)    -89.8623         0.010718   
    156. D(C  11,C   4,C   3,C   2)    149.9010         0.010718   
    157. D(C   5,C   4,C   3,C   2)     30.4547         0.010718   
    158. D(C   5,C   4,C   3,H  23)    -85.7337         0.010718   
    159. D(C   5,C   4,C   3,H  22)    150.6914         0.010718   
    160. D(C   6,C   5,C   1,H  19)   -134.0326         0.009039   
    161. D(C   6,C   5,C   1,C   2)    111.2009         0.009039   
    162. D(C   6,C   5,C   1,C   0)    -13.1392         0.009039   
    163. D(C   4,C   5,C   1,C   2)    -11.7745         0.009039   
    164. D(C   4,C   5,C   1,C   0)   -136.1146         0.009039   
    165. D(C   1,C   5,C   4,C   3)    -11.3672         0.010103   
    166. D(C   4,C   5,C   1,H  19)    102.9920         0.009039   
    167. D(C   6,C   5,C   4,H  24)    -24.1249         0.010103   
    168. D(C   6,C   5,C   4,C  11)     95.0584         0.010103   
    169. D(C   6,C   5,C   4,C   3)   -137.3473         0.010103   
    170. D(C   1,C   5,C   4,H  24)    101.8552         0.010103   
    171. D(C   1,C   5,C   4,C  11)   -138.9614         0.010103   
    172. D(H  25,C   6,C   5,C  10)    -63.2453         0.008924   
    173. D(C   7,C   6,C   5,C  10)     57.3543         0.008924   
    174. D(C   7,C   6,C   5,C   4)    -55.3606         0.008924   
    175. D(H  25,C   6,C   5,C   4)   -175.9602         0.008924   
    176. D(C   7,C   6,C   5,C   1)   -175.8355         0.008924   
    177. D(H  25,C   6,C   5,C   1)     63.5649         0.008924   
    178. D(H  27,C   7,C   6,H  26)     75.7491         0.009748   
    179. D(H  27,C   7,C   6,H  25)    -40.6354         0.009748   
    180. D(H  27,C   7,C   6,C   5)   -162.0248         0.009748   
    181. D(C   8,C   7,C   6,H  25)     81.2805         0.009748   
    182. D(C   8,C   7,C   6,C   5)    -40.1088         0.009748   
    183. D(C   8,C   7,C   6,H  26)   -162.3350         0.009748   
    184. D(C  14,C   8,C   7,H  28)     44.8243         0.009224   
    185. D(C  14,C   8,C   7,H  27)    -70.9582         0.009224   
    186. D(C  14,C   8,C   7,C   6)    167.5166         0.009224   
    187. D(C   9,C   8,C   7,H  27)    162.8345         0.009224   
    188. D(C   9,C   8,C   7,H  28)    -81.3830         0.009224   
    189. D(C   9,C   8,C   7,C   6)     41.3094         0.009224   
    190. D(C  11,C   9,C   8,O  15)    170.3687         0.007692   
    191. D(C  11,C   9,C   8,C  14)    -71.5166         0.007692   
    192. D(C  11,C   9,C   8,C   7)     53.1555         0.007692   
    193. D(C  10,C   9,C   8,O  15)     57.0122         0.007692   
    194. D(C  10,C   9,C   8,C  14)    175.1269         0.007692   
    195. D(C  10,C   9,C   8,C   7)    -60.2010         0.007692   
    196. D(C   9,C  10,C   5,C   6)    -74.4275         0.011192   
    197. D(C   9,C  10,C   5,C   4)     42.8811         0.011192   
    198. D(C   9,C  10,C   5,C   1)    157.1250         0.011192   
    199. D(H  30,C  10,C   9,H  29)     72.4435         0.010902   
    200. D(H  30,C  10,C   9,C   8)    -45.2378         0.010902   
    201. D(C   5,C  10,C   9,H  29)   -166.3913         0.010902   
    202. D(C   5,C  10,C   9,C  11)    -48.8315         0.010902   
    203. D(C   5,C  10,C   9,C   8)     75.9274         0.010902   
    204. D(H  30,C  10,C   5,C   6)     48.3343         0.011192   
    205. D(H  30,C  10,C   9,C  11)   -169.9967         0.010902   
    206. D(H  30,C  10,C   5,C   4)    165.6429         0.011192   
    207. D(H  30,C  10,C   5,C   1)    -80.1132         0.011192   
    208. D(C  12,C  11,C   9,H  29)    -86.7649         0.008181   
    209. D(C  12,C  11,C   9,C  10)    156.6836         0.008181   
    210. D(C  12,C  11,C   9,C   8)     40.6143         0.008181   
    211. D(C   4,C  11,C   9,H  29)    152.2497         0.008181   
    212. D(C   4,C  11,C   9,C  10)     35.6982         0.008181   
    213. D(C   4,C  11,C   9,C   8)    -80.3711         0.008181   
    214. D(C  12,C  11,C   4,H  24)    -15.5683         0.008460   
    215. D(C  12,C  11,C   4,C   5)   -133.9918         0.008460   
    216. D(C  12,C  11,C   4,C   3)    106.8178         0.008460   
    217. D(C   9,C  11,C   4,H  24)    108.6995         0.008460   
    218. D(C   9,C  11,C   4,C   5)     -9.7239         0.008460   
    219. D(C   9,C  11,C   4,C   3)   -128.9143         0.008460   
    220. D(H  33,C  12,C  11,C  13)     51.5971         0.009943   
    221. D(H  33,C  12,C  11,C   9)    171.3102         0.009943   
    222. D(H  33,C  12,C  11,C   4)    -72.0023         0.009943   
    223. D(H  32,C  12,C  11,C  13)    -67.2839         0.009943   
    224. D(H  32,C  12,C  11,C   9)     52.4292         0.009943   
    225. D(H  32,C  12,C  11,C   4)    169.1167         0.009943   
    226. D(H  36,C  13,C  11,C  12)    178.5944         0.009269   
    227. D(H  36,C  13,C  11,C   9)     54.2027         0.009269   
    228. D(H  36,C  13,C  11,C   4)    -59.8231         0.009269   
    229. D(H  35,C  13,C  11,C  12)     59.1394         0.009269   
    230. D(H  35,C  13,C  11,C   9)    -65.2523         0.009269   
    231. D(H  35,C  13,C  11,C   4)   -179.2781         0.009269   
    232. D(H  39,C  14,C   8,O  15)   -155.4822         0.009876   
    233. D(H  39,C  14,C   8,C   9)     85.1060         0.009876   
    234. D(H  39,C  14,C   8,C   7)    -40.0103         0.009876   
    235. D(H  38,C  14,C   8,O  15)    -37.5058         0.009876   
    236. D(H  38,C  14,C   8,C   9)   -156.9176         0.009876   
    237. D(H  38,C  14,C   8,C   7)     77.9661         0.009876   
    238. D(H  41,O  15,C   8,C  14)    -63.4348         0.021086   
    239. D(H  41,O  15,C   8,C   9)     58.7278         0.021086   
    240. D(H  41,O  15,C   8,C   7)    178.7071         0.021086   
    -----------------------------------------------------------------

Number of atoms                         .... 42
Number of degrees of freedom            .... 240


         *************************************************************
         *                GEOMETRY OPTIMIZATION CYCLE   1            *
         *************************************************************
---------------------------------
CARTESIAN COORDINATES (ANGSTROEM)
---------------------------------
  C      3.443664    1.244358   -0.509609
  C      2.517833    0.024044   -0.394582
  C      2.852651   -0.824786    0.830845
  C      1.584250   -1.607801    1.115417
  C      0.451662   -0.613584    0.820460
  C      0.988888    0.319100   -0.286950
  C      0.609421    1.805546    0.011163
  C     -0.914040    2.010337    0.206919
  C     -1.785213    1.182426   -0.784271
  C     -1.202056   -0.279932   -0.973674
  C      0.215351   -0.112615   -1.533651
  C     -0.929643   -1.157621    0.306783
  C     -2.001176   -1.071217    1.418747
  C     -0.899257   -2.654940   -0.119440
  C     -3.265940    1.190889   -0.334153
  O     -1.738702    1.854398   -2.025418
  H      4.495926    0.904795   -0.616743
  H      3.183024    1.837058   -1.411410
  H      3.381016    1.890168    0.390878
  H      2.716742   -0.607158   -1.290295
  H      3.086173   -0.178286    1.706628
  H      3.712240   -1.502930    0.636216
  H      1.553006   -1.958468    2.169707
  H      1.582170   -2.485490    0.439380
  H      0.314816   -0.029135    1.759393
  H      0.940476    2.450423   -0.831662
  H      1.129059    2.157039    0.928548
  H     -1.146066    3.091618    0.087278
  H     -1.166905    1.774185    1.257564
  H     -1.834114   -0.827829   -1.708334
  H      0.301000    0.627426   -2.358447
  H      0.591233   -1.072661   -1.945494
  H     -3.012673   -1.268685    1.004937
  H     -1.802581   -1.835300    2.201300
  H     -1.995469   -0.106531    1.953732
  H     -1.901584   -2.969690   -0.483092
  H     -0.182243   -2.859020   -0.938362
  H     -0.635742   -3.308471    0.740161
  H     -3.737696    2.158392   -0.611336
  H     -3.393684    1.098773    0.759660
  H     -3.833518    0.380637   -0.839148
  H     -2.272301    1.330535   -2.680089

----------------------------
CARTESIAN COORDINATES (A.U.)
----------------------------
  NO LB      ZA    FRAG     MASS         X           Y           Z
   0 C     4.0000*   0    12.011    6.507582    2.351496   -0.963021
   1 C     4.0000*   0    12.011    4.758015    0.045437   -0.745652
   2 C     4.0000*   0    12.011    5.390729   -1.558620    1.570070
   3 C     4.0000*   0    12.011    2.993799   -3.038304    2.107833
   4 C     4.0000*   0    12.011    0.853517   -1.159506    1.550445
   5 C     4.0000*   0    12.011    1.868727    0.603012   -0.542257
   6 C     4.0000*   0    12.011    1.151639    3.411987    0.021095
   7 C     4.0000*   0    12.011   -1.727285    3.798986    0.391020
   8 C     4.0000*   0    12.011   -3.373564    2.234461   -1.482057
   9 C     4.0000*   0    12.011   -2.271557   -0.528995   -1.839977
  10 C     4.0000*   0    12.011    0.406954   -0.212812   -2.898180
  11 C     4.0000*   0    12.011   -1.756771   -2.187587    0.579736
  12 C     4.0000*   0    12.011   -3.781675   -2.024307    2.681043
  13 C     4.0000*   0    12.011   -1.699349   -5.017110   -0.225709
  14 C     4.0000*   0    12.011   -6.171732    2.250454   -0.631458
  15 O     6.0000*   0    15.999   -3.285671    3.504304   -3.827485
  16 H     1.0000    0     1.008    8.496069    1.709815   -1.165475
  17 H     1.0000    0     1.008    6.015044    3.471537   -2.667178
  18 H     1.0000    0     1.008    6.389194    3.571900    0.738652
  19 H     1.0000    0     1.008    5.133898   -1.147362   -2.438304
  20 H     1.0000    0     1.008    5.832022   -0.336912    3.225060
  21 H     1.0000    0     1.008    7.015117   -2.840126    1.202274
  22 H     1.0000    0     1.008    2.934756   -3.700968    4.100152
  23 H     1.0000    0     1.008    2.989868   -4.696895    0.830308
  24 H     1.0000    0     1.008    0.594916   -0.055057    3.324771
  25 H     1.0000    0     1.008    1.777242    4.630628   -1.571613
  26 H     1.0000    0     1.008    2.133612    4.076213    1.754701
  27 H     1.0000    0     1.008   -2.165751    5.842311    0.164932
  28 H     1.0000    0     1.008   -2.205131    3.352724    2.376452
  29 H     1.0000    0     1.008   -3.465973   -1.564370   -3.228283
  30 H     1.0000    0     1.008    0.568808    1.185663   -4.456819
  31 H     1.0000    0     1.008    1.117268   -2.027036   -3.676451
  32 H     1.0000    0     1.008   -5.693127   -2.397467    1.899056
  33 H     1.0000    0     1.008   -3.406384   -3.468214    4.159854
  34 H     1.0000    0     1.008   -3.770890   -0.201314    3.692018
  35 H     1.0000    0     1.008   -3.593473   -5.611901   -0.912912
  36 H     1.0000    0     1.008   -0.344389   -5.402765   -1.773247
  37 H     1.0000    0     1.008   -1.201378   -6.252104    1.398702
  38 H     1.0000    0     1.008   -7.063222    4.078770   -1.155258
  39 H     1.0000    0     1.008   -6.413133    2.076380    1.435549
  40 H     1.0000    0     1.008   -7.244299    0.719300   -1.585760
  41 H     1.0000    0     1.008   -4.294027    2.514347   -5.064634
* core charge reduced due to ECP

--------------------------------
INTERNAL COORDINATES (ANGSTROEM)
--------------------------------
 C      0   0   0     0.000000000000     0.00000000     0.00000000
 C      1   0   0     1.536086101065     0.00000000     0.00000000
 C      2   1   0     1.527837293154   111.67521401     0.00000000
 C      3   2   1     1.517542358621   104.70850472   158.09411520
 C      4   3   2     1.535650563339   104.26301730   321.92421793
 C      5   4   3     1.544301825108   105.79392688    30.45472630
 C      6   5   4     1.562814216653   110.68211592   222.65267006
 C      7   6   5     1.549578389027   112.86221596   304.63935596
 C      8   7   6     1.557830746888   113.52705832   319.89115622
 C      9   8   7     1.585697481622   111.12795905    41.30937224
 C      6   5   4     1.529379192678   103.77545744   107.56473455
 C      5   4   3     1.570937242770   119.14977055   149.90097718
 C     12   5   4     1.546645582737   110.77778248   106.81783084
 C     12   5   4     1.557097794773   113.91402875   348.31694211
 C      9   8   7     1.547653153915   110.30899068   167.51663324
 O      9   8   7     1.412145713981   106.73264772   282.86161848
 H      1   2   3     1.110871748479   109.59122634    61.04109047
 H      1   2   3     1.110167349187   110.08768446   179.55703149
 H      1   2   3     1.109897366955   111.56004463   301.44097808
 H      2   1   3     1.113679726606   106.40256839   243.67314186
 H      3   2   1     1.113324138593   110.74948124    40.61323376
 H      3   2   1     1.112049001303   111.58101680   278.67849466
 H      4   3   2     1.111517402709   111.35491084   201.62299413
 H      4   3   2     1.107866567999   107.21234989    82.23491223
 H      5   4   3     1.114406855599   105.56181185   274.67327793
 H      7   6   5     1.111673395732   109.56150373   184.03977196
 H      7   6   5     1.111380321185   110.16599343    65.79852595
 H      8   7   6     1.112348252355   108.66026106   197.97524455
 H      8   7   6     1.106147997039   108.45270470    84.13323699
 H     10   9   8     1.113289609029   108.89844856   181.56986386
 H     11   6   5     1.111433702250   112.21017243   165.64293943
 H     11   6   5     1.110220814383   112.03967373   284.65876285
 H     13  12   5     1.110566750868   110.68222091   169.11668681
 H     13  12   5     1.111598849731   110.11820963   287.99766187
 H     13  12   5     1.103114046085   113.20024964    45.18081587
 H     14  12   5     1.111741766119   110.13225956   180.72193076
 H     14  12   5     1.107425376574   113.09527655   300.17693581
 H     14  12   5     1.111511044654   110.99755934    61.82483142
 H     15   9   8     1.111506272602   109.77376817    77.96613661
 H     15   9   8     1.105093102847   113.45392408   319.98974376
 H     15   9   8     1.110708350384   110.65167006   196.75228212
 H     16   9   8     0.993858367078   108.08615049   178.70713441

---------------------------
INTERNAL COORDINATES (A.U.)
---------------------------
 C      0   0   0     0.000000000000     0.00000000     0.00000000
 C      1   0   0     2.902782049136     0.00000000     0.00000000
 C      2   1   0     2.887194061253   111.67521401     0.00000000
 C      3   2   1     2.867739454419   104.70850472   158.09411520
 C      4   3   2     2.901959002112   104.26301730   321.92421793
 C      5   4   3     2.918307517569   105.79392688    30.45472630
 C      6   5   4     2.953290867674   110.68211592   222.65267006
 C      7   6   5     2.928278778303   112.86221596   304.63935596
 C      8   7   6     2.943873474621   113.52705832   319.89115622
 C      9   8   7     2.996533971514   111.12795905    41.30937224
 C      6   5   4     2.890107829078   103.77545744   107.56473455
 C      5   4   3     2.968641162413   119.14977055   149.90097718
 C     12   5   4     2.922736577613   110.77778248   106.81783084
 C     12   5   4     2.942488395853   113.91402875   348.31694211
 C      9   8   7     2.924640611198   110.30899068   167.51663324
 O      9   8   7     2.668568660614   106.73264772   282.86161848
 H      1   2   3     2.099243374536   109.59122634    61.04109047
 H      1   2   3     2.097912252785   110.08768446   179.55703149
 H      1   2   3     2.097402060305   111.56004463   301.44097808
 H      2   1   3     2.104549684186   106.40256839   243.67314186
 H      3   2   1     2.103877720224   110.74948124    40.61323376
 H      3   2   1     2.101468059962   111.58101680   278.67849466
 H      4   3   2     2.100463484208   111.35491084   201.62299413
 H      4   3   2     2.093564406445   107.21234989    82.23491223
 H      5   4   3     2.105923758846   105.56181185   274.67327793
 H      7   6   5     2.100758268300   109.56150373   184.03977196
 H      7   6   5     2.100204437670   110.16599343    65.79852595
 H      8   7   6     2.102033562498   108.66026106   197.97524455
 H      8   7   6     2.090316777990   108.45270470    84.13323699
 H     10   9   8     2.103812468806   108.89844856   181.56986386
 H     11   6   5     2.100305313263   112.21017243   165.64293943
 H     11   6   5     2.098013287363   112.03967373   284.65876285
 H     13  12   5     2.098667012579   110.68222091   169.11668681
 H     13  12   5     2.100617396773   110.11820963   287.99766187
 H     13  12   5     2.084583441582   113.20024964    45.18081587
 H     14  12   5     2.100887469607   110.13225956   180.72193076
 H     14  12   5     2.092730675479   113.09527655   300.17693581
 H     14  12   5     2.100451469224   110.99755934    61.82483142
 H     15   9   8     2.100442451354   109.77376817    77.96613661
 H     15   9   8     2.088323316867   113.45392408   319.98974376
 H     15   9   8     2.098934596885   110.65167006   196.75228212
 H     16   9   8     1.878120129684   108.08615049   178.70713441

---------------------
BASIS SET INFORMATION
---------------------
There are 3 groups of distinct atoms

 Group   1 Type C   : 6s6p2d contracted to 2s2p1d pattern {42/42/2}
 Group   2 Type O   : 6s6p2d contracted to 2s2p1d pattern {42/42/2}
 Group   3 Type H   : 8s2p contracted to 2s1p pattern {53/2}

Atom   0C    basis set group =>   1
Atom   1C    basis set group =>   1
Atom   2C    basis set group =>   1
Atom   3C    basis set group =>   1
Atom   4C    basis set group =>   1
Atom   5C    basis set group =>   1
Atom   6C    basis set group =>   1
Atom   7C    basis set group =>   1
Atom   8C    basis set group =>   1
Atom   9C    basis set group =>   1
Atom  10C    basis set group =>   1
Atom  11C    basis set group =>   1
Atom  12C    basis set group =>   1
Atom  13C    basis set group =>   1
Atom  14C    basis set group =>   1
Atom  15O    basis set group =>   2
Atom  16H    basis set group =>   3
Atom  17H    basis set group =>   3
Atom  18H    basis set group =>   3
Atom  19H    basis set group =>   3
Atom  20H    basis set group =>   3
Atom  21H    basis set group =>   3
Atom  22H    basis set group =>   3
Atom  23H    basis set group =>   3
Atom  24H    basis set group =>   3
Atom  25H    basis set group =>   3
Atom  26H    basis set group =>   3
Atom  27H    basis set group =>   3
Atom  28H    basis set group =>   3
Atom  29H    basis set group =>   3
Atom  30H    basis set group =>   3
Atom  31H    basis set group =>   3
Atom  32H    basis set group =>   3
Atom  33H    basis set group =>   3
Atom  34H    basis set group =>   3
Atom  35H    basis set group =>   3
Atom  36H    basis set group =>   3
Atom  37H    basis set group =>   3
Atom  38H    basis set group =>   3
Atom  39H    basis set group =>   3
Atom  40H    basis set group =>   3
Atom  41H    basis set group =>   3
---------------------------------
AUXILIARY/J BASIS SET INFORMATION
---------------------------------
There are 3 groups of distinct atoms

 Group   1 Type C   : 12s5p4d2f1g contracted to 6s4p3d1f1g pattern {711111/2111/211/2/1}
 Group   2 Type O   : 12s5p4d2f1g contracted to 6s4p3d1f1g pattern {711111/2111/211/2/1}
 Group   3 Type H   : 5s2p1d contracted to 3s1p1d pattern {311/2/1}

Atom   0C    basis set group =>   1
Atom   1C    basis set group =>   1
Atom   2C    basis set group =>   1
Atom   3C    basis set group =>   1
Atom   4C    basis set group =>   1
Atom   5C    basis set group =>   1
Atom   6C    basis set group =>   1
Atom   7C    basis set group =>   1
Atom   8C    basis set group =>   1
Atom   9C    basis set group =>   1
Atom  10C    basis set group =>   1
Atom  11C    basis set group =>   1
Atom  12C    basis set group =>   1
Atom  13C    basis set group =>   1
Atom  14C    basis set group =>   1
Atom  15O    basis set group =>   2
Atom  16H    basis set group =>   3
Atom  17H    basis set group =>   3
Atom  18H    basis set group =>   3
Atom  19H    basis set group =>   3
Atom  20H    basis set group =>   3
Atom  21H    basis set group =>   3
Atom  22H    basis set group =>   3
Atom  23H    basis set group =>   3
Atom  24H    basis set group =>   3
Atom  25H    basis set group =>   3
Atom  26H    basis set group =>   3
Atom  27H    basis set group =>   3
Atom  28H    basis set group =>   3
Atom  29H    basis set group =>   3
Atom  30H    basis set group =>   3
Atom  31H    basis set group =>   3
Atom  32H    basis set group =>   3
Atom  33H    basis set group =>   3
Atom  34H    basis set group =>   3
Atom  35H    basis set group =>   3
Atom  36H    basis set group =>   3
Atom  37H    basis set group =>   3
Atom  38H    basis set group =>   3
Atom  39H    basis set group =>   3
Atom  40H    basis set group =>   3
Atom  41H    basis set group =>   3
-------------------------
ECP PARAMETER INFORMATION
-------------------------

 Group 1, Type C  ECP vDZP-ECP (replacing 2 core electrons, lmax=3)
 Group 2, Type O  ECP vDZP-ECP (replacing 2 core electrons, lmax=3)

Atom   0C    ECP group =>   1
Atom   1C    ECP group =>   1
Atom   2C    ECP group =>   1
Atom   3C    ECP group =>   1
Atom   4C    ECP group =>   1
Atom   5C    ECP group =>   1
Atom   6C    ECP group =>   1
Atom   7C    ECP group =>   1
Atom   8C    ECP group =>   1
Atom   9C    ECP group =>   1
Atom  10C    ECP group =>   1
Atom  11C    ECP group =>   1
Atom  12C    ECP group =>   1
Atom  13C    ECP group =>   1
Atom  14C    ECP group =>   1
Atom  15O    ECP group =>   2



           ************************************************************
           *        Program running with 40 parallel MPI-processes    *
           *              working on a common directory               *
           ************************************************************
------------------------------------------------------------------------------
                             ORCA STARTUP CALCULATIONS
                           -- RI-GTO INTEGRALS CHOSEN --
------------------------------------------------------------------------------
------------------------------------------------------------------------------
                   ___                                                        
                  /   \      - P O W E R E D   B Y -                         
                 /     \                                                     
                 |  |  |   _    _      __       _____    __    __             
                 |  |  |  | |  | |    /  \     |  _  \  |  |  /  |          
                  \  \/   | |  | |   /    \    | | | |  |  | /  /          
                 / \  \   | |__| |  /  /\  \   | |_| |  |  |/  /          
                |  |  |   |  __  | /  /__\  \  |    /   |      \           
                |  |  |   | |  | | |   __   |  |    \   |  |\   \          
                \     /   | |  | | |  |  |  |  | |\  \  |  | \   \       
                 \___/    |_|  |_| |__|  |__|  |_| \__\ |__|  \__/        
                                                                              
                      - O R C A' S   B I G   F R I E N D -                    
                                      &                                       
                       - I N T E G R A L  F E E D E R -                       
                                                                              
 v1 FN, 2020, v2 2021, v3 2022-2024                                           
------------------------------------------------------------------------------


----------------------
SHARK INTEGRAL PACKAGE
----------------------

Number of atoms                             ...     42
Number of basis functions                   ...    338
Number of shells                            ...    158
Maximum angular momentum                    ...      2
Integral batch strategy                     ... SHARK/LIBINT Hybrid
RI-J (if used) integral strategy            ... SPLIT-RIJ (Revised 2003 algorithm where possible)
Printlevel                                  ...      1
Contraction scheme used                     ... SEGMENTED contraction
Prescreening option                         ... SCHWARTZ
   Thresh                                   ... 2.500e-11
   Tcut                                     ... 2.500e-12
   Tpresel                                  ... 2.500e-12 
Coulomb Range Separation                    ... NOT USED
Exchange Range Separation                   ... Long Range
   Mu parameter                             ... 3.000e-01
   Scaling (regular/separated)              ... 1.670e-01 8.330e-01
Multipole approximations                    ... NOT USED
Finite Nucleus Model                        ... NOT USED
CABS basis                                  ... NOT available
Auxiliary Coulomb fitting basis             ... AVAILABLE
   # of basis functions in Aux-J            ...   1070
   # of shells in Aux-J                     ...    370
   Maximum angular momentum in Aux-J        ...      4
Auxiliary J/K fitting basis                 ... NOT available
Auxiliary Correlation fitting basis         ... NOT available
Auxiliary 'external' fitting basis          ... NOT available

Checking pre-screening integrals            ... done (  0.0 sec) Dimension = 158
Check shell pair data                       ... done (  0.0 sec)
Shell pair information
Shell pair cut-off parameter TPreSel        ...   2.5e-12
Total number of shell pairs                 ...     12561
Shell pairs after pre-screening             ...     12523
Total number of primitive shell pairs       ...    117974
Primitive shell pairs kept                  ...     92186
          la=0 lb=0:   3565 shell pairs
          la=1 lb=0:   4857 shell pairs
          la=1 lb=1:   1694 shell pairs
          la=2 lb=0:   1344 shell pairs
          la=2 lb=1:    927 shell pairs
          la=2 lb=2:    136 shell pairs

Calculating one electron integrals          ... done (  0.0 sec)
Calculating ECP integrals                   ... done (  0.2 sec)
Calculating RI/J V-Matrix + Cholesky decomp.... done (  0.1 sec)
Calculating Nuclear repulsion               ... done (  0.0 sec) ENN=    700.898929381050 Eh

Diagonalization of the overlap matrix:
Smallest eigenvalue                        ... 9.600e-04
Time for diagonalization                   ...    0.016 sec
Threshold for overlap eigenvalues          ... 1.000e-07
Number of eigenvalues below threshold      ... 0
Time for construction of square roots      ...    0.009 sec
Total time needed                          ...    0.028 sec

-------------------
DFT GRID GENERATION
-------------------

General Integration Accuracy     IntAcc      ... 4.388
Radial Grid Type                 RadialGrid  ... OptM3 with GC (2021)
Angular Grid (max. ang.)         AngularGrid ... 4 (Lebedev-302)
Angular grid pruning method      GridPruning ... 4 (adaptive)
Weight generation scheme         WeightScheme... mBecke (2022)
Basis function cutoff            BFCut       ... 1.0000e-11
Integration weight cutoff        WCut        ... 1.0000e-14
Partially contracted basis set               ... off
Rotationally invariant grid construction     ... off
Angular grids for H and He will be reduced by one unit

Total number of grid points                  ...   176013
Total number of batches                      ...     2772
Average number of points per batch           ...       63
Average number of grid points per atom       ...     4191

--------------------
COSX GRID GENERATION
--------------------

GRIDX 1
-------
General Integration Accuracy     IntAcc      ... 3.816
Radial Grid Type                 RadialGrid  ... OptM3 with GC (2021)
Angular Grid (max. ang.)         AngularGrid ... 1 (Lebedev-50)
Angular grid pruning method      GridPruning ... 4 (adaptive)
Weight generation scheme         WeightScheme... mBecke (2022)
Basis function cutoff            BFCut       ... 1.0000e-11
Integration weight cutoff        WCut        ... 1.0000e-14
Partially contracted basis set               ... on
Rotationally invariant grid construction     ... off
Angular grids for H and He will be reduced by one unit

Total number of grid points                  ...    22414
Total number of batches                      ...      198
Average number of points per batch           ...      113
Average number of grid points per atom       ...      534
UseSFitting                                  ... on

GRIDX 2
-------
General Integration Accuracy     IntAcc      ... 4.020
Radial Grid Type                 RadialGrid  ... OptM3 with GC (2021)
Angular Grid (max. ang.)         AngularGrid ... 2 (Lebedev-110)
Angular grid pruning method      GridPruning ... 4 (adaptive)
Weight generation scheme         WeightScheme... mBecke (2022)
Basis function cutoff            BFCut       ... 1.0000e-11
Integration weight cutoff        WCut        ... 1.0000e-14
Partially contracted basis set               ... on
Rotationally invariant grid construction     ... off
Angular grids for H and He will be reduced by one unit

Total number of grid points                  ...    46147
Total number of batches                      ...      383
Average number of points per batch           ...      120
Average number of grid points per atom       ...     1099
UseSFitting                                  ... on

GRIDX 3
-------
General Integration Accuracy     IntAcc      ... 4.338
Radial Grid Type                 RadialGrid  ... OptM3 with GC (2021)
Angular Grid (max. ang.)         AngularGrid ... 3 (Lebedev-194)
Angular grid pruning method      GridPruning ... 4 (adaptive)
Weight generation scheme         WeightScheme... mBecke (2022)
Basis function cutoff            BFCut       ... 1.0000e-11
Integration weight cutoff        WCut        ... 1.0000e-14
Partially contracted basis set               ... on
Rotationally invariant grid construction     ... off
Angular grids for H and He will be reduced by one unit

Total number of grid points                  ...    99989
Total number of batches                      ...      801
Average number of points per batch           ...      124
Average number of grid points per atom       ...     2381
UseSFitting                                  ... on
Initializing property integral containers    ... done (  0.0 sec)

SHARK setup successfully completed in   5.8 seconds

Maximum memory used throughout the entire STARTUP-calculation: 59.3 MB


           ************************************************************
           *        Program running with 40 parallel MPI-processes    *
           *              working on a common directory               *
           ************************************************************
-------------------------------------------------------------------------------
                                 ORCA GUESS
                   Start orbitals & Density for SCF / CASSCF
-------------------------------------------------------------------------------

------------
SCF SETTINGS
------------
Hamiltonian:
 Density Functional     Method          .... DFT(GTOs)
 Exchange Functional    Exchange        .... WB97X-V
 Correlation Functional Correlation     .... WB97X-V
 Gradients option       PostSCFGGA      .... off
 Hybrid DFT is turned on
   Fraction HF Exchange ScalHFX         ....  0.167000
   Scaling of DF-GGA-X  ScalDFX         ....  0.000000
   Scaling of DF-GGA-C  ScalDFC         ....  1.000000
   Scaling of DF-LDA-C  ScalLDAC        ....  1.000000
   Perturbative correction              ....  0.000000
 Long-range corrected/Screened/Range-Separated Hybrid DFT is turned on
   Amount of maximum screened exact exchange              ....  0.833000
   Range separation parameter mu (erf(mu*r12)/r12)        ....  0.300000
   NL short-range parameter             ....  6.000000
   NL long-range parameter              ....  0.010000
 RI-approximation to the Coulomb term is turned on
   Number of AuxJ basis functions       .... 1070
   RIJ-COSX (HFX calculated with COS-X)).... on


General Settings:
 Integral files         IntName         .... ./output/cedrol/cedrol
 Hartree-Fock type      HFTyp           .... RHF
 Total Charge           Charge          ....    0
 Multiplicity           Mult            ....    1
 Number of Electrons    NEL             ....   92
 Basis Dimension        Dim             ....  338
 Nuclear Repulsion      ENuc            ....    700.8989293810 Eh

Convergence Acceleration:
 AO-DIIS                CNVDIIS         .... on
   Start iteration      DIISMaxIt       ....    12
   Startup error        DIISStart       ....  0.200000
   # of expansion vecs  DIISMaxEq       ....     5
   Bias factor          DIISBfac        ....   1.050
   Max. coefficient     DIISMaxC        ....  10.000
 MO-DIIS                CNVKDIIS        .... off
 Trust-Rad. Augm. Hess. CNVTRAH         .... auto
   Auto Start mean grad. ratio tolernc. ....  1.125000
   Auto Start start iteration           ....    50
   Auto Start num. interpolation iter.  ....    10
   Max. Number of Micro iterations      ....    24
   Max. Number of Macro iterations      .... Maxiter - #DIIS iter
   Number of Davidson start vectors     ....     2
   Converg. threshold    (grad. norm)   ....   1.000e-05
   Grad. Scal. Fac. for Micro threshold ....   0.100
   Minimum threshold for Micro iter.    ....   1.000e-02
   NR start threshold (gradient norm)   ....   1.000e-04
   Initial trust radius                 ....   0.400
   Minimum AH scaling param. (alpha)    ....   1.000
   Maximum AH scaling param. (alpha)    .... 1000.000
   Quad. conv. algorithm                .... NR
   White noise on init. David. guess    .... on
   Maximum white noise                  ....   0.010
   Pseudo random numbers                .... off
   Inactive MOs                         .... canonical
   Orbital update algorithm             .... Taylor
   Preconditioner                       .... Diag
   Full preconditioner red. dimension   ....   250
 SOSCF                  CNVSOSCF        .... on
   Start iteration      SOSCFMaxIt      ....   150
   Startup grad/error   SOSCFStart      ....  0.003300
   Hessian update       SOSCFHessUp     .... L-BFGS
 Level Shifting         CNVShift        .... on
   Level shift para.    LevelShift      ....    0.2500
   Turn off err/grad.   ShiftErr        ....    0.0010
 Zerner damping         CNVZerner       .... off
 Static damping         CNVDamp         .... on
   Fraction old density DampFac         ....    0.7000
   Max. Damping (<1)    DampMax         ....    0.9800
   Min. Damping (>=0)   DampMin         ....    0.0000
   Turn off err/grad.   DampErr         ....    0.1000

SCF Procedure:
 Maximum # iterations   MaxIter         ....   125
 SCF integral mode      SCFMode         .... Direct
   Integral package                     .... SHARK and LIBINT hybrid scheme
 Reset frequency        DirectResetFreq ....    20
 Integral Threshold     Thresh          ....  2.500e-11 Eh
 Primitive CutOff       TCut            ....  2.500e-12 Eh

Convergence Tolerance:
 Convergence Check Mode ConvCheckMode   .... Total+1el-Energy
 Convergence forced     ConvForced      .... 0
 Energy Change          TolE            ....  1.000e-08 Eh
 1-El. energy change                    ....  1.000e-05 Eh
 Orbital Gradient       TolG            ....  1.000e-05
 Orbital Rotation angle TolX            ....  1.000e-05
 DIIS Error             TolErr          ....  5.000e-07

------------------------------
INITIAL GUESS: MODEL POTENTIAL
------------------------------
Loading Hartree-Fock densities                     ... done
Atomic calculation to generate a density for atom 0 (C  with ECP)
  Multiplicity assumed   :    1
  Atomic configuration   : 1s2 2s2 2p2 
  Number of open shells  : 1
  Command: /home/aspe232/Project/Software/ORCA/6_0_1/build/orca ./output/cedrol/cedrol_atom6.inp "" > ./output/cedrol/cedrol_atom6.out
Returned from the atomic calculation with res=0
Atomic calculation to generate a density for atom 15 (O  with ECP)
  Multiplicity assumed   :    3
  Atomic configuration   : 1s2 2s2 2p4 
  Number of open shells  : 1
  Command: /home/aspe232/Project/Software/ORCA/6_0_1/build/orca ./output/cedrol/cedrol_atom8.inp "" > ./output/cedrol/cedrol_atom8.out
Returned from the atomic calculation with res=0
Calculating cut-offs                               ... done
Initializing the effective Hamiltonian             ... done
Setting up the integral package (SHARK)            ... done
Starting the Coulomb interaction                   ... done (   0.1 sec)
Making the grid                                    ... done (   1.1 sec)
Mapping shells                                     ... done
Starting the XC term evaluation                    ... done (   0.1 sec)
  promolecular density results
     # of electrons  =    123.973106970
     EX              =    -61.413427819
     EC              =     -5.021361143
     EX+EC           =    -66.434788962
Transforming the Hamiltonian                       ... done (   0.1 sec)
Diagonalizing the Hamiltonian                      ... done (   0.0 sec)
Back transforming the eigenvectors                 ... done (   0.0 sec)
Now organizing SCF variables                       ... done
                      ------------------
                      INITIAL GUESS DONE (   2.5 sec)
                      ------------------
             **** ENERGY FILE WAS UPDATED (./output/cedrol/cedrol.en.tmp) ****
Finished Guess after   3.6 sec
Maximum memory used throughout the entire GUESS-calculation: 39.6 MB


           ************************************************************
           *        Program running with 40 parallel MPI-processes    *
           *              working on a common directory               *
           ************************************************************

-------------------------------------------------------------------------------------------
                                      ORCA LEAN-SCF
                              memory conserving SCF solver
-------------------------------------------------------------------------------------------

----------------------------------------D-I-I-S--------------------------------------------
Iteration    Energy (Eh)           Delta-E    RMSDP     MaxDP     DIISErr   Damp  Time(sec)
-------------------------------------------------------------------------------------------
               ***  Starting incremental Fock matrix formation  ***
    1    -116.4349633760094775     0.00e+00  3.38e-03  7.94e-02  1.95e-01  0.700  10.3
    2    -116.7416877541835447    -3.07e-01  2.44e-03  5.65e-02  1.15e-01  0.700   7.2
                               ***Turning on AO-DIIS***
    3    -116.8943711696350647    -1.53e-01  1.28e-03  2.86e-02  5.78e-02  0.700   6.8
    4    -116.9840584469168334    -8.97e-02  2.83e-03  6.47e-02  3.53e-02  0.000   7.0
    5    -117.1736409452082626    -1.90e-01  2.24e-04  5.24e-03  5.53e-03  0.000   6.9
                              *** Initializing SOSCF ***
---------------------------------------S-O-S-C-F--------------------------------------
Iteration    Energy (Eh)           Delta-E    RMSDP     MaxDP     MaxGrad    Time(sec)
--------------------------------------------------------------------------------------
    6    -117.1742046631106859    -5.64e-04  1.06e-04  2.43e-03  1.68e-03     6.6
               *** Restarting incremental Fock matrix formation ***
    7    -117.1742567403816793    -5.21e-05  5.79e-05  1.55e-03  1.93e-04    10.1
    8    -117.1742684958146583    -1.18e-05  3.17e-05  9.36e-04  1.10e-04     8.8
    9    -117.1742704377840028    -1.94e-06  1.07e-05  2.21e-04  4.53e-05     8.6
   10    -117.1742708095938497    -3.72e-07  1.67e-06  3.81e-05  5.99e-06     8.3
   11    -117.1742708036147178     5.98e-09  6.23e-07  1.59e-05  3.35e-06     7.0
                 **** Energy Check signals convergence ****

               *****************************************************
               *                     SUCCESS                       *
               *           SCF CONVERGED AFTER  11 CYCLES          *
               *****************************************************

Recomputing exchange energy using gridx3       ... done (   12.199 sec)
Old exchange energy                            :    -17.613014966 Eh
New exchange energy                            :    -17.613036181 Eh
Exchange energy change after final integration :     -0.000021215 Eh
Total energy after final integration           :   -117.174292018 Eh
             **** ENERGY FILE WAS UPDATED (./output/cedrol/cedrol.en.tmp) ****

----------------
TOTAL SCF ENERGY
----------------

Total Energy       :       -117.17429201841205 Eh           -3188.47458 eV

Components:
Nuclear Repulsion  :        700.89892938104970 Eh           19072.42949 eV
Electronic Energy  :       -818.07320018466442 Eh          -22260.90350 eV
One Electron Energy:      -1568.41016364725851 Eh          -42678.61029 eV
Two Electron Energy:        750.33696346259410 Eh           20417.70679 eV

Virial components:
Potential Energy   :       -208.88753388956678 Eh           -5684.11877 eV
Kinetic Energy     :         91.71324187115472 Eh            2495.64419 eV
Virial Ratio       :          2.27761585598541

DFT components:
N(Alpha)           :       45.999896724479 electrons
N(Beta)            :       45.999896724479 electrons
N(Total)           :       91.999793448957 electrons
E(X)               :      -18.386845244023 Eh       
E(C)               :       -3.484220213424 Eh       
E(XC)              :      -21.871065457447 Eh       

---------------
SCF CONVERGENCE
---------------

  Last Energy change         ...   -5.9791e-09  Tolerance :   1.0000e-08
  Last MAX-Density change    ...    1.5856e-05  Tolerance :   1.0000e-07
  Last RMS-Density change    ...    6.2299e-07  Tolerance :   5.0000e-09
  Last DIIS Error            ...    1.6831e-03  Tolerance :   5.0000e-07
  Last Orbital Gradient      ...    3.3462e-06  Tolerance :   1.0000e-05
  Last Orbital Rotation      ...    3.9898e-06  Tolerance :   1.0000e-05


----------------
ORBITAL ENERGIES
----------------

  NO   OCC          E(Eh)            E(eV) 
   0   2.0000      -1.145754       -31.1775 
   1   2.0000      -1.012734       -27.5579 
   2   2.0000      -0.948662       -25.8144 
   3   2.0000      -0.921263       -25.0688 
   4   2.0000      -0.884035       -24.0558 
   5   2.0000      -0.869799       -23.6684 
   6   2.0000      -0.861794       -23.4506 
   7   2.0000      -0.817632       -22.2489 
   8   2.0000      -0.805272       -21.9126 
   9   2.0000      -0.784503       -21.3474 
  10   2.0000      -0.745747       -20.2928 
  11   2.0000      -0.741465       -20.1763 
  12   2.0000      -0.709075       -19.2949 
  13   2.0000      -0.677446       -18.4342 
  14   2.0000      -0.657492       -17.8913 
  15   2.0000      -0.634279       -17.2596 
  16   2.0000      -0.613193       -16.6858 
  17   2.0000      -0.593675       -16.1547 
  18   2.0000      -0.576858       -15.6971 
  19   2.0000      -0.563251       -15.3268 
  20   2.0000      -0.556050       -15.1309 
  21   2.0000      -0.548177       -14.9166 
  22   2.0000      -0.539970       -14.6933 
  23   2.0000      -0.529939       -14.4204 
  24   2.0000      -0.525380       -14.2963 
  25   2.0000      -0.511629       -13.9221 
  26   2.0000      -0.509115       -13.8537 
  27   2.0000      -0.502412       -13.6713 
  28   2.0000      -0.493908       -13.4399 
  29   2.0000      -0.490953       -13.3595 
  30   2.0000      -0.482614       -13.1326 
  31   2.0000      -0.472805       -12.8657 
  32   2.0000      -0.465512       -12.6672 
  33   2.0000      -0.461592       -12.5605 
  34   2.0000      -0.455986       -12.4080 
  35   2.0000      -0.439350       -11.9553 
  36   2.0000      -0.437035       -11.8923 
  37   2.0000      -0.421352       -11.4656 
  38   2.0000      -0.418371       -11.3844 
  39   2.0000      -0.415695       -11.3116 
  40   2.0000      -0.408372       -11.1124 
  41   2.0000      -0.401472       -10.9246 
  42   2.0000      -0.393378       -10.7044 
  43   2.0000      -0.383431       -10.4337 
  44   2.0000      -0.379722       -10.3327 
  45   2.0000      -0.366517        -9.9734 
  46   0.0000       0.078974         2.1490 
  47   0.0000       0.090250         2.4558 
  48   0.0000       0.092146         2.5074 
  49   0.0000       0.097307         2.6479 
  50   0.0000       0.111484         3.0336 
  51   0.0000       0.117294         3.1917 
  52   0.0000       0.118551         3.2259 
  53   0.0000       0.120568         3.2808 
  54   0.0000       0.126997         3.4558 
  55   0.0000       0.138075         3.7572 
  56   0.0000       0.147537         4.0147 
*Only the first 10 virtual orbitals were printed.

                    ********************************
                    * MULLIKEN POPULATION ANALYSIS *
                    ********************************

-----------------------
MULLIKEN ATOMIC CHARGES
-----------------------
   0 C :   -0.070274
   1 C :   -0.056532
   2 C :   -0.039156
   3 C :   -0.041265
   4 C :   -0.000306
   5 C :   -0.182361
   6 C :   -0.007968
   7 C :   -0.002121
   8 C :   -0.048789
   9 C :   -0.025732
  10 C :    0.033061
  11 C :   -0.175129
  12 C :   -0.024561
  13 C :   -0.040039
  14 C :   -0.045432
  15 O :   -0.301252
  16 H :    0.034990
  17 H :    0.035330
  18 H :    0.029811
  19 H :    0.034310
  20 H :    0.026445
  21 H :    0.039621
  22 H :    0.040884
  23 H :    0.028526
  24 H :    0.029062
  25 H :    0.045316
  26 H :    0.035640
  27 H :    0.052398
  28 H :    0.025074
  29 H :    0.024741
  30 H :    0.050696
  31 H :    0.018802
  32 H :    0.035863
  33 H :    0.032382
  34 H :    0.020014
  35 H :    0.036495
  36 H :    0.026695
  37 H :    0.040936
  38 H :    0.045393
  39 H :    0.034050
  40 H :    0.029553
  41 H :    0.174831
Sum of atomic charges:   -0.0000000

--------------------------------
MULLIKEN REDUCED ORBITAL CHARGES
--------------------------------
  0 C s       :     0.960361  s :     0.960361
      pz      :     1.034196  p :     3.034991
      px      :     1.014297
      py      :     0.986497
      dz2     :     0.013074  d :     0.074922
      dxz     :     0.004028
      dyz     :     0.025765
      dx2y2   :     0.018454
      dxy     :     0.013602

  1 C s       :     1.038603  s :     1.038603
      pz      :     0.990640  p :     2.897497
      px      :     0.943674
      py      :     0.963183
      dz2     :     0.021771  d :     0.120433
      dxz     :     0.017748
      dyz     :     0.029862
      dx2y2   :     0.026323
      dxy     :     0.024729

  2 C s       :     0.997138  s :     0.997138
      pz      :     0.978328  p :     2.941346
      px      :     0.981717
      py      :     0.981301
      dz2     :     0.020970  d :     0.100672
      dxz     :     0.014430
      dyz     :     0.024947
      dx2y2   :     0.014550
      dxy     :     0.025775

  3 C s       :     0.988242  s :     0.988242
      pz      :     1.032655  p :     2.953658
      px      :     0.932677
      py      :     0.988326
      dz2     :     0.017735  d :     0.099365
      dxz     :     0.012824
      dyz     :     0.024342
      dx2y2   :     0.022104
      dxy     :     0.022361

  4 C s       :     1.014765  s :     1.014765
      pz      :     0.989949  p :     2.870377
      px      :     0.918581
      py      :     0.961848
      dz2     :     0.021643  d :     0.115164
      dxz     :     0.019891
      dyz     :     0.026350
      dx2y2   :     0.023178
      dxy     :     0.024102

  5 C s       :     1.060188  s :     1.060188
      pz      :     1.004731  p :     2.983039
      px      :     0.990305
      py      :     0.988003
      dz2     :     0.026856  d :     0.139134
      dxz     :     0.026279
      dyz     :     0.028599
      dx2y2   :     0.032762
      dxy     :     0.024638

  6 C s       :     0.983674  s :     0.983674
      pz      :     1.035616  p :     2.928230
      px      :     0.942650
      py      :     0.949964
      dz2     :     0.014377  d :     0.096065
      dxz     :     0.018608
      dyz     :     0.021662
      dx2y2   :     0.021930
      dxy     :     0.019488

  7 C s       :     0.984121  s :     0.984121
      pz      :     0.980057  p :     2.926244
      px      :     0.923511
      py      :     1.022676
      dz2     :     0.021909  d :     0.091757
      dxz     :     0.019090
      dyz     :     0.008882
      dx2y2   :     0.025675
      dxy     :     0.016201

  8 C s       :     1.109823  s :     1.109823
      pz      :     0.810009  p :     2.751905
      px      :     1.002793
      py      :     0.939103
      dz2     :     0.040236  d :     0.187062
      dxz     :     0.041300
      dyz     :     0.038148
      dx2y2   :     0.036909
      dxy     :     0.030469

  9 C s       :     1.022652  s :     1.022652
      pz      :     0.987356  p :     2.889625
      px      :     0.973901
      py      :     0.928367
      dz2     :     0.018109  d :     0.113455
      dxz     :     0.025797
      dyz     :     0.022923
      dx2y2   :     0.022983
      dxy     :     0.023644

 10 C s       :     0.963964  s :     0.963964
      pz      :     0.965844  p :     2.905256
      px      :     0.919793
      py      :     1.019620
      dz2     :     0.016652  d :     0.097719
      dxz     :     0.020361
      dyz     :     0.025169
      dx2y2   :     0.020560
      dxy     :     0.014977

 11 C s       :     1.089716  s :     1.089716
      pz      :     0.996977  p :     2.947592
      px      :     0.975785
      py      :     0.974830
      dz2     :     0.025544  d :     0.137821
      dxz     :     0.030383
      dyz     :     0.029216
      dx2y2   :     0.029825
      dxy     :     0.022852

 12 C s       :     0.945175  s :     0.945175
      pz      :     0.984082  p :     3.004548
      px      :     0.989620
      py      :     1.030846
      dz2     :     0.009857  d :     0.074839
      dxz     :     0.014485
      dyz     :     0.024256
      dx2y2   :     0.020535
      dxy     :     0.005705

 13 C s       :     0.951879  s :     0.951879
      pz      :     1.026715  p :     3.013497
      px      :     1.039005
      py      :     0.947777
      dz2     :     0.008560  d :     0.074664
      dxz     :     0.016615
      dyz     :     0.019659
      dx2y2   :     0.017524
      dxy     :     0.012305

 14 C s       :     0.944865  s :     0.944865
      pz      :     1.036749  p :     3.031251
      px      :     0.945866
      py      :     1.048636
      dz2     :     0.018864  d :     0.069317
      dxz     :     0.010916
      dyz     :     0.007402
      dx2y2   :     0.012493
      dxy     :     0.019644

 15 O s       :     1.655646  s :     1.655646
      pz      :     1.255852  p :     4.614165
      px      :     1.739559
      py      :     1.618754
      dz2     :     0.004298  d :     0.031442
      dxz     :     0.006219
      dyz     :     0.012255
      dx2y2   :     0.003251
[...]
 95:   1533.39   0.000517    2.61  0.000105  ( 0.005686 -0.002679 -0.008101)
 96:   1536.76   0.001297    6.55  0.000263  ( 0.006456 -0.013315  0.006662)
 97:   1541.85   0.000609    3.08  0.000123  (-0.001330  0.009713  0.005216)
 98:   1550.50   0.003015   15.24  0.000607  (-0.008209 -0.002886  0.023048)
 99:   1553.61   0.002384   12.05  0.000479  (-0.017189  0.002955 -0.013213)
100:   3074.43   0.003506   17.72  0.000356  (-0.000966  0.013539  0.013101)
101:   3075.00   0.007436   37.58  0.000755  ( 0.022409  0.005332  0.014968)
102:   3088.17   0.006282   31.75  0.000635  ( 0.017139  0.006647  0.017230)
103:   3095.27   0.001361    6.88  0.000137  (-0.007861 -0.008102  0.003125)
104:   3096.09   0.002698   13.63  0.000272  (-0.003513  0.005297  0.015215)
105:   3096.19   0.004782   24.16  0.000482  (-0.005125  0.012547  0.017270)
106:   3101.05   0.018192   91.94  0.001831  ( 0.033448  0.026655 -0.001226)
107:   3101.73   0.002545   12.86  0.000256  (-0.003172  0.011652 -0.010497)
108:   3102.92   0.008643   43.68  0.000869  ( 0.028755  0.006272  0.001759)
109:   3114.60   0.006693   33.82  0.000671  (-0.000719 -0.023500  0.010856)
110:   3125.68   0.008538   43.15  0.000852  ( 0.010707 -0.021891 -0.016080)
111:   3134.88   0.005704   28.83  0.000568  (-0.004102  0.015809  0.017351)
112:   3154.27   0.006821   34.47  0.000675  ( 0.019491 -0.016078  0.006036)
113:   3155.33   0.001636    8.27  0.000162  (-0.005225  0.006329  0.009717)
114:   3171.27   0.004537   22.93  0.000446  ( 0.006208 -0.007964 -0.018561)
115:   3174.11   0.003584   18.11  0.000352  (-0.009248  0.005433 -0.015406)
116:   3181.41   0.001725    8.72  0.000169  (-0.011162  0.004138  0.005242)
117:   3182.22   0.009705   49.05  0.000952  ( 0.024155 -0.014882  0.012116)
118:   3183.06   0.002463   12.45  0.000241  (-0.006272 -0.010338  0.009759)
119:   3185.67   0.003432   17.34  0.000336  ( 0.000966  0.016349  0.008243)
120:   3192.71   0.004271   21.58  0.000417  ( 0.001282 -0.007497 -0.018962)
121:   3194.09   0.004877   24.65  0.000477  (-0.001703 -0.014263  0.016438)
122:   3208.66   0.004096   20.70  0.000398  (-0.011843  0.004575  0.015401)
123:   3211.81   0.004144   20.94  0.000403  ( 0.003904  0.017787  0.008429)
124:   3249.70   0.001692    8.55  0.000162  ( 0.002591  0.001615 -0.012374)
125:   3942.96   0.006581   33.26  0.000521  (-0.010941 -0.003070 -0.019792)

* The epsilon (eps) is given for a Dirac delta lineshape.
** The dipole moment derivative (T) already includes vibrational overlap.

The first frequency considered to be a vibration is 6
The total number of vibrations considered is 120


--------------------------
THERMOCHEMISTRY AT 298.15K
--------------------------

Temperature         ...   298.15 K
Pressure            ...     1.00 atm
Total Mass          ...   222.37 AMU
Quasi RRHO          ...     True
Cut-Off Frequency   ...     1.00 cm^-1

Throughout the following assumptions are being made:
  (1) The electronic state is orbitally nondegenerate
  (2) There are no thermally accessible electronically excited states
  (3) Hindered rotations indicated by low frequency modes are not
      treated as such but are treated as vibrations and this may
      cause some error
  (4) All equations used are the standard statistical mechanics
      equations for an ideal gas
  (5) All vibrations are strictly harmonic

freq.      72.71  E(vib)   ...       0.49 
freq.     129.36  E(vib)   ...       0.43 
freq.     194.54  E(vib)   ...       0.36 
freq.     198.33  E(vib)   ...       0.35 
freq.     204.28  E(vib)   ...       0.35 
freq.     219.82  E(vib)   ...       0.33 
freq.     253.61  E(vib)   ...       0.30 
freq.     259.83  E(vib)   ...       0.30 
freq.     266.10  E(vib)   ...       0.29 
freq.     274.23  E(vib)   ...       0.28 
freq.     287.44  E(vib)   ...       0.27 
freq.     299.75  E(vib)   ...       0.26 
freq.     304.00  E(vib)   ...       0.26 
freq.     327.20  E(vib)   ...       0.24 
freq.     346.84  E(vib)   ...       0.23 
freq.     356.00  E(vib)   ...       0.22 
freq.     369.84  E(vib)   ...       0.21 
freq.     386.47  E(vib)   ...       0.20 
freq.     427.21  E(vib)   ...       0.18 
freq.     453.34  E(vib)   ...       0.16 
freq.     476.48  E(vib)   ...       0.15 
freq.     496.73  E(vib)   ...       0.14 
freq.     514.38  E(vib)   ...       0.13 
freq.     550.10  E(vib)   ...       0.12 
freq.     568.28  E(vib)   ...       0.11 
freq.     582.47  E(vib)   ...       0.11 
freq.     593.65  E(vib)   ...       0.10 
freq.     616.33  E(vib)   ...       0.09 
freq.     670.72  E(vib)   ...       0.08 
freq.     755.62  E(vib)   ...       0.06 
freq.     782.64  E(vib)   ...       0.05 
freq.     830.06  E(vib)   ...       0.04 
freq.     868.13  E(vib)   ...       0.04 
freq.     903.62  E(vib)   ...       0.03 
freq.     915.45  E(vib)   ...       0.03 
freq.     945.01  E(vib)   ...       0.03 
freq.     952.17  E(vib)   ...       0.03 
freq.     959.31  E(vib)   ...       0.03 
freq.     967.85  E(vib)   ...       0.03 
freq.     980.59  E(vib)   ...       0.02 
freq.     982.35  E(vib)   ...       0.02 
freq.    1002.66  E(vib)   ...       0.02 
freq.    1015.89  E(vib)   ...       0.02 
freq.    1019.69  E(vib)   ...       0.02 
freq.    1028.91  E(vib)   ...       0.02 
freq.    1041.15  E(vib)   ...       0.02 
freq.    1055.93  E(vib)   ...       0.02 
freq.    1073.25  E(vib)   ...       0.02 
freq.    1077.64  E(vib)   ...       0.02 
freq.    1107.30  E(vib)   ...       0.02 
freq.    1122.97  E(vib)   ...       0.01 
freq.    1140.29  E(vib)   ...       0.01 
freq.    1152.20  E(vib)   ...       0.01 
freq.    1169.00  E(vib)   ...       0.01 
freq.    1193.62  E(vib)   ...       0.01 
freq.    1195.49  E(vib)   ...       0.01 
freq.    1213.96  E(vib)   ...       0.01 
freq.    1217.46  E(vib)   ...       0.01 
freq.    1239.99  E(vib)   ...       0.01 
freq.    1251.78  E(vib)   ...       0.01 
freq.    1261.44  E(vib)   ...       0.01 
freq.    1270.28  E(vib)   ...       0.01 
freq.    1282.23  E(vib)   ...       0.01 
freq.    1304.49  E(vib)   ...       0.01 
freq.    1322.00  E(vib)   ...       0.01 
freq.    1330.30  E(vib)   ...       0.01 
freq.    1346.41  E(vib)   ...       0.01 
freq.    1352.30  E(vib)   ...       0.01 
freq.    1359.60  E(vib)   ...       0.01 
freq.    1376.63  E(vib)   ...       0.01 
freq.    1382.73  E(vib)   ...       0.01 
freq.    1388.35  E(vib)   ...       0.00 
freq.    1403.64  E(vib)   ...       0.00 
freq.    1414.85  E(vib)   ...       0.00 
freq.    1424.18  E(vib)   ...       0.00 
freq.    1427.04  E(vib)   ...       0.00 
freq.    1438.48  E(vib)   ...       0.00 
freq.    1443.67  E(vib)   ...       0.00 
freq.    1451.47  E(vib)   ...       0.00 
freq.    1455.52  E(vib)   ...       0.00 
freq.    1461.52  E(vib)   ...       0.00 
freq.    1506.61  E(vib)   ...       0.00 
freq.    1513.45  E(vib)   ...       0.00 
freq.    1517.12  E(vib)   ...       0.00 
freq.    1518.59  E(vib)   ...       0.00 
freq.    1524.41  E(vib)   ...       0.00 
freq.    1525.26  E(vib)   ...       0.00 
freq.    1529.79  E(vib)   ...       0.00 
freq.    1530.90  E(vib)   ...       0.00 
freq.    1533.39  E(vib)   ...       0.00 
freq.    1536.76  E(vib)   ...       0.00 
freq.    1541.85  E(vib)   ...       0.00 
freq.    1550.50  E(vib)   ...       0.00 
freq.    1553.61  E(vib)   ...       0.00 
freq.    3074.43  E(vib)   ...       0.00 
freq.    3075.00  E(vib)   ...       0.00 
freq.    3088.17  E(vib)   ...       0.00 
freq.    3095.27  E(vib)   ...       0.00 
freq.    3096.09  E(vib)   ...       0.00 
freq.    3096.19  E(vib)   ...       0.00 
freq.    3101.05  E(vib)   ...       0.00 
freq.    3101.73  E(vib)   ...       0.00 
freq.    3102.92  E(vib)   ...       0.00 
freq.    3114.60  E(vib)   ...       0.00 
freq.    3125.68  E(vib)   ...       0.00 
freq.    3134.88  E(vib)   ...       0.00 
freq.    3154.27  E(vib)   ...       0.00 
freq.    3155.33  E(vib)   ...       0.00 
freq.    3171.27  E(vib)   ...       0.00 
freq.    3174.11  E(vib)   ...       0.00 
freq.    3181.41  E(vib)   ...       0.00 
freq.    3182.22  E(vib)   ...       0.00 
freq.    3183.06  E(vib)   ...       0.00 
freq.    3185.67  E(vib)   ...       0.00 
freq.    3192.71  E(vib)   ...       0.00 
freq.    3194.09  E(vib)   ...       0.00 
freq.    3208.66  E(vib)   ...       0.00 
freq.    3211.81  E(vib)   ...       0.00 
freq.    3249.70  E(vib)   ...       0.00 
freq.    3942.96  E(vib)   ...       0.00 

------------
INNER ENERGY
------------

The inner energy is: U= E(el) + E(ZPE) + E(vib) + E(rot) + E(trans)
    E(el)   - is the total energy from the electronic structure calculation
              = E(kin-el) + E(nuc-el) + E(el-el) + E(nuc-nuc)
    E(ZPE)  - the the zero temperature vibrational energy from the frequency calculation
    E(vib)  - the the finite temperature correction to E(ZPE) due to population
              of excited vibrational states
    E(rot)  - is the rotational thermal energy
    E(trans)- is the translational thermal energy

Summary of contributions to the inner energy U:
Electronic energy                ...   -117.25265610 Eh
Zero point energy                ...      0.39693582 Eh     249.08 kcal/mol
Thermal vibrational correction   ...      0.01215793 Eh       7.63 kcal/mol
Thermal rotational correction    ...      0.00141627 Eh       0.89 kcal/mol
Thermal translational correction ...      0.00141627 Eh       0.89 kcal/mol
-----------------------------------------------------------------------
Total thermal energy                   -116.84072982 Eh


Summary of corrections to the electronic energy:
(perhaps to be used in another calculation)
Total thermal correction                  0.01499047 Eh       9.41 kcal/mol
Non-thermal (ZPE) correction              0.39693582 Eh     249.08 kcal/mol
-----------------------------------------------------------------------
Total correction                          0.41192629 Eh     258.49 kcal/mol


--------
ENTHALPY
--------

The enthalpy is H = U + kB*T
                kB is Boltzmann's constant
Total thermal energy              ...   -116.84072982 Eh 
Thermal Enthalpy correction       ...      0.00094421 Eh       0.59 kcal/mol
-----------------------------------------------------------------------
Total Enthalpy                    ...   -116.83978561 Eh


Note: Only C1 symmetry has been detected, increase convergence thresholds 
      if your molecule has a higher symmetry. Symmetry factor of 1.0 is   
      used for the rotational entropy correction. 
 

Note: Rotational entropy computed according to Herzberg 
Infrared and Raman Spectra, Chapter V,1, Van Nostrand Reinhold, 1945 
Point Group:  C1, Symmetry Number:   1  
Rotational constants in cm-1:     0.026836     0.017183     0.012906 

Vibrational entropy computed according to the QRRHO of S. Grimme
Chem.Eur.J. 2012 18 9955 using a reference frequency of 100.0 cm-1


-------
ENTROPY
-------

The entropy contributions are T*S = T*(S(el)+S(vib)+S(rot)+S(trans))
     S(el)   - electronic entropy
     S(vib)  - vibrational entropy
     S(rot)  - rotational entropy
     S(trans)- translational entropy
The entropies will be listed as multiplied by the temperature to get
units of energy

Electronic entropy                ...      0.00000000 Eh      0.00 kcal/mol
Vibrational entropy               ...      0.01952451 Eh     12.25 kcal/mol
Rotational entropy                ...      0.01519095 Eh      9.53 kcal/mol
Translational entropy             ...      0.02000310 Eh     12.55 kcal/mol
-----------------------------------------------------------------------
Final entropy term                ...      0.05471856 Eh     34.34 kcal/mol

In case the symmetry of your molecule has not been determined correctly
or in case you have a reason to use a different symmetry number we print 
out the resulting rotational entropy values for sn=1,12:

 non-linear molecules -----------------------------------
|  sn= 1 | S(rot)=       0.01519095 Eh      9.53 kcal/mol|
|  sn= 2 | S(rot)=       0.01453650 Eh      9.12 kcal/mol|
|  sn= 3 | S(rot)=       0.01415366 Eh      8.88 kcal/mol|
|  sn= 4 | S(rot)=       0.01388204 Eh      8.71 kcal/mol|
|  sn= 5 | S(rot)=       0.01367135 Eh      8.58 kcal/mol|
|  sn= 6 | S(rot)=       0.01349921 Eh      8.47 kcal/mol|
|  sn= 7 | S(rot)=       0.01335366 Eh      8.38 kcal/mol|
|  sn= 8 | S(rot)=       0.01322758 Eh      8.30 kcal/mol|
|  sn= 9 | S(rot)=       0.01311638 Eh      8.23 kcal/mol|
|  sn=10 | S(rot)=       0.01301690 Eh      8.17 kcal/mol|
|  sn=11 | S(rot)=       0.01292691 Eh      8.11 kcal/mol|
|  sn=12 | S(rot)=       0.01284475 Eh      8.06 kcal/mol|
 linear molecules ---------------------------------------
|  Dinfh | S(rot)=       0.00943305 Eh      5.92 kcal/mol|
|  Cinfv | S(rot)=       0.01008751 Eh      6.33 kcal/mol|
 --------------------------------------------------------


-------------------
GIBBS FREE ENERGY
-------------------

The Gibbs free energy is G = H - T*S

Total enthalpy                    ...   -116.83978561 Eh 
Total entropy correction          ...     -0.05471856 Eh    -34.34 kcal/mol
-----------------------------------------------------------------------
Final Gibbs free energy         ...   -116.89450417 Eh

For completeness - the Gibbs free energy minus the electronic energy
G-E(el)                           ...      0.35815194 Eh    224.74 kcal/mol


Maximum memory used throughout the entire PROP-calculation: 280.8 MB

--------------------------------
SUGGESTED CITATIONS FOR THIS RUN
--------------------------------

Below you find a list of papers that are relevant to this ORCA run
We neither can nor want to force you to cite these papers, but we appreciate if you do
You receive ORCA, which is the product of decades of hard work by many enthusiastic individuals, for free
The only thing we kindly ask in return is that you cite our papers,
We deeply appreciate it, if you show your appreciation for ORCA by not just citing the generic ORCA reference.

Please note that relegating all ORCA citations to the supporting information does *not* help us.
SI sections are not indexed - citations you put there will not count into any citation statistics
But we need these citations in order to attract the funding resources that allow us to do what we are doing

Therefore, if you are a happy ORCA user, please consider citing a few of the papers listed below in the main body of your paper

In addition to the list printed below, the program has created the file ./output/cedrol/cedrol.bibtex that contains the list in bibtex format
You can import this file easily into all common literature databanks and citation aid programs


List of essential papers. We consider these as the minimum necessary citations

  1. Neese,F.
     Software update: the ORCA program system, version 5.0
     WIRES Comput. Molec. Sci., 2022 12(1)e1606
     doi.org/10.1002/wcms.1606
  2. Mueller,M.; Hansen,A.; Grimme,S.
     wB97X-3c: A composite range-separated hybrid DFT method with a molecule-optimized polarized valence double-zeta basis set
     J. Chem. Phys., 2023 158 014103
     doi.org/10.1063/5.0133026

List of papers to cite with high priority. The work reported in these papers was absolutely
necessary for this run to complete.
Our perspective: the developers of density functionals and basis sets usually get cited in chemistry papers
Good! But without the algorithms to do something with them, the functionals or basis sets would not do anything.
Hence, in our opinion, the algorithm design and method developments papers are equally worthy of getting cited

  1. Neese,F.
     An improvement of the resolution of the identity approximation for the formation of the Coulomb matrix
     J. Comp. Chem., 2003 24(14)1740-1747
     doi.org/10.1002/jcc.10318
  2. Neese,F.; Wennmohs,F.; Hansen,A.; Becker,U.
     Efficient, approximate and parallel Hartree-Fock and hybrid DFT calculations. A 'chain-of-spheres' algorithm for the Hartree-Fock exchange
     Chem. Phys., 2009 356(1-3)98-109
     doi.org/10.1016/j.chemphys.2008.10.036
  3. Bykov,D.; Petrenko,T.; Izsak,R.; Kossmann,S.; Becker,U.; Valeev,E.; Neese,F.
     Efficient implementation of the analytic second derivatives of Hartree-Fock and hybrid DFT energies: a detailed analysis of different approximations
     Molec. Phys., 2015 113 1961-1977
     doi.org/10.1080/00268976.2015.1025114
  4. Helmich-Paris,B.; de Souza,B.; Neese,F.; Izsák,R.
     An improved chain of spheres for exchange algorithm
     J. Chem. Phys., 2021 155 104109
     doi.org/doi: 10.1063/5.0058766.
  5. Neese,F.
     The SHARK Integral Generation and Digestion System
     J. Comp. Chem., 2022  1-16
     doi.org/10.1002/jcc.26942
  6. Caldeweyher,E.; Bannwarth,C.; Grimme,S.
     Extension of the D3 dispersion coefficient model
     J. Chem. Phys., 2017 147 034112
     doi.org/10.1063/1.4993215
  7. Caldeweyher,E.; Ehlert,S.; Hansen,A.; Neugebauer,H.; Spicher,S.; Bannwarth,C.; Grimme,S.
     A generally applicable atomic-charge dependent London dispersion correction
     J. Chem. Phys., 2019 150 154122
     doi.org/10.1063/1.5090222
  8. Caldeweyher,E.; Mewes,J.; Ehlert,S.; Grimme,S.
     Extension and evaluation of the D4 London-dispersion model for periodic systems
     Phys. Chem. Chem. Phys., 2020 22(16)8499-8512
     doi.org/10.1039/D0CP00502A
  9. Wittmann,L.; Gordiy,I.; Friede,M.; Helmich-Paris,B.; Grimme,S.; Hansen,A.; Bursch,M.
     Extension of the D3 and D4 London Dispersion Corrections to the full Actinides Series
     Phys. Chem. Chem. Phys., 2024 26(32)21379-21394
     doi.org/https://doi.org/10.1039/D4CP01514B 

List of suggested additional citations. These are papers that are important in the 'surrounding' of 
of this run, or papers that preceded the highly important papers. If you like your results we are grateful for a citation.

  1. Izsak,R.; Neese,F.
     An overlap fitted chain of spheres exchange method
     J. Chem. Phys., 2011 135 144105
     doi.org/10.1063/1.3646921
  2. Izsak,R.; Hansen,A.; Neese,F.
     The resolution of identity and chain of spheres approximations for the LPNO-CCSD singles Fock term
     Molec. Phys., 2012 110 2413-2417
     doi.org/10.1080/00268976.2012.687466
  3. Neese,F.
     The ORCA program system
     WIRES Comput. Molec. Sci., 2012 2(1)73-78
     doi.org/10.1002/wcms.81
  4. Izsak,R.; Neese,F.; Klopper,W.
     Robust fitting techniques in the chain of spheres approximation to the Fock exchange: The role of the complementary space
     J. Chem. Phys., 2013 139 
     doi.org/10.1063/1.4819264
  5. Neese,F.
     Software update: the ORCA program system, version 4.0
     WIRES Comput. Molec. Sci., 2018 8(1)1-6
     doi.org/10.1002/wcms.1327
  6. Neese,F.; Wennmohs,F.; Becker,U.; Riplinger,C.
     The ORCA quantum chemistry program package
     J. Chem. Phys., 2020 152 Art. No. L224108
     doi.org/10.1063/5.0004608

List of optional additional citations

  1. Neese,F.
     Approximate second-order SCF convergence for spin unrestricted wavefunctions
     Chem. Phys. Lett., 2000 325(1-3)93-98
     doi.org/10.1016/s0009-2614(00)00662-x

Timings for individual modules:

Sum of individual times          ...     1681.298 sec (=  28.022 min)
Startup calculation              ...       59.629 sec (=   0.994 min)   3.5 %
SCF iterations                   ...      837.812 sec (=  13.964 min)  49.8 %
Property integrals               ...      173.618 sec (=   2.894 min)  10.3 %
SCF Response                     ...      111.093 sec (=   1.852 min)   6.6 %
Property calculations            ...      301.525 sec (=   5.025 min)  17.9 %
SCF Gradient evaluation          ...      197.354 sec (=   3.289 min)  11.7 %
Geometry relaxation              ...        0.269 sec (=   0.004 min)   0.0 %
                             ****ORCA TERMINATED NORMALLY****
TOTAL RUN TIME: 0 days 0 hours 28 minutes 6 seconds 373 msec
