
                                 *****************
                                 * O   R   C   A *
                                 *****************

                                            #,                                       
                                            ###                                      
                                            ####                                     
                                            #####                                    
                                            ######                                   
                                           ########,                                 
                                     ,,################,,,,,                         
                               ,,#################################,,                 
                          ,,##########################################,,             
                       ,#########################################, ''#####,          
                    ,#############################################,,   '####,        
                  ,##################################################,,,,####,       
                ,###########''''           ''''###############################       
              ,#####''   ,,,,##########,,,,          '''####'''          '####       
            ,##' ,,,,###########################,,,                        '##       
           ' ,,###''''                  '''############,,,                           
         ,,##''                                '''############,,,,        ,,,,,,###''
      ,#''                                            '''#######################'''  
     '                                                          ''''####''''         
             ,#######,   #######,   ,#######,      ##                                
            ,#'     '#,  ##    ##  ,#'     '#,    #''#        ,####,   ,####,        
            ##       ##  ##   ,#'  ##            #'  '#       #'       #'  '#        
            ##       ##  #######   ##           ,######,      #####,   #    #        
            '#,     ,#'  ##    ##  '#,     ,#' ,#      #,     #,   #   #,  ,#        
             '#######'   ##     ##  '#######'  #'      '#     '####' # '####'        



                #########################################################
                #                        -***-                          #
                #          Department of theory and spectroscopy        #
                #                                                       #
                #                      Frank Neese                      #
                #                                                       #
                #     Directorship, Architecture, Infrastructure        #
                #                    SHARK, DRIVERS                     #
                #        Core code/Algorithms in most modules           #
                #                                                       #
                #        Max Planck Institute fuer Kohlenforschung      #
                #                Kaiser Wilhelm Platz 1                 #
                #                 D-45470 Muelheim/Ruhr                 #
                #                      Germany                          #
                #                                                       #
                #                  All rights reserved                  #
                #                        -***-                          #
                #########################################################


                         Program Version 6.0.1  -  RELEASE   -


 With contributions from (in alphabetic order):
[Max-Planck-Institut fuer Kohlenforschung]                               
  Daniel Aravena         : Magnetic Suceptibility                        
  Michael Atanasov       : Ab Initio Ligand Field Theory (pilot matlab implementation)
  Alexander A. Auer      : GIAO ZORA, VPT2 properties, NMR spectrum      
  Ute Becker             : All parallelization in ORCA, NUMFREQ, NUMCALC 
  Giovanni Bistoni       : ED, misc. LED, open-shell LED, HFLD           
  Martin Brehm           : Molecular dynamics                            
  Dmytro Bykov           : pre 5.0 version of the SCF Hessian            
  Marcos Casanova-Páez   : Triplet and SCS-CIS(D). UHF-(DLPNO)-IP/EA/STEOM-CCSD. UHF-CVS-IP/STEOM-CCSD   
  Vijay G. Chilkuri      : MRCI spin determinant printing, contributions to CSF-ICE 
  Pauline Colinet        : FMM embedding                                 
  Dipayan Datta          : RHF DLPNO-CCSD density                        
  Achintya Kumar Dutta   : EOM-CC, STEOM-CC                              
  Nicolas Foglia         : Exact transition moments, OPA infrastructure, MCD improvements    
  Dmitry Ganyushin       : Spin-Orbit,Spin-Spin,Magnetic field MRCI      
  Miquel Garcia-Rates    : C-PCM and meta-GGA Hessian, CCSD/C-PCM, Gaussian charge scheme 
  Tiago L. C. Gouveia    : GS-ROHF, GS-ROCIS                             
  Yang Guo               : DLPNO-NEVPT2, F12-NEVPT2, CIM, IAO-localization        
  Andreas Hansen         : Spin unrestricted coupled pair/coupled cluster methods 
  Ingolf Harden          : AUTO-CI MPn and infrastructure                
  Benjamin Helmich-Paris : MC-RPA, TRAH-(SCF,CASSCF), AVAS, COSX integrals, SCF dyn. polar. 
  Lee Huntington         : MR-EOM, pCC                                   
  Robert Izsak           : Overlap fitted RIJCOSX, COSX-SCS-MP3, EOM     
  Riya Kayal             : Wick's Theorem for AUTO-CI, AUTO-CI UHF-CCSDT 
  Emily Kempfer          : AUTO-CI, RHF CISDT and CCSDT                  
  Christian Kollmar      : KDIIS, OOCD, Brueckner-CCSD(T), CCSD density, CASPT2, CASPT2-K, improved NEVPT2 
  Axel Koslowski         : Symmetry handling                             
  Simone Kossmann        : meta-GGA functionals, TD-DFT gradient, OOMP2, (MP2 Hessian; deprecated post 5.0) 
  Lucas Lang             : DCDCAS                                        
  Marvin Lechner         : AUTO-CI (C++ implementation), FIC-MRCC        
  Spencer Leger          : CASSCF response                               
  Dagmar Lenk            : GEPOL surface, SMD, ORCA-2-JSON               
  Dimitrios Liakos       : Extrapolation schemes; Compound Job, initial MDCI parallelization 
  Dimitrios Manganas     : Further ROCIS development; embedding schemes. LFT, Crystal Embedding 
  Dimitrios Pantazis     : SARC Basis sets                               
  Anastasios Papadopoulos: AUTO-CI, single reference methods and gradients 
  Taras Petrenko         : pre 6.0 DFT Hessian and TD-DFT gradient, (ASA, deprecated), ECA, 1-Electron XAS/XES, NRVS 
  Peter Pinski           : DLPNO-MP2, DLPNO-MP2 Gradient                 
  Christoph Reimann      : Effective Core Potentials                     
  Marius Retegan         : Local ZFS, SOC                                
  Christoph Riplinger    : Optimizer, TS searches, QM/MM, DLPNO-CCSD(T), (RO)-DLPNO pert. Triples 
  Michael Roemelt        : Original ROCIS implementation                 
  Masaaki Saitow         : Open-shell DLPNO-CCSD energy and density      
  Barbara Sandhoefer     : DKH picture change effects                    
  Kantharuban Sivalingam : CASSCF convergence/infrastructure, NEVPT2 and variants, FIC-MRCI 
  Bernardo de Souza      : ESD, SOC TD-DFT                               
  Georgi L. Stoychev     : AutoAux, RI-MP2 NMR, DLPNO-MP2 response, X2C  
  Van Anh Tran           : RI-MP2 g-tensors                              
  Willem Van den Heuvel  : Paramagnetic NMR                              
  Zikuan Wang            : NOTCH, Electric field optimization            
  Frank Wennmohs         : Technical directorship and infrastructure     
  Hang Xu                : AUTO-CI-Response properties                   
                                                                         
[FACCTs GmbH]                                                            
  Markus Bursch, Miquel Garcia-Rates, Christoph Riplinger, Bernardo de Souza, Georgi L. Stoychev 
                                                                 
  APM, Basis sets (HGBS, AHGBS, def-TZVP (Ac-Lr), def2-XVPD (La-Lu)), CI-OPT, improved COSX, DLPNO-Multilevel,           
  DOCKER, DRACO, updates on ESD, GOAT, IRC, LR-CPCM, MBIS, meta-GGA TD-DFT gradient, ML-optimized integration grids, 
  MM, NACMEs, nearIR, NEB, NEB-TS, NL-DFT gradient (VV10), 2- and 3-layer-ONIOM, interface openCOSMO-RS, QMMM,   
  Crystal-QMMM, SF, symmetry and pop. for TD-DFT, r2SCAN hybrids, SOLVATOR                                   
                                                                         
[Other institutions]                                                     
  V. Asgeirsson          : NEB                                           
  Christoph Bannwarth    : sTDA-DFT, sTD-DFT, PBEh-3c, B97-3c, D3        
  Sebastian Ehlert       : rSCAN, r2SCAN, r2SCAN-3c, D4, dhf basis sets  
  Marvin Friede          : D4 for Fr, Ra, Ac-Lr                          
  Lars Goerigk           : TD-DFT with DH, B97 family of functionals     
  Stefan Grimme          : VdW corrections, initial TS optimization, DFT functionals, gCP, sTDA/sTD-DF 
  Waldemar Hujo          : DFT-NL                                        
  H. Jonsson             : NEB                                           
  Holger Kruse           : gCP                                           
  Marcel Mueller         : wB97X-3c, vDZP basis set                      
  Hagen Neugebauer       : wr2SCAN                                       
  Tobias Risthaus        : range-separated hybrid DFT                    
  Lukas Wittmann         : regularized MP2, r2SCAN double-hybrids, wr2SCAN        
                                                                         
We gratefully acknowledge several colleagues who have allowed us to      
interface, adapt or use parts of their codes:                            
  Ed Valeev, F. Pavosevic, A. Kumar             : LibInt (2-el integral package), F12 methods 
  Garnet Chan, S. Sharma, J. Yang, R. Olivares  : DMRG                   
  Ulf Ekstrom                                   : XCFun DFT Library      
  Mihaly Kallay                                 : mrcc  (arbitrary order and MRCC methods)
  Frank Weinhold                                : gennbo (NPA and NBO analysis)           
  Simon Mueller                                 : openCOSMO-RS                            
  Christopher J. Cramer and Donald G. Truhlar   : smd solvation model                     
  S Lehtola, MJT Oliveira, MAL Marques          : LibXC Library                           
  Liviu Ungur et al                             : ANISO software                          


 Your calculation uses the libint2 library for the computation of 2-el integrals
 For citations please refer to: http://libint.valeyev.net

 Your ORCA version has been built with support for libXC version: 6.2.2
 For citations please refer to: https://libxc.gitlab.io

 This ORCA versions uses:
   CBLAS   interface :  Fast vector & matrix operations
   LAPACKE interface :  Fast linear algebra routines
   SCALAPACK package :  Parallel linear algebra routines
   Shared memory     :  Shared parallel matrices
   BLAS/LAPACK       :  OpenBLAS 0.3.27  USE64BITINT DYNAMIC_ARCH NO_AFFINITY SkylakeX SINGLE_THREADED
        Core in use  :  SkylakeX
   Copyright (c) 2011-2014, The OpenBLAS Project


Your calculation utilizes the atom-pairwise dispersion correction
based on EEQ partial charges (D4)


================================================================================

cite the ECPs for C  [vDZP-ECP], O  [vDZP-ECP] as follows:
   B-Ne (ecp-2-mwb), Al-Ar (ecp-10-mwb), Ga-Kr (ecp-28-mwb), Y-Cd (ecp-28-mwb), In-Xe (ecp-46-mwb):
     A. Bergner, M. Dolg, W. Küchle, H. Stoll, and H. Preuß, Mol. Phys. 80, 1431 (1993)., T. Leininger, A. Berning, A. Nicklass, H. Stoll, H.-J. Werner, and H.-J.Flad, Chem. Phys. 217, 19 (1997).
   Na-Mg, K-Ca, Rb-Sr, Cs-Ba (CRENBL):
     L. Fernandez Pacios and P. A. Christiansen, J. Chem. Phys. 82, 2664 (1985)., M. M. Hurley, L. F. Pacios, P. A. Christiansen, R. B. Ross, and W. C. Ermler, J. Chem. Phys. 84, 6840 (1986)., L. A. LaJohn, P. A. Christiansen, R. B. Ross, T. Atashroo, and W. C. Ermler, J. Chem. Phys. 87, 2812 (1987)., R. B. Ross, J. M. Powers, T. Atashroo, W. C. Ermler, L. A. LaJohn, and P. A. Christiansen, J. Chem. Phys. 93, 6654 (1990). 
   Sc-Zn (ecp-10-mdf):
     M. Dolg, U. Wedig, H. Stoll, and H. Preuss, J. Chem. Phys. 86, 866 (1986). 
   Y-Cd (ecp-28-mwb), Hf-Hg (ecp-60-mwb):
     D. Andrae, U. Häußermann, M. Dolg, H. Stoll, and H. Preuß, Theor. Chim. Acta 77, 123 (1990). 
   La (ecp-46-mwb):
     M. Dolg, H. Stoll, and H. Preuss, J. Chem. Phys. 90, 1730 (1989)., M. Dolg, H. Stoll, and H. Preuss, Theor. Chim. Acta 85, 441 (1993).
   Ce-Lu (SBKJC-ecp):
     T. R. Cundari and W. J. Stevens, J. Chem. Phys. 98, 5555 (1993).
   Tl-Rn (ecp-78-mwb):
     W. Küchle, M. Dolg, H. Stoll, and H. Preuss, Mol. Phys. 74, 1245 (1991).

ECP parameters for C  [vDZP-ECP], O  [vDZP-ECP] have been obtained from:
MM, AH, SG, J. Chem. Phys. 158, 014103 (2023), 10.1063/5.0133026

----- Orbital basis set information -----
Your calculation utilizes the basis: vDZP
   Marcel Mueller, Andreas Hansen, Stefan Grimme 
   J. Chem. Phys. 158, 014103 (2023). DOI: 10.1063/5.0133026

----- AuxJ basis set information -----
Your calculation utilizes the auxiliary basis: def2/J
   F. Weigend, Phys. Chem. Chem. Phys. 8, 1057 (2006).

================================================================================
                                        WARNINGS
                       Please study these warnings very carefully!
================================================================================

WARNING: Frozen-Core approximation turned on, but there are no core electrons.
  ===> : Turning off frozen-core approximation


WARNING: Geometry Optimization
  ===> : Switching off AutoStart
         For restart on a previous wavefunction, please use MOREAD

================================================================================
                                       INPUT FILE
================================================================================
NAME = ./output/menthol/menthol.inp
|  1> ! wB97X-3c OPT FREQ TightSCF
|  2> %pal
|  3>   nprocs 40
|  4> end
|  5> * xyz 0 1
|  6> C      3.704323     0.063085    -0.218348
|  7> C      2.189716    -0.017445    -0.440564
|  8> C      1.587388    -1.207133     0.317783
|  9> C      0.092628    -1.388039    -0.010726
| 10> C     -0.642289    -0.071889    -0.405564
| 11> C     -0.005813     1.143233     0.321443
| 12> C      1.498917     1.301838    -0.023405
| 13> O     -0.172789     0.997993     1.710239
| 14> C     -2.184134    -0.190987    -0.163277
| 15> C     -2.939336     1.096330    -0.542206
| 16> C     -2.785834    -1.368518    -0.953156
| 17> H      4.125239     0.927165    -0.775469
| 18> H      4.195064    -0.861757    -0.589778
| 19> H      3.937477     0.182863     0.861610
| 20> H      2.020519    -0.178910    -1.529403
| 21> H      1.708906    -1.045033     1.412144
| 22> H      2.130544    -2.142126     0.057058
| 23> H      0.004266    -2.108248    -0.853607
| 24> H     -0.395853    -1.852515     0.874075
| 25> H     -0.487859     0.086972    -1.497537
| 26> H     -0.507433     2.077400    -0.017291
| 27> H      1.604652     2.024753    -0.862482
| 28> H      2.022447     1.753399     0.848681
| 29> H     -0.075479     1.901808     2.109647
| 30> H     -2.367121    -0.381831     0.917543
| 31> H     -2.656047     1.431914    -1.562817
| 32> H     -2.728423     1.905261     0.187083
| 33> H     -4.037612     0.930253    -0.515722
| 34> H     -3.886495    -1.413107    -0.808380
| 35> H     -2.376565    -2.336522    -0.597892
| 36> H     -2.573006    -1.260207    -2.038360
| 37> *
| 38> 
| 39>                          ****END OF INPUT****
================================================================================

                       *****************************
                       * Geometry Optimization Run *
                       *****************************

Geometry optimization settings:
Update method            Update   .... BFGS
Choice of coordinates    CoordSys .... (2022) Redundant Internals
Initial Hessian          InHess   .... Almloef's Model
Max. no of cycles        MaxIter  .... 93

Convergence Tolerances:
Energy Change            TolE     ....  5.0000e-06 Eh
Max. Gradient            TolMAXG  ....  3.0000e-04 Eh/bohr
RMS Gradient             TolRMSG  ....  1.0000e-04 Eh/bohr
Max. Displacement        TolMAXD  ....  4.0000e-03 bohr
RMS Displacement         TolRMSD  ....  2.0000e-03 bohr
Strict Convergence                .... False

------------------------------------------------------------------------------
                        ORCA OPTIMIZATION COORDINATE SETUP
------------------------------------------------------------------------------

The optimization will be done in redundant internal coordinates (2022)
Making redundant internal coordinates   ...  (2022 redundants) done
Evaluating the initial hessian          ...  (Almloef) done
Evaluating the coordinates              ...  done
Calculating the B-matrix                .... done
Calculating the G-matrix                .... done
Diagonalizing the G-matrix              .... done
Small eigenvalue found = 1.571e-02
The first mode is                       ....   68
The number of degrees of freedom        ....   87

    -----------------------------------------------------------------
                    Redundant Internal Coordinates


    -----------------------------------------------------------------
         Definition                    Initial Value    Approx d2E/dq
    -----------------------------------------------------------------
      1. B(C   1,C   0)                  1.5329         0.369564   
      2. B(C   2,C   1)                  1.5340         0.368085   
      3. B(C   3,C   2)                  1.5411         0.358663   
      4. B(C   4,C   3)                  1.5583         0.336706   
      5. B(C   5,C   4)                  1.5525         0.343976   
      6. B(C   6,C   5)                  1.5519         0.344740   
      7. B(C   6,C   1)                  1.5465         0.351574   
      8. B(O   7,C   5)                  1.4063         0.527037   
      9. B(C   8,C   4)                  1.5653         0.328136   
     10. B(C   9,C   8)                  1.5398         0.360314   
     11. B(C  10,C   8)                  1.5403         0.359700   
     12. B(H  11,C   0)                  1.1109         0.333437   
     13. B(H  12,C   0)                  1.1109         0.333475   
     14. B(H  13,C   0)                  1.1113         0.332981   
     15. B(H  14,C   1)                  1.1137         0.330106   
     16. B(H  15,C   2)                  1.1130         0.330978   
     17. B(H  16,C   2)                  1.1123         0.331778   
     18. B(H  17,C   3)                  1.1122         0.331915   
     19. B(H  18,C   3)                  1.1123         0.331769   
     20. B(H  19,C   4)                  1.1142         0.329442   
     21. B(H  20,C   5)                  1.1131         0.330781   
     22. B(H  21,C   6)                  1.1126         0.331434   
     23. B(H  22,C   6)                  1.1129         0.331057   
     24. B(H  23,O   7)                  0.9929         0.460739   
     25. B(H  24,C   8)                  1.1127         0.331302   
     26. B(H  25,C   9)                  1.1111         0.333257   
     27. B(H  26,C   9)                  1.1094         0.335358   
     28. B(H  27,C   9)                  1.1111         0.333269   
     29. B(H  28,C  10)                  1.1110         0.333319   
     30. B(H  29,C  10)                  1.1094         0.335342   
     31. B(H  30,C  10)                  1.1112         0.333158   
     32. A(C   1,C   0,H  13)          110.7214         0.319621   
     33. A(H  11,C   0,H  13)          108.9060         0.283871   
     34. A(C   1,C   0,H  12)          110.1368         0.319699   
     35. A(H  11,C   0,H  12)          108.2086         0.283937   
     36. A(C   1,C   0,H  11)          110.0302         0.319693   
     37. A(H  12,C   0,H  13)          108.7817         0.283876   
     38. A(C   2,C   1,C   6)          110.6615         0.358703   
     39. A(C   0,C   1,H  14)          107.4249         0.319169   
     40. A(C   2,C   1,H  14)          108.1335         0.318960   
     41. A(C   0,C   1,C   2)          110.9178         0.361767   
     42. A(C   6,C   1,H  14)          108.6353         0.316584   
     43. A(C   0,C   1,C   6)          110.9419         0.358948   
     44. A(C   3,C   2,H  16)          108.9653         0.317876   
     45. A(C   1,C   2,C   3)          111.4999         0.359924   
     46. A(H  15,C   2,H  16)          107.4336         0.283386   
     47. A(C   1,C   2,H  15)          109.2849         0.319098   
     48. A(C   3,C   2,H  15)          109.4270         0.317751   
     49. A(C   1,C   2,H  16)          110.1388         0.319223   
     50. A(C   2,C   3,H  17)          108.3383         0.317898   
     51. A(C   2,C   3,C   4)          114.3498         0.354515   
     52. A(C   4,C   3,H  17)          108.5084         0.314648   
     53. A(H  17,C   3,H  18)          107.3106         0.283509   
     54. A(C   2,C   3,H  18)          107.7829         0.317875   
     55. A(C   4,C   3,H  18)          110.3120         0.314625   
     56. A(C   5,C   4,C   8)          113.0105         0.350484   
     57. A(C   3,C   4,C   8)          111.1658         0.349223   
     58. A(C   5,C   4,H  19)          106.8893         0.315358   
     59. A(C   8,C   4,H  19)          107.4015         0.312956   
     60. A(C   3,C   4,H  19)          107.6605         0.314266   
     61. A(C   3,C   4,C   5)          110.4307         0.352014   
     62. A(C   4,C   5,C   6)          111.9290         0.353422   
     63. A(O   7,C   5,H  20)          109.4927         0.336485   
     64. A(C   6,C   5,O   7)          110.1896         0.377837   
     65. A(C   6,C   5,H  20)          106.4729         0.315680   
     66. A(C   4,C   5,H  20)          109.2452         0.315566   
     67. A(C   4,C   5,O   7)          109.4475         0.377692   
     68. A(H  21,C   6,H  22)          106.4175         0.283351   
     69. A(C   5,C   6,H  22)          108.8730         0.315723   
     70. A(C   1,C   6,H  22)          110.3272         0.316732   
     71. A(C   5,C   6,H  21)          109.0350         0.315781   
     72. A(C   1,C   6,H  21)          107.9634         0.316791   
     73. A(C   1,C   6,C   5)          113.9454         0.354733   
     74. A(C   5,O   7,H  23)          106.9538         0.352653   
     75. A(C   4,C   8,C  10)          111.3199         0.353143   
     76. A(C   9,C   8,C  10)          108.7435         0.358795   
     77. A(C   4,C   8,C   9)          112.4200         0.353245   
     78. A(C  10,C   8,H  24)          107.6233         0.317951   
     79. A(C   9,C   8,H  24)          107.5639         0.318040   
     80. A(C   4,C   8,H  24)          108.9894         0.313241   
     81. A(H  25,C   9,H  27)          108.6066         0.283886   
     82. A(C   8,C   9,H  27)          110.7300         0.318347   
     83. A(H  25,C   9,H  26)          109.5815         0.284161   
     84. A(C   8,C   9,H  26)          110.7679         0.318671   
     85. A(H  26,C   9,H  27)          106.3349         0.284163   
     86. A(C   8,C   9,H  25)          110.7015         0.318345   
     87. A(H  29,C  10,H  30)          109.0955         0.284146   
     88. A(H  28,C  10,H  30)          108.7186         0.283879   
     89. A(C   8,C  10,H  30)          110.5783         0.318241   
     90. A(H  28,C  10,H  29)          106.7814         0.284168   
     91. A(C   8,C  10,H  29)          111.0217         0.318580   
     92. A(C   8,C  10,H  28)          110.5392         0.318266   
     93. D(C   6,C   1,C   0,H  12)   -175.9296         0.010920   
     94. D(C   2,C   1,C   0,H  12)     60.6529         0.010920   
     95. D(C   6,C   1,C   0,H  13)     63.7154         0.010920   
     96. D(C   2,C   1,C   0,H  11)    179.8574         0.010920   
     97. D(C   6,C   1,C   0,H  11)    -56.7251         0.010920   
     98. D(C   2,C   1,C   0,H  13)    -59.7020         0.010920   
     99. D(H  15,C   2,C   1,C   6)    -58.8203         0.010838   
    100. D(C   3,C   2,C   1,C   0)   -174.1401         0.010838   
    101. D(H  15,C   2,C   1,C   0)     64.7581         0.010838   
    102. D(C   3,C   2,C   1,C   6)     62.2814         0.010838   
    103. D(H  15,C   2,C   1,H  14)   -177.6924         0.010838   
    104. D(C   3,C   2,C   1,H  14)    -56.5907         0.010838   
    105. D(C   4,C   3,C   2,H  15)     92.7011         0.010326   
    106. D(C   4,C   3,C   2,H  16)   -150.0973         0.010326   
    107. D(C   4,C   3,C   2,C   1)    -28.3178         0.010326   
    108. D(H  17,C   3,C   2,H  16)    -28.9602         0.010326   
    109. D(H  17,C   3,C   2,H  15)   -146.1618         0.010326   
    110. D(H  17,C   3,C   2,C   1)     92.8194         0.010326   
    111. D(C   8,C   4,C   3,H  18)    -35.4061         0.009196   
    112. D(C   8,C   4,C   3,H  17)     81.8842         0.009196   
    113. D(C   8,C   4,C   3,C   2)   -157.0727         0.009196   
    114. D(C   5,C   4,C   3,H  17)   -151.8490         0.009196   
    115. D(C   5,C   4,C   3,C   2)    -30.8058         0.009196   
    116. D(C   5,C   4,C   3,H  18)     90.8608         0.009196   
    117. D(O   7,C   5,C   4,H  19)    179.9111         0.009560   
    118. D(O   7,C   5,C   4,C   8)     61.9736         0.009560   
    119. D(O   7,C   5,C   4,C   3)    -63.2532         0.009560   
    120. D(C   6,C   5,C   4,H  19)    -57.6293         0.009560   
    121. D(C   6,C   5,C   4,C   8)   -175.5668         0.009560   
    122. D(C   6,C   5,C   4,C   3)     59.2065         0.009560   
    123. D(C   5,C   6,C   1,C   0)   -157.0715         0.009951   
    124. D(H  21,C   6,C   5,H  20)    -24.5661         0.009599   
    125. D(H  21,C   6,C   5,O   7)   -143.2179         0.009599   
    126. D(H  21,C   6,C   5,C   4)     94.7464         0.009599   
    127. D(C   1,C   6,C   5,H  20)   -145.2424         0.009599   
    128. D(C   1,C   6,C   5,O   7)     96.1058         0.009599   
    129. D(C   1,C   6,C   5,C   4)    -25.9299         0.009599   
    130. D(H  21,C   6,C   1,H  14)    -36.2128         0.009951   
    131. D(H  21,C   6,C   1,C   2)   -154.7805         0.009951   
    132. D(H  21,C   6,C   1,C   0)     81.6549         0.009951   
    133. D(C   5,C   6,C   1,H  14)     85.0608         0.009951   
    134. D(C   5,C   6,C   1,C   2)    -33.5069         0.009951   
    135. D(H  23,O   7,C   5,H  20)    -39.6130         0.022047   
    136. D(H  23,O   7,C   5,C   6)     77.1730         0.022047   
    137. D(H  23,O   7,C   5,C   4)   -159.3350         0.022047   
    138. D(C  10,C   8,C   4,H  19)     59.7245         0.008778   
    139. D(C  10,C   8,C   4,C   5)    177.3621         0.008778   
    140. D(C  10,C   8,C   4,C   3)    -57.8095         0.008778   
    141. D(C   9,C   8,C   4,H  19)    -62.5629         0.008778   
    142. D(C   9,C   8,C   4,C   5)     55.0747         0.008778   
    143. D(C   9,C   8,C   4,C   3)    179.9031         0.008778   
    144. D(H  26,C   9,C   8,H  24)     48.6247         0.010414   
    145. D(H  26,C   9,C   8,C  10)    164.9043         0.010414   
    146. D(H  26,C   9,C   8,C   4)    -71.3623         0.010414   
    147. D(H  25,C   9,C   8,H  24)    170.3929         0.010414   
    148. D(H  25,C   9,C   8,C  10)    -73.3275         0.010414   
    149. D(H  25,C   9,C   8,C   4)     50.4059         0.010414   
    150. D(H  29,C  10,C   8,C   9)   -171.3686         0.010381   
    151. D(H  29,C  10,C   8,C   4)     64.2447         0.010381   
    152. D(H  28,C  10,C   8,H  24)     63.1858         0.010381   
    153. D(H  28,C  10,C   8,C   9)    -53.0557         0.010381   
    154. D(H  29,C  10,C   8,H  24)    -55.1272         0.010381   
    155. D(H  28,C  10,C   8,C   4)   -177.4423         0.010381   
    -----------------------------------------------------------------

Number of atoms                         .... 31
Number of degrees of freedom            .... 155


         *************************************************************
         *                GEOMETRY OPTIMIZATION CYCLE   1            *
         *************************************************************
---------------------------------
CARTESIAN COORDINATES (ANGSTROEM)
---------------------------------
  C      3.704323    0.063085   -0.218348
  C      2.189716   -0.017445   -0.440564
  C      1.587388   -1.207133    0.317783
  C      0.092628   -1.388039   -0.010726
  C     -0.642289   -0.071889   -0.405564
  C     -0.005813    1.143233    0.321443
  C      1.498917    1.301838   -0.023405
  O     -0.172789    0.997993    1.710239
  C     -2.184134   -0.190987   -0.163277
  C     -2.939336    1.096330   -0.542206
  C     -2.785834   -1.368518   -0.953156
  H      4.125239    0.927165   -0.775469
  H      4.195064   -0.861757   -0.589778
  H      3.937477    0.182863    0.861610
  H      2.020519   -0.178910   -1.529403
  H      1.708906   -1.045033    1.412144
  H      2.130544   -2.142126    0.057058
  H      0.004266   -2.108248   -0.853607
  H     -0.395853   -1.852515    0.874075
  H     -0.487859    0.086972   -1.497537
  H     -0.507433    2.077400   -0.017291
  H      1.604652    2.024753   -0.862482
  H      2.022447    1.753399    0.848681
  H     -0.075479    1.901808    2.109647
  H     -2.367121   -0.381831    0.917543
  H     -2.656047    1.431914   -1.562817
  H     -2.728423    1.905261    0.187083
  H     -4.037612    0.930253   -0.515722
  H     -3.886495   -1.413107   -0.808380
  H     -2.376565   -2.336522   -0.597892
  H     -2.573006   -1.260207   -2.038360

----------------------------
CARTESIAN COORDINATES (A.U.)
----------------------------
  NO LB      ZA    FRAG     MASS         X           Y           Z
   0 C     4.0000*   0    12.011    7.000156    0.119213   -0.412618
   1 C     4.0000*   0    12.011    4.137964   -0.032966   -0.832545
   2 C     4.0000*   0    12.011    2.999729   -2.281151    0.600523
   3 C     4.0000*   0    12.011    0.175042   -2.623014   -0.020269
   4 C     4.0000*   0    12.011   -1.213750   -0.135851   -0.766405
   5 C     4.0000*   0    12.011   -0.010985    2.160397    0.607439
   6 C     4.0000*   0    12.011    2.832543    2.460117   -0.044229
   7 O     6.0000*   0    15.999   -0.326524    1.885933    3.231883
   8 C     4.0000*   0    12.011   -4.127415   -0.360913   -0.308549
   9 C     4.0000*   0    12.011   -5.554540    2.071763   -1.024621
  10 C     4.0000*   0    12.011   -5.264463   -2.586124   -1.801204
  11 H     1.0000    0     1.008    7.795572    1.752088   -1.465424
  12 H     1.0000    0     1.008    7.927522   -1.628485   -1.114519
  13 H     1.0000    0     1.008    7.440753    0.345561    1.628207
  14 H     1.0000    0     1.008    3.818228   -0.338091   -2.890153
  15 H     1.0000    0     1.008    3.229364   -1.974826    2.668565
  16 H     1.0000    0     1.008    4.026145   -4.048031    0.107824
  17 H     1.0000    0     1.008    0.008062   -3.984011   -1.613083
  18 H     1.0000    0     1.008   -0.748054   -3.500746    1.651762
  19 H     1.0000    0     1.008   -0.921920    0.164353   -2.829935
  20 H     1.0000    0     1.008   -0.958909    3.925717   -0.032675
  21 H     1.0000    0     1.008    3.032353    3.826229   -1.629855
  22 H     1.0000    0     1.008    3.821871    3.313444    1.603775
  23 H     1.0000    0     1.008   -0.142635    3.593896    3.986655
  24 H     1.0000    0     1.008   -4.473210   -0.721556    1.733905
  25 H     1.0000    0     1.008   -5.019201    2.705925   -2.953296
  26 H     1.0000    0     1.008   -5.155972    3.600422    0.353536
  27 H     1.0000    0     1.008   -7.629981    1.757923   -0.974573
  28 H     1.0000    0     1.008   -7.344411   -2.670385   -1.527617
  29 H     1.0000    0     1.008   -4.491057   -4.415387   -1.129852
  30 H     1.0000    0     1.008   -4.862277   -2.381446   -3.851942
* core charge reduced due to ECP

--------------------------------
INTERNAL COORDINATES (ANGSTROEM)
--------------------------------
 C      0   0   0     0.000000000000     0.00000000     0.00000000
 C      1   0   0     1.532938157919     0.00000000     0.00000000
 C      2   1   0     1.534029572511   110.91783219     0.00000000
 C      3   2   1     1.541088122567   111.49993193   185.85987133
 C      4   3   2     1.558284590706   114.34975305   331.68223693
 C      5   4   3     1.552469758646   110.43067646   329.19420232
 C      2   1   3     1.546522720095   110.94192879   123.41746166
 O      6   5   4     1.406317877221   109.44752227   296.74682418
 C      5   4   3     1.565302950869   111.16581551   202.92734363
 C      9   5   4     1.539838402669   112.42002699   179.90311699
 C      9   5   4     1.540302236771   111.31987569   302.19051205
 H      1   2   3     1.110940292769   110.03022909   179.85741616
 H      1   2   3     1.110909401772   110.13681303    60.65292158
 H      1   2   3     1.111313114637   110.72141906   300.29796643
 H      2   1   3     1.113673623175   107.42486390   242.01889487
 H      3   2   1     1.112955090129   109.28485499    64.75814047
 H      3   2   1     1.112298465346   110.13882809   306.95766891
 H      4   3   2     1.112185787936   108.33832870    92.81937705
 H      4   3   2     1.112305916346   107.78287497   208.63724154
 H      5   4   3     1.114221914589   107.66048656    85.55088487
 H      6   5   4     1.113117842389   109.24520254   176.87287237
 H      7   2   1     1.112580873186   107.96341215    81.65490627
 H      7   2   1     1.112890376011   110.32721851   325.74516543
 H      8   6   5     0.992913662304   106.95382989   200.66496607
 H      9   5   4     1.112689330813   108.98937650    60.74586908
 H     10   9   5     1.111087796665   110.70154294    50.40592388
 H     10   9   5     1.109376447312   110.76788384   288.63770086
 H     10   9   5     1.111077470009   110.73000267   170.91836839
 H     11   9   5     1.111036860783   110.53917436   182.55770901
 H     11   9   5     1.109389637626   111.02171264    64.24474853
 H     11   9   5     1.111168192454   110.57827336   303.00384444

---------------------------
INTERNAL COORDINATES (A.U.)
---------------------------
 C      0   0   0     0.000000000000     0.00000000     0.00000000
 C      1   0   0     2.896833298705     0.00000000     0.00000000
 C      2   1   0     2.898895773381   110.91783219     0.00000000
 C      3   2   1     2.912234499890   111.49993193   185.85987133
 C      4   3   2     2.944731115145   114.34975305   331.68223693
 C      5   4   3     2.933742675035   110.43067646   329.19420232
 C      2   1   3     2.922504400867   110.94192879   123.41746166
 O      6   5   4     2.657555645186   109.44752227   296.74682418
 C      5   4   3     2.957993893760   111.16581551   202.92734363
 C      9   5   4     2.909872871539   112.42002699   179.90311699
 C      9   5   4     2.910749390964   111.31987569   302.19051205
 H      1   2   3     2.099372904471   110.03022909   179.85741616
 H      1   2   3     2.099314528947   110.13681303    60.65292158
 H      1   2   3     2.100077435699   110.72141906   300.29796643
 H      2   1   3     2.104538150372   107.42486390   242.01889487
 H      3   2   1     2.103180319698   109.28485499    64.75814047
 H      3   2   1     2.101939478684   110.13882809   306.95766891
 H      4   3   2     2.101726549238   108.33832870    92.81937705
 H      4   3   2     2.101953559034   107.78287497   208.63724154
 H      5   4   3     2.105574270986   107.66048656    85.55088487
 H      6   5   4     2.103487876897   109.24520254   176.87287237
 H      7   2   1     2.102473152160   107.96341215    81.65490627
 H      7   2   1     2.103058027737   110.32721851   325.74516543
 H      8   6   5     1.876334896382   106.95382989   200.66496607
 H      9   5   4     2.102678107373   108.98937650    60.74586908
 H     10   9   5     2.099651646439   110.70154294    50.40592388
 H     10   9   5     2.096417664843   110.76788384   288.63770086
 H     10   9   5     2.099632131887   110.73000267   170.91836839
 H     11   9   5     2.099555391571   110.53917436   182.55770901
 H     11   9   5     2.096442590924   111.02171264    64.24474853
 H     11   9   5     2.099803572462   110.57827336   303.00384444

---------------------
BASIS SET INFORMATION
---------------------
There are 3 groups of distinct atoms

 Group   1 Type C   : 6s6p2d contracted to 2s2p1d pattern {42/42/2}
 Group   2 Type O   : 6s6p2d contracted to 2s2p1d pattern {42/42/2}
 Group   3 Type H   : 8s2p contracted to 2s1p pattern {53/2}

Atom   0C    basis set group =>   1
Atom   1C    basis set group =>   1
Atom   2C    basis set group =>   1
Atom   3C    basis set group =>   1
Atom   4C    basis set group =>   1
Atom   5C    basis set group =>   1
Atom   6C    basis set group =>   1
Atom   7O    basis set group =>   2
Atom   8C    basis set group =>   1
Atom   9C    basis set group =>   1
Atom  10C    basis set group =>   1
Atom  11H    basis set group =>   3
Atom  12H    basis set group =>   3
Atom  13H    basis set group =>   3
Atom  14H    basis set group =>   3
Atom  15H    basis set group =>   3
Atom  16H    basis set group =>   3
Atom  17H    basis set group =>   3
Atom  18H    basis set group =>   3
Atom  19H    basis set group =>   3
Atom  20H    basis set group =>   3
Atom  21H    basis set group =>   3
Atom  22H    basis set group =>   3
Atom  23H    basis set group =>   3
Atom  24H    basis set group =>   3
Atom  25H    basis set group =>   3
Atom  26H    basis set group =>   3
Atom  27H    basis set group =>   3
Atom  28H    basis set group =>   3
Atom  29H    basis set group =>   3
Atom  30H    basis set group =>   3
---------------------------------
AUXILIARY/J BASIS SET INFORMATION
---------------------------------
There are 3 groups of distinct atoms

 Group   1 Type C   : 12s5p4d2f1g contracted to 6s4p3d1f1g pattern {711111/2111/211/2/1}
 Group   2 Type O   : 12s5p4d2f1g contracted to 6s4p3d1f1g pattern {711111/2111/211/2/1}
 Group   3 Type H   : 5s2p1d contracted to 3s1p1d pattern {311/2/1}

Atom   0C    basis set group =>   1
Atom   1C    basis set group =>   1
Atom   2C    basis set group =>   1
Atom   3C    basis set group =>   1
Atom   4C    basis set group =>   1
Atom   5C    basis set group =>   1
Atom   6C    basis set group =>   1
Atom   7O    basis set group =>   2
Atom   8C    basis set group =>   1
Atom   9C    basis set group =>   1
Atom  10C    basis set group =>   1
Atom  11H    basis set group =>   3
Atom  12H    basis set group =>   3
Atom  13H    basis set group =>   3
Atom  14H    basis set group =>   3
Atom  15H    basis set group =>   3
Atom  16H    basis set group =>   3
Atom  17H    basis set group =>   3
Atom  18H    basis set group =>   3
Atom  19H    basis set group =>   3
Atom  20H    basis set group =>   3
Atom  21H    basis set group =>   3
Atom  22H    basis set group =>   3
Atom  23H    basis set group =>   3
Atom  24H    basis set group =>   3
Atom  25H    basis set group =>   3
Atom  26H    basis set group =>   3
Atom  27H    basis set group =>   3
Atom  28H    basis set group =>   3
Atom  29H    basis set group =>   3
Atom  30H    basis set group =>   3
-------------------------
ECP PARAMETER INFORMATION
-------------------------

 Group 1, Type C  ECP vDZP-ECP (replacing 2 core electrons, lmax=3)
 Group 2, Type O  ECP vDZP-ECP (replacing 2 core electrons, lmax=3)

Atom   0C    ECP group =>   1
Atom   1C    ECP group =>   1
Atom   2C    ECP group =>   1
Atom   3C    ECP group =>   1
Atom   4C    ECP group =>   1
Atom   5C    ECP group =>   1
Atom   6C    ECP group =>   1
Atom   7O    ECP group =>   2
Atom   8C    ECP group =>   1
Atom   9C    ECP group =>   1
Atom  10C    ECP group =>   1



           ************************************************************
           *        Program running with 40 parallel MPI-processes    *
           *              working on a common directory               *
           ************************************************************
------------------------------------------------------------------------------
                             ORCA STARTUP CALCULATIONS
                           -- RI-GTO INTEGRALS CHOSEN --
------------------------------------------------------------------------------
------------------------------------------------------------------------------
                   ___                                                        
                  /   \      - P O W E R E D   B Y -                         
                 /     \                                                     
                 |  |  |   _    _      __       _____    __    __             
                 |  |  |  | |  | |    /  \     |  _  \  |  |  /  |          
                  \  \/   | |  | |   /    \    | | | |  |  | /  /          
                 / \  \   | |__| |  /  /\  \   | |_| |  |  |/  /          
                |  |  |   |  __  | /  /__\  \  |    /   |      \           
                |  |  |   | |  | | |   __   |  |    \   |  |\   \          
                \     /   | |  | | |  |  |  |  | |\  \  |  | \   \       
                 \___/    |_|  |_| |__|  |__|  |_| \__\ |__|  \__/        
                                                                              
                      - O R C A' S   B I G   F R I E N D -                    
                                      &                                       
                       - I N T E G R A L  F E E D E R -                       
                                                                              
 v1 FN, 2020, v2 2021, v3 2022-2024                                           
------------------------------------------------------------------------------


----------------------
SHARK INTEGRAL PACKAGE
----------------------

Number of atoms                             ...     31
Number of basis functions                   ...    243
Number of shells                            ...    115
Maximum angular momentum                    ...      2
Integral batch strategy                     ... SHARK/LIBINT Hybrid
RI-J (if used) integral strategy            ... SPLIT-RIJ (Revised 2003 algorithm where possible)
Printlevel                                  ...      1
Contraction scheme used                     ... SEGMENTED contraction
Prescreening option                         ... SCHWARTZ
   Thresh                                   ... 2.500e-11
   Tcut                                     ... 2.500e-12
   Tpresel                                  ... 2.500e-12 
Coulomb Range Separation                    ... NOT USED
Exchange Range Separation                   ... Long Range
   Mu parameter                             ... 3.000e-01
   Scaling (regular/separated)              ... 1.670e-01 8.330e-01
Multipole approximations                    ... NOT USED
Finite Nucleus Model                        ... NOT USED
CABS basis                                  ... NOT available
Auxiliary Coulomb fitting basis             ... AVAILABLE
   # of basis functions in Aux-J            ...    759
   # of shells in Aux-J                     ...    265
   Maximum angular momentum in Aux-J        ...      4
Auxiliary J/K fitting basis                 ... NOT available
Auxiliary Correlation fitting basis         ... NOT available
Auxiliary 'external' fitting basis          ... NOT available

Checking pre-screening integrals            ... done (  0.0 sec) Dimension = 115
Check shell pair data                       ... done (  0.0 sec)
Shell pair information
Shell pair cut-off parameter TPreSel        ...   2.5e-12
Total number of shell pairs                 ...      6670
Shell pairs after pre-screening             ...      6640
Total number of primitive shell pairs       ...     63280
Primitive shell pairs kept                  ...     50418
          la=0 lb=0:   1947 shell pairs
          la=1 lb=0:   2590 shell pairs
          la=1 lb=1:    893 shell pairs
          la=2 lb=0:    682 shell pairs
          la=2 lb=1:    462 shell pairs
          la=2 lb=2:     66 shell pairs

Calculating one electron integrals          ... done (  0.0 sec)
Calculating ECP integrals                   ... done (  0.1 sec)
Calculating RI/J V-Matrix + Cholesky decomp.... done (  0.0 sec)
Calculating Nuclear repulsion               ... done (  0.0 sec) ENN=    384.045749672302 Eh

Diagonalization of the overlap matrix:
Smallest eigenvalue                        ... 1.302e-03
Time for diagonalization                   ...    0.008 sec
Threshold for overlap eigenvalues          ... 1.000e-07
Number of eigenvalues below threshold      ... 0
Time for construction of square roots      ...    0.007 sec
Total time needed                          ...    0.031 sec

-------------------
DFT GRID GENERATION
-------------------

General Integration Accuracy     IntAcc      ... 4.388
Radial Grid Type                 RadialGrid  ... OptM3 with GC (2021)
Angular Grid (max. ang.)         AngularGrid ... 4 (Lebedev-302)
Angular grid pruning method      GridPruning ... 4 (adaptive)
Weight generation scheme         WeightScheme... mBecke (2022)
Basis function cutoff            BFCut       ... 1.0000e-11
Integration weight cutoff        WCut        ... 1.0000e-14
Partially contracted basis set               ... off
Rotationally invariant grid construction     ... off
Angular grids for H and He will be reduced by one unit

Total number of grid points                  ...   128940
Total number of batches                      ...     2031
Average number of points per batch           ...       63
Average number of grid points per atom       ...     4159

--------------------
COSX GRID GENERATION
--------------------

GRIDX 1
-------
General Integration Accuracy     IntAcc      ... 3.816
Radial Grid Type                 RadialGrid  ... OptM3 with GC (2021)
Angular Grid (max. ang.)         AngularGrid ... 1 (Lebedev-50)
Angular grid pruning method      GridPruning ... 4 (adaptive)
Weight generation scheme         WeightScheme... mBecke (2022)
Basis function cutoff            BFCut       ... 1.0000e-11
Integration weight cutoff        WCut        ... 1.0000e-14
Partially contracted basis set               ... on
Rotationally invariant grid construction     ... off
Angular grids for H and He will be reduced by one unit

Total number of grid points                  ...    16502
Total number of batches                      ...      148
Average number of points per batch           ...      111
Average number of grid points per atom       ...      532
UseSFitting                                  ... on

GRIDX 2
-------
General Integration Accuracy     IntAcc      ... 4.020
Radial Grid Type                 RadialGrid  ... OptM3 with GC (2021)
Angular Grid (max. ang.)         AngularGrid ... 2 (Lebedev-110)
Angular grid pruning method      GridPruning ... 4 (adaptive)
Weight generation scheme         WeightScheme... mBecke (2022)
Basis function cutoff            BFCut       ... 1.0000e-11
Integration weight cutoff        WCut        ... 1.0000e-14
Partially contracted basis set               ... on
Rotationally invariant grid construction     ... off
Angular grids for H and He will be reduced by one unit

Total number of grid points                  ...    33955
Total number of batches                      ...      283
Average number of points per batch           ...      119
Average number of grid points per atom       ...     1095
UseSFitting                                  ... on

GRIDX 3
-------
General Integration Accuracy     IntAcc      ... 4.338
Radial Grid Type                 RadialGrid  ... OptM3 with GC (2021)
Angular Grid (max. ang.)         AngularGrid ... 3 (Lebedev-194)
Angular grid pruning method      GridPruning ... 4 (adaptive)
Weight generation scheme         WeightScheme... mBecke (2022)
Basis function cutoff            BFCut       ... 1.0000e-11
Integration weight cutoff        WCut        ... 1.0000e-14
Partially contracted basis set               ... on
Rotationally invariant grid construction     ... off
Angular grids for H and He will be reduced by one unit

Total number of grid points                  ...    73782
Total number of batches                      ...      593
Average number of points per batch           ...      124
Average number of grid points per atom       ...     2380
UseSFitting                                  ... on
Initializing property integral containers    ... done (  0.0 sec)

SHARK setup successfully completed in   3.9 seconds

Maximum memory used throughout the entire STARTUP-calculation: 39.2 MB


           ************************************************************
           *        Program running with 40 parallel MPI-processes    *
           *              working on a common directory               *
           ************************************************************
-------------------------------------------------------------------------------
                                 ORCA GUESS
                   Start orbitals & Density for SCF / CASSCF
-------------------------------------------------------------------------------

------------
SCF SETTINGS
------------
Hamiltonian:
 Density Functional     Method          .... DFT(GTOs)
 Exchange Functional    Exchange        .... WB97X-V
 Correlation Functional Correlation     .... WB97X-V
 Gradients option       PostSCFGGA      .... off
 Hybrid DFT is turned on
   Fraction HF Exchange ScalHFX         ....  0.167000
   Scaling of DF-GGA-X  ScalDFX         ....  0.000000
   Scaling of DF-GGA-C  ScalDFC         ....  1.000000
   Scaling of DF-LDA-C  ScalLDAC        ....  1.000000
   Perturbative correction              ....  0.000000
 Long-range corrected/Screened/Range-Separated Hybrid DFT is turned on
   Amount of maximum screened exact exchange              ....  0.833000
   Range separation parameter mu (erf(mu*r12)/r12)        ....  0.300000
   NL short-range parameter             ....  6.000000
   NL long-range parameter              ....  0.010000
 RI-approximation to the Coulomb term is turned on
   Number of AuxJ basis functions       .... 759
   RIJ-COSX (HFX calculated with COS-X)).... on


General Settings:
 Integral files         IntName         .... ./output/menthol/menthol
 Hartree-Fock type      HFTyp           .... RHF
 Total Charge           Charge          ....    0
 Multiplicity           Mult            ....    1
 Number of Electrons    NEL             ....   66
 Basis Dimension        Dim             ....  243
 Nuclear Repulsion      ENuc            ....    384.0457496723 Eh

Convergence Acceleration:
 AO-DIIS                CNVDIIS         .... on
   Start iteration      DIISMaxIt       ....    12
   Startup error        DIISStart       ....  0.200000
   # of expansion vecs  DIISMaxEq       ....     5
   Bias factor          DIISBfac        ....   1.050
   Max. coefficient     DIISMaxC        ....  10.000
 MO-DIIS                CNVKDIIS        .... off
 Trust-Rad. Augm. Hess. CNVTRAH         .... auto
   Auto Start mean grad. ratio tolernc. ....  1.125000
   Auto Start start iteration           ....    50
   Auto Start num. interpolation iter.  ....    10
   Max. Number of Micro iterations      ....    24
   Max. Number of Macro iterations      .... Maxiter - #DIIS iter
   Number of Davidson start vectors     ....     2
   Converg. threshold    (grad. norm)   ....   1.000e-05
   Grad. Scal. Fac. for Micro threshold ....   0.100
   Minimum threshold for Micro iter.    ....   1.000e-02
   NR start threshold (gradient norm)   ....   1.000e-04
   Initial trust radius                 ....   0.400
   Minimum AH scaling param. (alpha)    ....   1.000
   Maximum AH scaling param. (alpha)    .... 1000.000
   Quad. conv. algorithm                .... NR
   White noise on init. David. guess    .... on
   Maximum white noise                  ....   0.010
   Pseudo random numbers                .... off
   Inactive MOs                         .... canonical
   Orbital update algorithm             .... Taylor
   Preconditioner                       .... Diag
   Full preconditioner red. dimension   ....   250
 SOSCF                  CNVSOSCF        .... on
   Start iteration      SOSCFMaxIt      ....   150
   Startup grad/error   SOSCFStart      ....  0.003300
   Hessian update       SOSCFHessUp     .... L-BFGS
 Level Shifting         CNVShift        .... on
   Level shift para.    LevelShift      ....    0.2500
   Turn off err/grad.   ShiftErr        ....    0.0010
 Zerner damping         CNVZerner       .... off
 Static damping         CNVDamp         .... on
   Fraction old density DampFac         ....    0.7000
   Max. Damping (<1)    DampMax         ....    0.9800
   Min. Damping (>=0)   DampMin         ....    0.0000
   Turn off err/grad.   DampErr         ....    0.1000

SCF Procedure:
 Maximum # iterations   MaxIter         ....   125
 SCF integral mode      SCFMode         .... Direct
   Integral package                     .... SHARK and LIBINT hybrid scheme
 Reset frequency        DirectResetFreq ....    20
 Integral Threshold     Thresh          ....  2.500e-11 Eh
 Primitive CutOff       TCut            ....  2.500e-12 Eh

Convergence Tolerance:
 Convergence Check Mode ConvCheckMode   .... Total+1el-Energy
 Convergence forced     ConvForced      .... 0
 Energy Change          TolE            ....  1.000e-08 Eh
 1-El. energy change                    ....  1.000e-05 Eh
 Orbital Gradient       TolG            ....  1.000e-05
 Orbital Rotation angle TolX            ....  1.000e-05
 DIIS Error             TolErr          ....  5.000e-07

------------------------------
INITIAL GUESS: MODEL POTENTIAL
------------------------------
Loading Hartree-Fock densities                     ... done
Atomic calculation to generate a density for atom 0 (C  with ECP)
  Multiplicity assumed   :    1
  Atomic configuration   : 1s2 2s2 2p2 
  Number of open shells  : 1
  Command: /home/aspe232/Project/Software/ORCA/6_0_1/build/orca ./output/menthol/menthol_atom6.inp "" > ./output/menthol/menthol_atom6.out
Returned from the atomic calculation with res=0
Atomic calculation to generate a density for atom 7 (O  with ECP)
  Multiplicity assumed   :    3
  Atomic configuration   : 1s2 2s2 2p4 
  Number of open shells  : 1
  Command: /home/aspe232/Project/Software/ORCA/6_0_1/build/orca ./output/menthol/menthol_atom8.inp "" > ./output/menthol/menthol_atom8.out
Returned from the atomic calculation with res=0
Calculating cut-offs                               ... done
Initializing the effective Hamiltonian             ... done
Setting up the integral package (SHARK)            ... done
Starting the Coulomb interaction                   ... done (   0.1 sec)
Making the grid                                    ... done (   0.7 sec)
Mapping shells                                     ... done
Starting the XC term evaluation                    ... done (   0.1 sec)
  promolecular density results
     # of electrons  =     87.995812380
     EX              =    -43.150171467
     EC              =     -3.524071657
     EX+EC           =    -46.674243124
Transforming the Hamiltonian                       ... done (   0.1 sec)
Diagonalizing the Hamiltonian                      ... done (   0.0 sec)
Back transforming the eigenvectors                 ... done (   0.0 sec)
Now organizing SCF variables                       ... done
                      ------------------
                      INITIAL GUESS DONE (   2.1 sec)
                      ------------------
             **** ENERGY FILE WAS UPDATED (./output/menthol/menthol.en.tmp) ****
Finished Guess after   2.8 sec
Maximum memory used throughout the entire GUESS-calculation: 24.8 MB


           ************************************************************
           *        Program running with 40 parallel MPI-processes    *
           *              working on a common directory               *
           ************************************************************

-------------------------------------------------------------------------------------------
                                      ORCA LEAN-SCF
                              memory conserving SCF solver
-------------------------------------------------------------------------------------------

----------------------------------------D-I-I-S--------------------------------------------
Iteration    Energy (Eh)           Delta-E    RMSDP     MaxDP     DIISErr   Damp  Time(sec)
-------------------------------------------------------------------------------------------
               ***  Starting incremental Fock matrix formation  ***
    1    -84.5504950387484655     0.00e+00  3.55e-03  8.31e-02  2.27e-01  0.700   5.2
    2    -84.7727770594153753    -2.22e-01  2.56e-03  5.48e-02  1.25e-01  0.700   4.6
                               ***Turning on AO-DIIS***
    3    -84.8841858769030750    -1.11e-01  1.26e-03  2.49e-02  5.93e-02  0.700   3.9
    4    -84.9494987370463832    -6.53e-02  2.66e-03  5.13e-02  3.96e-02  0.000   4.3
    5    -85.0872368480441423    -1.38e-01  2.28e-04  4.97e-03  5.06e-03  0.000   4.3
    6    -85.0875986893692016    -3.62e-04  1.10e-04  4.42e-03  3.60e-03  0.000   4.2
                              *** Initializing SOSCF ***
---------------------------------------S-O-S-C-F--------------------------------------
Iteration    Energy (Eh)           Delta-E    RMSDP     MaxDP     MaxGrad    Time(sec)
--------------------------------------------------------------------------------------
    7    -85.0876482250008053    -4.95e-05  5.00e-05  1.58e-03  1.57e-03     3.8
               *** Restarting incremental Fock matrix formation ***
    8    -85.0876844893004431    -3.63e-05  2.23e-05  5.25e-04  8.64e-05     5.1
    9    -85.0876855598174870    -1.07e-06  1.17e-05  3.45e-04  5.24e-05     4.9
   10    -85.0876858309923136    -2.71e-07  3.38e-06  7.83e-05  1.75e-05     4.4
   11    -85.0876858401845766    -9.19e-09  9.23e-07  2.04e-05  3.07e-06     4.3
                 **** Energy Check signals convergence ****

               *****************************************************
               *                     SUCCESS                       *
               *           SCF CONVERGED AFTER  11 CYCLES          *
               *****************************************************

Recomputing exchange energy using gridx3       ... done (    5.278 sec)
Old exchange energy                            :    -12.665647512 Eh
New exchange energy                            :    -12.665608479 Eh
Exchange energy change after final integration :      0.000039033 Eh
Total energy after final integration           :    -85.087646807 Eh
             **** ENERGY FILE WAS UPDATED (./output/menthol/menthol.en.tmp) ****

----------------
TOTAL SCF ENERGY
----------------

Total Energy       :        -85.08764680684300 Eh           -2315.35258 eV

Components:
Nuclear Repulsion  :        384.04574967230235 Eh           10450.41614 eV
Electronic Energy  :       -469.13343551248693 Eh          -12765.76978 eV
One Electron Energy:       -889.57853657537657 Eh          -24206.66262 eV
Two Electron Energy:        420.44510106288965 Eh           11440.89284 eV

Virial components:
Potential Energy   :       -151.94645692965690 Eh           -4134.67330 eV
Kinetic Energy     :         66.85881012281389 Eh            1819.32072 eV
Virial Ratio       :          2.27264674095372

DFT components:
N(Alpha)           :       33.000031553716 electrons
N(Beta)            :       33.000031553716 electrons
N(Total)           :       66.000063107432 electrons
E(X)               :      -13.307020437888 Eh       
E(C)               :       -2.471925658919 Eh       
E(XC)              :      -15.778946096807 Eh       

---------------
SCF CONVERGENCE
---------------

  Last Energy change         ...    9.1923e-09  Tolerance :   1.0000e-08
  Last MAX-Density change    ...    2.0434e-05  Tolerance :   1.0000e-07
  Last RMS-Density change    ...    9.2260e-07  Tolerance :   5.0000e-09
  Last DIIS Error            ...    1.5728e-03  Tolerance :   5.0000e-07
  Last Orbital Gradient      ...    3.0691e-06  Tolerance :   1.0000e-05
  Last Orbital Rotation      ...    6.4447e-06  Tolerance :   1.0000e-05


----------------
ORBITAL ENERGIES
----------------

  NO   OCC          E(Eh)            E(eV) 
   0   2.0000      -1.145644       -31.1746 
   1   2.0000      -0.967904       -26.3380 
   2   2.0000      -0.933202       -25.3937 
   3   2.0000      -0.874039       -23.7838 
   4   2.0000      -0.861709       -23.4483 
   5   2.0000      -0.806824       -21.9548 
   6   2.0000      -0.800163       -21.7735 
   7   2.0000      -0.733540       -19.9607 
   8   2.0000      -0.721785       -19.6408 
   9   2.0000      -0.684079       -18.6147 
  10   2.0000      -0.654600       -17.8126 
  11   2.0000      -0.630618       -17.1600 
  12   2.0000      -0.579462       -15.7680 
  13   2.0000      -0.572333       -15.5740 
  14   2.0000      -0.563768       -15.3409 
  15   2.0000      -0.545452       -14.8425 
  16   2.0000      -0.530041       -14.4231 
  17   2.0000      -0.515912       -14.0387 
  18   2.0000      -0.508292       -13.8313 
  19   2.0000      -0.501756       -13.6535 
  20   2.0000      -0.492711       -13.4073 
  21   2.0000      -0.488408       -13.2903 
  22   2.0000      -0.474804       -12.9201 
  23   2.0000      -0.462307       -12.5800 
  24   2.0000      -0.453428       -12.3384 
  25   2.0000      -0.447396       -12.1743 
  26   2.0000      -0.433824       -11.8050 
  27   2.0000      -0.430722       -11.7205 
  28   2.0000      -0.422347       -11.4926 
  29   2.0000      -0.404982       -11.0201 
  30   2.0000      -0.403568       -10.9816 
  31   2.0000      -0.381624       -10.3845 
  32   2.0000      -0.367248        -9.9933 
  33   0.0000       0.074694         2.0325 
  34   0.0000       0.088172         2.3993 
  35   0.0000       0.099481         2.7070 
  36   0.0000       0.102728         2.7954 
  37   0.0000       0.112648         3.0653 
  38   0.0000       0.125701         3.4205 
  39   0.0000       0.128955         3.5091 
  40   0.0000       0.133779         3.6403 
  41   0.0000       0.140763         3.8304 
  42   0.0000       0.149505         4.0682 
  43   0.0000       0.161964         4.4073 
*Only the first 10 virtual orbitals were printed.

                    ********************************
                    * MULLIKEN POPULATION ANALYSIS *
                    ********************************

-----------------------
MULLIKEN ATOMIC CHARGES
-----------------------
   0 C :   -0.078630
   1 C :   -0.099597
   2 C :   -0.039975
   3 C :   -0.047689
   4 C :   -0.083327
   5 C :    0.040130
   6 C :   -0.026445
   7 O :   -0.307490
   8 C :   -0.081807
   9 C :   -0.076396
  10 C :   -0.070805
  11 H :    0.033662
  12 H :    0.035107
  13 H :    0.035799
  14 H :    0.034682
  15 H :    0.046027
  16 H :    0.035196
  17 H :    0.041088
  18 H :    0.046068
  19 H :    0.041467
  20 H :    0.026040
  21 H :    0.039927
  22 H :    0.026201
  23 H :    0.177578
  24 H :    0.052349
  25 H :    0.032692
  26 H :    0.032782
  27 H :    0.034529
  28 H :    0.034987
  29 H :    0.034601
  30 H :    0.031250
Sum of atomic charges:    0.0000000

--------------------------------
MULLIKEN REDUCED ORBITAL CHARGES
--------------------------------
  0 C s       :     0.964262  s :     0.964262
      pz      :     1.036588  p :     3.039415
      px      :     0.957931
      py      :     1.044895
      dz2     :     0.017415  d :     0.074953
      dxz     :     0.013773
      dyz     :     0.009942
      dx2y2   :     0.013779
      dxy     :     0.020044

  1 C s       :     1.054506  s :     1.054506
      pz      :     1.025802  p :     2.920038
      px      :     0.958343
      py      :     0.935893
      dz2     :     0.031739  d :     0.125052
      dxz     :     0.016553
      dyz     :     0.018899
      dx2y2   :     0.029836
      dxy     :     0.028026

  2 C s       :     0.996589  s :     0.996589
      pz      :     1.023871  p :     2.945561
      px      :     0.944119
      py      :     0.977571
      dz2     :     0.027414  d :     0.097825
      dxz     :     0.014197
      dyz     :     0.011007
      dx2y2   :     0.020844
      dxy     :     0.024363

  3 C s       :     0.996898  s :     0.996898
      pz      :     1.034801  p :     2.955402
      px      :     0.954243
      py      :     0.966357
      dz2     :     0.013277  d :     0.095389
      dxz     :     0.016879
      dyz     :     0.024066
      dx2y2   :     0.020628
      dxy     :     0.020540

  4 C s       :     1.041900  s :     1.041900
      pz      :     1.023611  p :     2.926658
      px      :     0.943827
      py      :     0.959220
      dz2     :     0.027068  d :     0.114768
      dxz     :     0.014768
      dyz     :     0.017337
      dx2y2   :     0.028106
      dxy     :     0.027490

  5 C s       :     1.062178  s :     1.062178
      pz      :     0.706831  p :     2.728579
      px      :     0.984188
      py      :     1.037560
      dz2     :     0.040955  d :     0.169113
      dxz     :     0.042852
      dyz     :     0.034851
      dx2y2   :     0.025310
      dxy     :     0.025144

  6 C s       :     0.989823  s :     0.989823
      pz      :     1.041712  p :     2.944426
      px      :     0.935301
      py      :     0.967414
      dz2     :     0.012823  d :     0.092195
      dxz     :     0.013891
      dyz     :     0.024255
      dx2y2   :     0.021349
      dxy     :     0.019878

  7 O s       :     1.649999  s :     1.649999
      pz      :     1.284720  p :     4.626217
      px      :     1.881698
      py      :     1.459799
      dz2     :     0.010205  d :     0.031274
      dxz     :     0.004297
      dyz     :     0.008166
      dx2y2   :     0.006530
      dxy     :     0.002077

  8 C s       :     1.057485  s :     1.057485
      pz      :     1.031099  p :     2.902981
      px      :     0.920547
      py      :     0.951335
      dz2     :     0.030152  d :     0.121340
      dxz     :     0.015270
      dyz     :     0.019403
      dx2y2   :     0.029219
      dxy     :     0.027297

  9 C s       :     0.962869  s :     0.962869
      pz      :     1.029069  p :     3.039342
      px      :     1.024302
      py      :     0.985972
      dz2     :     0.016297  d :     0.074186
      dxz     :     0.004417
      dyz     :     0.020885
      dx2y2   :     0.022057
      dxy     :     0.010529

 10 C s       :     0.963428  s :     0.963428
      pz      :     1.014157  p :     3.033079
      px      :     1.027832
      py      :     0.991091
      dz2     :     0.024979  d :     0.074298
      dxz     :     0.005314
      dyz     :     0.010513
      dx2y2   :     0.022185
      dxy     :     0.011306

 11 H s       :     0.923073  s :     0.923073
      pz      :     0.013097  p :     0.043265
      px      :     0.012293
      py      :     0.017875

 12 H s       :     0.921646  s :     0.921646
      pz      :     0.011346  p :     0.043248
      px      :     0.012885
      py      :     0.019016

 13 H s       :     0.921290  s :     0.921290
      pz      :     0.022752  p :     0.042911
      px      :     0.010044
      py      :     0.010116

 14 H s       :     0.925837  s :     0.925837
      pz      :     0.021316  p :     0.039481
      px      :     0.009001
      py      :     0.009164

 15 H s       :     0.912699  s :     0.912699
      pz      :     0.023094  p :     0.041274
      px      :     0.009018
      py      :     0.009161

 16 H s       :     0.922507  s :     0.922507
      pz      :     0.010254  p :     0.042297
      px      :     0.012904
      py      :     0.019139

 17 H s       :     0.917102  s :     0.917102
      pz      :     0.017147  p :     0.041811
      px      :     0.009795
      py      :     0.014868

 18 H s       :     0.912456  s :     0.912456
      pz      :     0.018482  p :     0.041476
      px      :     0.011952
      py      :     0.011042

 19 H s       :     0.919684  s :     0.919684
      pz      :     0.022024  p :     0.038850
      px      :     0.008141
      py      :     0.008684

 20 H s       :     0.934183  s :     0.934183
      pz      :     0.007941  p :     0.039778
      px      :     0.013308
      py      :     0.018528

 21 H s       :     0.918151  s :     0.918151
      pz      :     0.017169  p :     0.041922
      px      :     0.009615
      py      :     0.015138

 22 H s       :     0.931840  s :     0.931840
      pz      :     0.018322  p :     0.041959
      px      :     0.012239
      py      :     0.011398

 23 H s       :     0.725162  s :     0.725162
      pz      :     0.024751  p :     0.097260
      px      :     0.034093
      py      :     0.038415

 24 H s       :     0.907982  s :     0.907982
      pz      :     0.022260  p :     0.039669
      px      :     0.008375
      py      :     0.009033

 25 H s       :     0.924381  s :     0.924381
      pz      :     0.021379  p :     0.042927
      px      :     0.010524
      py      :     0.011024

 26 H s       :     0.923088  s :     0.923088
      pz      :     0.015764  p :     0.044130
      px      :     0.011078
      py      :     0.017288

 27 H s       :     0.921840  s :     0.921840
      pz      :     0.010156  p :     0.043631
      px      :     0.023142
      py      :     0.010334

 28 H s       :     0.921538  s :     0.921538
      pz      :     0.010212  p :     0.043475
      px      :     0.023078
      py      :     0.010184

 29 H s       :     0.920788  s :     0.920788
      pz      :     0.011456  p :     0.044611
      px      :     0.012552
      py      :     0.020603

 30 H s       :     0.925887  s :     0.925887
      pz      :     0.022933  p :     0.042863
      px      :     0.010194
      py      :     0.009735



                     *******************************
                     * LOEWDIN POPULATION ANALYSIS *
                     *******************************

----------------------
LOEWDIN ATOMIC CHARGES
----------------------
   0 C :   -0.119065
   1 C :   -0.083993
   2 C :   -0.081709
   3 C :   -0.077468
   4 C :   -0.051447
   5 C :   -0.047431
   6 C :   -0.076111
   7 O :   -0.082416
   8 C :   -0.072601
   9 C :   -0.120291
  10 C :   -0.118396
  11 H :    0.045525
  12 H :    0.046380
  13 H :    0.045520
  14 H :    0.045882
  15 H :    0.048060
  16 H :    0.047142
  17 H :    0.044423
  18 H :    0.049785
  19 H :    0.048473
  20 H :    0.040125
  21 H :    0.046618
  22 H :    0.047083
  23 H :    0.059111
  24 H :    0.049940
  25 H :    0.042711
  26 H :    0.042247
  27 H :    0.047258
  28 H :    0.046515
  29 H :    0.044795
  30 H :    0.043335

-------------------------------
LOEWDIN REDUCED ORBITAL CHARGES
-------------------------------
  0 C s       :     0.780259  s :     0.780259
      pz      :     1.059316  p :     3.093957
      px      :     0.973757
      py      :     1.060884
      dz2     :     0.056484  d :     0.244849
      dxz     :     0.047253
      dyz     :     0.031479
      dx2y2   :     0.043117
      dxy     :     0.066516

  1 C s       :     0.756753  s :     0.756753
      pz      :     1.027283  p :     2.938171
      px      :     0.951471
      py      :     0.959417
      dz2     :     0.100475  d :     0.389070
      dxz     :     0.052228
      dyz     :     0.058548
      dx2y2   :     0.089655
      dxy     :     0.088164

  2 C s       :     0.764637  s :     0.764637
      pz      :     1.036096  p :     3.000310
      px      :     0.961755
      py      :     1.002459
      dz2     :     0.091051  d :     0.316762
      dxz     :     0.046001
      dyz     :     0.034115
      dx2y2   :     0.065771
      dxy     :     0.079824

  3 C s       :     0.765644  s :     0.765644
      pz      :     1.053470  p :     3.003255
      px      :     0.964502
      py      :     0.985284
      dz2     :     0.041604  d :     0.308568
      dxz     :     0.055267
      dyz     :     0.079647
      dx2y2   :     0.065251
      dxy     :     0.066798

  4 C s       :     0.763975  s :     0.763975
      pz      :     1.025141  p :     2.927497
      px      :     0.949316
      py      :     0.953041
      dz2     :     0.088095  d :     0.359975
      dxz     :     0.046377
      dyz     :     0.054676
      dx2y2   :     0.086941
      dxy     :     0.083886

  5 C s       :     0.754324  s :     0.754324
      pz      :     0.784731  p :     2.796152
      px      :     0.984628
      py      :     1.026794
      dz2     :     0.125291  d :     0.496955
      dxz     :     0.115765
      dyz     :     0.102246
      dx2y2   :     0.075700
      dxy     :     0.077953

  6 C s       :     0.773235  s :     0.773235
      pz      :     1.051315  p :     3.002889
      px      :     0.961756
      py      :     0.989819
      dz2     :     0.040557  d :     0.299986
      dxz     :     0.047177
      dyz     :     0.079175
      dx2y2   :     0.067890
      dxy     :     0.065188

  7 O s       :     1.382047  s :     1.382047
      pz      :     1.344226  p :     4.622031
      px      :     1.764523
      py      :     1.513282
      dz2     :     0.024493  d :     0.078337
      dxz     :     0.014261
      dyz     :     0.025301
      dx2y2   :     0.012826
      dxy     :     0.001456

  8 C s       :     0.761841  s :     0.761841
      pz      :     1.035601  p :     2.933344
      px      :     0.945101
      py      :     0.952642
      dz2     :     0.095942  d :     0.377416
      dxz     :     0.048406
      dyz     :     0.059065
      dx2y2   :     0.091258
      dxy     :     0.082745

  9 C s       :     0.779595  s :     0.779595
      pz      :     1.054018  p :     3.096835
      px      :     1.040009
      py      :     1.002808
      dz2     :     0.053190  d :     0.243861
      dxz     :     0.013985
      dyz     :     0.069266
      dx2y2   :     0.073827
      dxy     :     0.033593

 10 C s       :     0.779539  s :     0.779539
      pz      :     1.036433  p :     3.094788
      px      :     1.045830
      py      :     1.012525
      dz2     :     0.082844  d :     0.244069
      dxz     :     0.016651
      dyz     :     0.033867
      dx2y2   :     0.074064
      dxy     :     0.036642

 11 H s       :     0.808770  s :     0.808770
      pz      :     0.046206  p :     0.145705
      px      :     0.043349
      py      :     0.056151

 12 H s       :     0.808552  s :     0.808552
      pz      :     0.042598  p :     0.145068
      px      :     0.044216
      py      :     0.058254

 13 H s       :     0.809918  s :     0.809918
      pz      :     0.065627  p :     0.144562
      px      :     0.038788
      py      :     0.040146

 14 H s       :     0.806523  s :     0.806523
      pz      :     0.069249  p :     0.147595
      px      :     0.039575
      py      :     0.038772

 15 H s       :     0.805589  s :     0.805589
      pz      :     0.068843  p :     0.146350
      px      :     0.038257
      py      :     0.039250

 16 H s       :     0.807519  s :     0.807519
      pz      :     0.041075  p :     0.145339
      px      :     0.045545
      py      :     0.058718

 17 H s       :     0.807590  s :     0.807590
      pz      :     0.056154  p :     0.147987
      px      :     0.039859
      py      :     0.051974

 18 H s       :     0.803556  s :     0.803556
      pz      :     0.057774  p :     0.146659
      px      :     0.044876
      py      :     0.044010

 19 H s       :     0.803909  s :     0.803909
      pz      :     0.070146  p :     0.147618
      px      :     0.038203
      py      :     0.039269

 20 H s       :     0.816185  s :     0.816185
      pz      :     0.031400  p :     0.143689
      px      :     0.050079
      py      :     0.062210

 21 H s       :     0.806469  s :     0.806469
      pz      :     0.055846  p :     0.146913
      px      :     0.037994
      py      :     0.053073

 22 H s       :     0.806596  s :     0.806596
      pz      :     0.057843  p :     0.146322
      px      :     0.044248
      py      :     0.044231

 23 H s       :     0.634827  s :     0.634827
      pz      :     0.069264  p :     0.306061
      px      :     0.098152
      py      :     0.138646

 24 H s       :     0.801246  s :     0.801246
      pz      :     0.071193  p :     0.148813
      px      :     0.037531
      py      :     0.040089

 25 H s       :     0.811541  s :     0.811541
      pz      :     0.062788  p :     0.145747
      px      :     0.041009
      py      :     0.041950

 26 H s       :     0.808651  s :     0.808651
      pz      :     0.050857  p :     0.149102
      px      :     0.043482
      py      :     0.054764

 27 H s       :     0.806902  s :     0.806902
      pz      :     0.040425  p :     0.145840
      px      :     0.065886
      py      :     0.039528

 28 H s       :     0.807953  s :     0.807953
      pz      :     0.040039  p :     0.145532
      px      :     0.066277
      py      :     0.039216

 29 H s       :     0.806375  s :     0.806375
      pz      :     0.042667  p :     0.148830
      px      :     0.045811
      py      :     0.060352

 30 H s       :     0.811181  s :     0.811181
      pz      :     0.066044  p :     0.145484
      px      :     0.040426
      py      :     0.039013



                      *****************************
                      * MAYER POPULATION ANALYSIS *
                      *****************************

  NA   - Mulliken gross atomic population
  ZA   - Total nuclear charge
  QA   - Mulliken gross atomic charge
  VA   - Mayer's total valence
  BVA  - Mayer's bonded valence
  FA   - Mayer's free valence

  ATOM       NA         ZA         QA         VA         BVA        FA
  0 C      4.0786     4.0000    -0.0786     3.9849     3.9849     0.0000
  1 C      4.0996     4.0000    -0.0996     4.0097     4.0097     0.0000
  2 C      4.0400     4.0000    -0.0400     3.9456     3.9456    -0.0000
  3 C      4.0477     4.0000    -0.0477     3.9678     3.9678     0.0000
  4 C      4.0833     4.0000    -0.0833     3.9477     3.9477     0.0000
  5 C      3.9599     4.0000     0.0401     4.0246     4.0246     0.0000
  6 C      4.0264     4.0000    -0.0264     3.9164     3.9164     0.0000
  7 O      6.3075     6.0000    -0.3075     1.9803     1.9803    -0.0000
  8 C      4.0818     4.0000    -0.0818     4.0198     4.0198     0.0000
  9 C      4.0764     4.0000    -0.0764     3.9687     3.9687     0.0000
 10 C      4.0708     4.0000    -0.0708     3.9622     3.9622     0.0000
 11 H      0.9663     1.0000     0.0337     1.0267     1.0267     0.0000
 12 H      0.9649     1.0000     0.0351     1.0281     1.0281     0.0000
 13 H      0.9642     1.0000     0.0358     1.0267     1.0267    -0.0000
 14 H      0.9653     1.0000     0.0347     1.0078     1.0078    -0.0000
 15 H      0.9540     1.0000     0.0460     1.0174     1.0174    -0.0000
 16 H      0.9648     1.0000     0.0352     1.0174     1.0174    -0.0000
 17 H      0.9589     1.0000     0.0411     0.9965     0.9965     0.0000
[...]
 43:   1192.38   0.003731   18.86  0.000977  (-0.005592 -0.000429  0.030742)
 44:   1219.48   0.006132   30.99  0.001569  ( 0.003621  0.002309 -0.039380)
 45:   1224.99   0.003525   17.81  0.000898  ( 0.019455 -0.002776 -0.022621)
 46:   1228.86   0.000596    3.01  0.000151  ( 0.005005  0.005247  0.009937)
 47:   1262.00   0.003360   16.98  0.000831  (-0.017978 -0.001511  0.022480)
 48:   1297.73   0.001148    5.80  0.000276  ( 0.008018  0.004734 -0.013760)
 49:   1313.30   0.000552    2.79  0.000131  (-0.000143 -0.003625 -0.010868)
 50:   1334.50   0.001588    8.03  0.000371  (-0.002026 -0.005258  0.018431)
 51:   1358.96   0.000055    0.28  0.000013  (-0.001551  0.001907 -0.002553)
 52:   1371.66   0.001275    6.44  0.000290  ( 0.011631  0.005652 -0.011082)
 53:   1377.60   0.000228    1.15  0.000052  ( 0.004979  0.004756 -0.002060)
 54:   1387.61   0.000487    2.46  0.000110  (-0.004061 -0.001364  0.009552)
 55:   1402.56   0.000521    2.63  0.000116  ( 0.004164  0.001551  0.009808)
 56:   1415.58   0.000663    3.35  0.000146  ( 0.008383 -0.001142 -0.008635)
 57:   1431.25   0.000440    2.22  0.000096  ( 0.006459 -0.007213  0.001473)
 58:   1435.64   0.000365    1.84  0.000079  (-0.001435 -0.002235  0.008502)
 59:   1441.71   0.002204   11.14  0.000477  ( 0.007196 -0.020615 -0.000590)
 60:   1442.32   0.001766    8.93  0.000382  (-0.007748 -0.013500 -0.011827)
 61:   1451.48   0.002583   13.05  0.000555  (-0.016108  0.003932 -0.016744)
 62:   1454.94   0.001570    7.94  0.000337  (-0.016830 -0.001306  0.007201)
 63:   1474.40   0.001224    6.18  0.000259  ( 0.008105  0.013011 -0.004901)
 64:   1507.04   0.000620    3.13  0.000128  ( 0.003724  0.010558 -0.001727)
 65:   1513.37   0.001259    6.36  0.000260  ( 0.010291  0.011680  0.004153)
 66:   1514.91   0.000092    0.47  0.000019  (-0.004328 -0.000257  0.000468)
 67:   1526.55   0.000572    2.89  0.000117  (-0.000474  0.003268  0.010301)
 68:   1526.80   0.001555    7.86  0.000318  ( 0.003690 -0.011813 -0.012831)
 69:   1529.63   0.001881    9.50  0.000384  ( 0.002257 -0.014753  0.012686)
 70:   1533.78   0.001461    7.38  0.000297  (-0.007494  0.003804 -0.015056)
 71:   1537.46   0.000584    2.95  0.000118  (-0.001735 -0.008025  0.007143)
 72:   1548.33   0.004192   21.18  0.000845  (-0.020901 -0.001878  0.020111)
 73:   3060.00   0.001759    8.89  0.000179  ( 0.008297  0.005598 -0.008898)
 74:   3071.23   0.004210   21.28  0.000428  ( 0.002116  0.003186  0.020326)
 75:   3079.85   0.004652   23.51  0.000471  ( 0.010285  0.016791  0.009146)
 76:   3089.22   0.006992   35.33  0.000706  ( 0.025224  0.008249  0.001418)
 77:   3090.06   0.002993   15.13  0.000302  ( 0.010014 -0.014092 -0.001848)
 78:   3093.51   0.005649   28.55  0.000570  ( 0.015634  0.010328  0.014790)
 79:   3098.86   0.009140   46.19  0.000920  (-0.026557 -0.001130 -0.014626)
 80:   3100.86   0.016280   82.27  0.001638  ( 0.013684 -0.036890  0.009502)
 81:   3108.49   0.003291   16.63  0.000330  ( 0.002509 -0.007577  0.016330)
 82:   3111.09   0.004755   24.03  0.000477  ( 0.000478  0.021580 -0.003313)
 83:   3141.60   0.006434   32.51  0.000639  ( 0.004989 -0.012446  0.021431)
 84:   3149.09   0.001341    6.78  0.000133  ( 0.000146 -0.011522 -0.000325)
 85:   3166.39   0.005970   30.17  0.000588  (-0.003235  0.008222  0.022590)
 86:   3173.11   0.000244    1.23  0.000024  (-0.003377  0.003031  0.001849)
 87:   3177.28   0.005137   25.96  0.000505  ( 0.003794  0.003792 -0.021812)
 88:   3178.18   0.011216   56.68  0.001101  ( 0.024268  0.007479 -0.021365)
 89:   3183.81   0.004558   23.03  0.000447  (-0.003823  0.019670  0.006726)
 90:   3198.08   0.004268   21.57  0.000416  ( 0.006037  0.015716  0.011534)
 91:   3200.90   0.003828   19.34  0.000373  ( 0.013803 -0.011351  0.007335)
 92:   3967.26   0.009366   47.33  0.000737  (-0.005901 -0.018568 -0.018897)

* The epsilon (eps) is given for a Dirac delta lineshape.
** The dipole moment derivative (T) already includes vibrational overlap.

The first frequency considered to be a vibration is 6
The total number of vibrations considered is 87


--------------------------
THERMOCHEMISTRY AT 298.15K
--------------------------

Temperature         ...   298.15 K
Pressure            ...     1.00 atm
Total Mass          ...   156.27 AMU
Quasi RRHO          ...     True
Cut-Off Frequency   ...     1.00 cm^-1

Throughout the following assumptions are being made:
  (1) The electronic state is orbitally nondegenerate
  (2) There are no thermally accessible electronically excited states
  (3) Hindered rotations indicated by low frequency modes are not
      treated as such but are treated as vibrations and this may
      cause some error
  (4) All equations used are the standard statistical mechanics
      equations for an ideal gas
  (5) All vibrations are strictly harmonic

freq.      56.28  E(vib)   ...       0.52 
freq.      83.32  E(vib)   ...       0.48 
freq.     122.52  E(vib)   ...       0.43 
freq.     171.38  E(vib)   ...       0.38 
freq.     202.41  E(vib)   ...       0.35 
freq.     231.50  E(vib)   ...       0.32 
freq.     243.07  E(vib)   ...       0.31 
freq.     257.11  E(vib)   ...       0.30 
freq.     263.63  E(vib)   ...       0.29 
freq.     269.97  E(vib)   ...       0.29 
freq.     319.16  E(vib)   ...       0.25 
freq.     322.45  E(vib)   ...       0.25 
freq.     366.18  E(vib)   ...       0.22 
freq.     408.46  E(vib)   ...       0.19 
freq.     423.28  E(vib)   ...       0.18 
freq.     451.55  E(vib)   ...       0.16 
freq.     458.78  E(vib)   ...       0.16 
freq.     541.69  E(vib)   ...       0.12 
freq.     606.19  E(vib)   ...       0.10 
freq.     724.48  E(vib)   ...       0.06 
freq.     792.31  E(vib)   ...       0.05 
freq.     833.54  E(vib)   ...       0.04 
freq.     892.14  E(vib)   ...       0.03 
freq.     903.14  E(vib)   ...       0.03 
freq.     936.18  E(vib)   ...       0.03 
freq.     941.36  E(vib)   ...       0.03 
freq.     952.99  E(vib)   ...       0.03 
freq.     990.14  E(vib)   ...       0.02 
freq.     995.09  E(vib)   ...       0.02 
freq.    1005.05  E(vib)   ...       0.02 
freq.    1030.36  E(vib)   ...       0.02 
freq.    1076.49  E(vib)   ...       0.02 
freq.    1088.30  E(vib)   ...       0.02 
freq.    1135.66  E(vib)   ...       0.01 
freq.    1138.73  E(vib)   ...       0.01 
freq.    1157.14  E(vib)   ...       0.01 
freq.    1175.72  E(vib)   ...       0.01 
freq.    1192.38  E(vib)   ...       0.01 
freq.    1219.48  E(vib)   ...       0.01 
freq.    1224.99  E(vib)   ...       0.01 
freq.    1228.86  E(vib)   ...       0.01 
freq.    1262.00  E(vib)   ...       0.01 
freq.    1297.73  E(vib)   ...       0.01 
freq.    1313.30  E(vib)   ...       0.01 
freq.    1334.50  E(vib)   ...       0.01 
freq.    1358.96  E(vib)   ...       0.01 
freq.    1371.66  E(vib)   ...       0.01 
freq.    1377.60  E(vib)   ...       0.01 
freq.    1387.61  E(vib)   ...       0.00 
freq.    1402.56  E(vib)   ...       0.00 
freq.    1415.58  E(vib)   ...       0.00 
freq.    1431.25  E(vib)   ...       0.00 
freq.    1435.64  E(vib)   ...       0.00 
freq.    1441.71  E(vib)   ...       0.00 
freq.    1442.32  E(vib)   ...       0.00 
freq.    1451.48  E(vib)   ...       0.00 
freq.    1454.94  E(vib)   ...       0.00 
freq.    1474.40  E(vib)   ...       0.00 
freq.    1507.04  E(vib)   ...       0.00 
freq.    1513.37  E(vib)   ...       0.00 
freq.    1514.91  E(vib)   ...       0.00 
freq.    1526.55  E(vib)   ...       0.00 
freq.    1526.80  E(vib)   ...       0.00 
freq.    1529.63  E(vib)   ...       0.00 
freq.    1533.78  E(vib)   ...       0.00 
freq.    1537.46  E(vib)   ...       0.00 
freq.    1548.33  E(vib)   ...       0.00 
freq.    3060.00  E(vib)   ...       0.00 
freq.    3071.23  E(vib)   ...       0.00 
freq.    3079.85  E(vib)   ...       0.00 
freq.    3089.22  E(vib)   ...       0.00 
freq.    3090.06  E(vib)   ...       0.00 
freq.    3093.51  E(vib)   ...       0.00 
freq.    3098.86  E(vib)   ...       0.00 
freq.    3100.86  E(vib)   ...       0.00 
freq.    3108.49  E(vib)   ...       0.00 
freq.    3111.09  E(vib)   ...       0.00 
freq.    3141.60  E(vib)   ...       0.00 
freq.    3149.09  E(vib)   ...       0.00 
freq.    3166.39  E(vib)   ...       0.00 
freq.    3173.11  E(vib)   ...       0.00 
freq.    3177.28  E(vib)   ...       0.00 
freq.    3178.18  E(vib)   ...       0.00 
freq.    3183.81  E(vib)   ...       0.00 
freq.    3198.08  E(vib)   ...       0.00 
freq.    3200.90  E(vib)   ...       0.00 
freq.    3967.26  E(vib)   ...       0.00 

------------
INNER ENERGY
------------

The inner energy is: U= E(el) + E(ZPE) + E(vib) + E(rot) + E(trans)
    E(el)   - is the total energy from the electronic structure calculation
              = E(kin-el) + E(nuc-el) + E(el-el) + E(nuc-nuc)
    E(ZPE)  - the the zero temperature vibrational energy from the frequency calculation
    E(vib)  - the the finite temperature correction to E(ZPE) due to population
              of excited vibrational states
    E(rot)  - is the rotational thermal energy
    E(trans)- is the translational thermal energy

Summary of contributions to the inner energy U:
Electronic energy                ...    -85.13474866 Eh
Zero point energy                ...      0.29448375 Eh     184.79 kcal/mol
Thermal vibrational correction   ...      0.00946728 Eh       5.94 kcal/mol
Thermal rotational correction    ...      0.00141627 Eh       0.89 kcal/mol
Thermal translational correction ...      0.00141627 Eh       0.89 kcal/mol
-----------------------------------------------------------------------
Total thermal energy                    -84.82796509 Eh


Summary of corrections to the electronic energy:
(perhaps to be used in another calculation)
Total thermal correction                  0.01229982 Eh       7.72 kcal/mol
Non-thermal (ZPE) correction              0.29448375 Eh     184.79 kcal/mol
-----------------------------------------------------------------------
Total correction                          0.30678357 Eh     192.51 kcal/mol


--------
ENTHALPY
--------

The enthalpy is H = U + kB*T
                kB is Boltzmann's constant
Total thermal energy              ...    -84.82796509 Eh 
Thermal Enthalpy correction       ...      0.00094421 Eh       0.59 kcal/mol
-----------------------------------------------------------------------
Total Enthalpy                    ...    -84.82702088 Eh


Note: Only C1 symmetry has been detected, increase convergence thresholds 
      if your molecule has a higher symmetry. Symmetry factor of 1.0 is   
      used for the rotational entropy correction. 
 

Note: Rotational entropy computed according to Herzberg 
Infrared and Raman Spectra, Chapter V,1, Van Nostrand Reinhold, 1945 
Point Group:  C1, Symmetry Number:   1  
Rotational constants in cm-1:     0.065666     0.022953     0.020080 

Vibrational entropy computed according to the QRRHO of S. Grimme
Chem.Eur.J. 2012 18 9955 using a reference frequency of 100.0 cm-1


-------
ENTROPY
-------

The entropy contributions are T*S = T*(S(el)+S(vib)+S(rot)+S(trans))
     S(el)   - electronic entropy
     S(vib)  - vibrational entropy
     S(rot)  - rotational entropy
     S(trans)- translational entropy
The entropies will be listed as multiplied by the temperature to get
units of energy

Electronic entropy                ...      0.00000000 Eh      0.00 kcal/mol
Vibrational entropy               ...      0.01594389 Eh     10.00 kcal/mol
Rotational entropy                ...      0.01442318 Eh      9.05 kcal/mol
Translational entropy             ...      0.01950348 Eh     12.24 kcal/mol
-----------------------------------------------------------------------
Final entropy term                ...      0.04987054 Eh     31.29 kcal/mol

In case the symmetry of your molecule has not been determined correctly
or in case you have a reason to use a different symmetry number we print 
out the resulting rotational entropy values for sn=1,12:

 non-linear molecules -----------------------------------
|  sn= 1 | S(rot)=       0.01442318 Eh      9.05 kcal/mol|
|  sn= 2 | S(rot)=       0.01376872 Eh      8.64 kcal/mol|
|  sn= 3 | S(rot)=       0.01338589 Eh      8.40 kcal/mol|
|  sn= 4 | S(rot)=       0.01311426 Eh      8.23 kcal/mol|
|  sn= 5 | S(rot)=       0.01290357 Eh      8.10 kcal/mol|
|  sn= 6 | S(rot)=       0.01273143 Eh      7.99 kcal/mol|
|  sn= 7 | S(rot)=       0.01258588 Eh      7.90 kcal/mol|
|  sn= 8 | S(rot)=       0.01245981 Eh      7.82 kcal/mol|
|  sn= 9 | S(rot)=       0.01234860 Eh      7.75 kcal/mol|
|  sn=10 | S(rot)=       0.01224912 Eh      7.69 kcal/mol|
|  sn=11 | S(rot)=       0.01215913 Eh      7.63 kcal/mol|
|  sn=12 | S(rot)=       0.01207697 Eh      7.58 kcal/mol|
 linear molecules ---------------------------------------
|  Dinfh | S(rot)=       0.00901572 Eh      5.66 kcal/mol|
|  Cinfv | S(rot)=       0.00967017 Eh      6.07 kcal/mol|
 --------------------------------------------------------


-------------------
GIBBS FREE ENERGY
-------------------

The Gibbs free energy is G = H - T*S

Total enthalpy                    ...    -84.82702088 Eh 
Total entropy correction          ...     -0.04987054 Eh    -31.29 kcal/mol
-----------------------------------------------------------------------
Final Gibbs free energy         ...    -84.87689142 Eh

For completeness - the Gibbs free energy minus the electronic energy
G-E(el)                           ...      0.25785724 Eh    161.81 kcal/mol


Maximum memory used throughout the entire PROP-calculation: 154.2 MB

--------------------------------
SUGGESTED CITATIONS FOR THIS RUN
--------------------------------

Below you find a list of papers that are relevant to this ORCA run
We neither can nor want to force you to cite these papers, but we appreciate if you do
You receive ORCA, which is the product of decades of hard work by many enthusiastic individuals, for free
The only thing we kindly ask in return is that you cite our papers,
We deeply appreciate it, if you show your appreciation for ORCA by not just citing the generic ORCA reference.

Please note that relegating all ORCA citations to the supporting information does *not* help us.
SI sections are not indexed - citations you put there will not count into any citation statistics
But we need these citations in order to attract the funding resources that allow us to do what we are doing

Therefore, if you are a happy ORCA user, please consider citing a few of the papers listed below in the main body of your paper

In addition to the list printed below, the program has created the file ./output/menthol/menthol.bibtex that contains the list in bibtex format
You can import this file easily into all common literature databanks and citation aid programs


List of essential papers. We consider these as the minimum necessary citations

  1. Neese,F.
     Software update: the ORCA program system, version 5.0
     WIRES Comput. Molec. Sci., 2022 12(1)e1606
     doi.org/10.1002/wcms.1606
  2. Mueller,M.; Hansen,A.; Grimme,S.
     wB97X-3c: A composite range-separated hybrid DFT method with a molecule-optimized polarized valence double-zeta basis set
     J. Chem. Phys., 2023 158 014103
     doi.org/10.1063/5.0133026

List of papers to cite with high priority. The work reported in these papers was absolutely
necessary for this run to complete.
Our perspective: the developers of density functionals and basis sets usually get cited in chemistry papers
Good! But without the algorithms to do something with them, the functionals or basis sets would not do anything.
Hence, in our opinion, the algorithm design and method developments papers are equally worthy of getting cited

  1. Neese,F.
     An improvement of the resolution of the identity approximation for the formation of the Coulomb matrix
     J. Comp. Chem., 2003 24(14)1740-1747
     doi.org/10.1002/jcc.10318
  2. Neese,F.; Wennmohs,F.; Hansen,A.; Becker,U.
     Efficient, approximate and parallel Hartree-Fock and hybrid DFT calculations. A 'chain-of-spheres' algorithm for the Hartree-Fock exchange
     Chem. Phys., 2009 356(1-3)98-109
     doi.org/10.1016/j.chemphys.2008.10.036
  3. Bykov,D.; Petrenko,T.; Izsak,R.; Kossmann,S.; Becker,U.; Valeev,E.; Neese,F.
     Efficient implementation of the analytic second derivatives of Hartree-Fock and hybrid DFT energies: a detailed analysis of different approximations
     Molec. Phys., 2015 113 1961-1977
     doi.org/10.1080/00268976.2015.1025114
  4. Helmich-Paris,B.; de Souza,B.; Neese,F.; Izsák,R.
     An improved chain of spheres for exchange algorithm
     J. Chem. Phys., 2021 155 104109
     doi.org/doi: 10.1063/5.0058766.
  5. Neese,F.
     The SHARK Integral Generation and Digestion System
     J. Comp. Chem., 2022  1-16
     doi.org/10.1002/jcc.26942
  6. Caldeweyher,E.; Bannwarth,C.; Grimme,S.
     Extension of the D3 dispersion coefficient model
     J. Chem. Phys., 2017 147 034112
     doi.org/10.1063/1.4993215
  7. Caldeweyher,E.; Ehlert,S.; Hansen,A.; Neugebauer,H.; Spicher,S.; Bannwarth,C.; Grimme,S.
     A generally applicable atomic-charge dependent London dispersion correction
     J. Chem. Phys., 2019 150 154122
     doi.org/10.1063/1.5090222
  8. Caldeweyher,E.; Mewes,J.; Ehlert,S.; Grimme,S.
     Extension and evaluation of the D4 London-dispersion model for periodic systems
     Phys. Chem. Chem. Phys., 2020 22(16)8499-8512
     doi.org/10.1039/D0CP00502A
  9. Wittmann,L.; Gordiy,I.; Friede,M.; Helmich-Paris,B.; Grimme,S.; Hansen,A.; Bursch,M.
     Extension of the D3 and D4 London Dispersion Corrections to the full Actinides Series
     Phys. Chem. Chem. Phys., 2024 26(32)21379-21394
     doi.org/https://doi.org/10.1039/D4CP01514B 

List of suggested additional citations. These are papers that are important in the 'surrounding' of 
of this run, or papers that preceded the highly important papers. If you like your results we are grateful for a citation.

  1. Izsak,R.; Neese,F.
     An overlap fitted chain of spheres exchange method
     J. Chem. Phys., 2011 135 144105
     doi.org/10.1063/1.3646921
  2. Izsak,R.; Hansen,A.; Neese,F.
     The resolution of identity and chain of spheres approximations for the LPNO-CCSD singles Fock term
     Molec. Phys., 2012 110 2413-2417
     doi.org/10.1080/00268976.2012.687466
  3. Neese,F.
     The ORCA program system
     WIRES Comput. Molec. Sci., 2012 2(1)73-78
     doi.org/10.1002/wcms.81
  4. Izsak,R.; Neese,F.; Klopper,W.
     Robust fitting techniques in the chain of spheres approximation to the Fock exchange: The role of the complementary space
     J. Chem. Phys., 2013 139 
     doi.org/10.1063/1.4819264
  5. Neese,F.
     Software update: the ORCA program system, version 4.0
     WIRES Comput. Molec. Sci., 2018 8(1)1-6
     doi.org/10.1002/wcms.1327
  6. Neese,F.; Wennmohs,F.; Becker,U.; Riplinger,C.
     The ORCA quantum chemistry program package
     J. Chem. Phys., 2020 152 Art. No. L224108
     doi.org/10.1063/5.0004608

List of optional additional citations

  1. Neese,F.
     Approximate second-order SCF convergence for spin unrestricted wavefunctions
     Chem. Phys. Lett., 2000 325(1-3)93-98
     doi.org/10.1016/s0009-2614(00)00662-x

Timings for individual modules:

Sum of individual times          ...      932.592 sec (=  15.543 min)
Startup calculation              ...       45.553 sec (=   0.759 min)   4.9 %
SCF iterations                   ...      543.828 sec (=   9.064 min)  58.3 %
Property integrals               ...       72.508 sec (=   1.208 min)   7.8 %
SCF Response                     ...       42.245 sec (=   0.704 min)   4.5 %
Property calculations            ...      110.793 sec (=   1.847 min)  11.9 %
SCF Gradient evaluation          ...      117.412 sec (=   1.957 min)  12.6 %
Geometry relaxation              ...        0.252 sec (=   0.004 min)   0.0 %
                             ****ORCA TERMINATED NORMALLY****
TOTAL RUN TIME: 0 days 0 hours 15 minutes 38 seconds 58 msec
