
                                 *****************
                                 * O   R   C   A *
                                 *****************

                                            #,                                       
                                            ###                                      
                                            ####                                     
                                            #####                                    
                                            ######                                   
                                           ########,                                 
                                     ,,################,,,,,                         
                               ,,#################################,,                 
                          ,,##########################################,,             
                       ,#########################################, ''#####,          
                    ,#############################################,,   '####,        
                  ,##################################################,,,,####,       
                ,###########''''           ''''###############################       
              ,#####''   ,,,,##########,,,,          '''####'''          '####       
            ,##' ,,,,###########################,,,                        '##       
           ' ,,###''''                  '''############,,,                           
         ,,##''                                '''############,,,,        ,,,,,,###''
      ,#''                                            '''#######################'''  
     '                                                          ''''####''''         
             ,#######,   #######,   ,#######,      ##                                
            ,#'     '#,  ##    ##  ,#'     '#,    #''#        ,####,   ,####,        
            ##       ##  ##   ,#'  ##            #'  '#       #'       #'  '#        
            ##       ##  #######   ##           ,######,      #####,   #    #        
            '#,     ,#'  ##    ##  '#,     ,#' ,#      #,     #,   #   #,  ,#        
             '#######'   ##     ##  '#######'  #'      '#     '####' # '####'        



                #########################################################
                #                        -***-                          #
                #          Department of theory and spectroscopy        #
                #                                                       #
                #                      Frank Neese                      #
                #                                                       #
                #     Directorship, Architecture, Infrastructure        #
                #                    SHARK, DRIVERS                     #
                #        Core code/Algorithms in most modules           #
                #                                                       #
                #        Max Planck Institute fuer Kohlenforschung      #
                #                Kaiser Wilhelm Platz 1                 #
                #                 D-45470 Muelheim/Ruhr                 #
                #                      Germany                          #
                #                                                       #
                #                  All rights reserved                  #
                #                        -***-                          #
                #########################################################


                         Program Version 6.0.1  -  RELEASE   -


 With contributions from (in alphabetic order):
[Max-Planck-Institut fuer Kohlenforschung]                               
  Daniel Aravena         : Magnetic Suceptibility                        
  Michael Atanasov       : Ab Initio Ligand Field Theory (pilot matlab implementation)
  Alexander A. Auer      : GIAO ZORA, VPT2 properties, NMR spectrum      
  Ute Becker             : All parallelization in ORCA, NUMFREQ, NUMCALC 
  Giovanni Bistoni       : ED, misc. LED, open-shell LED, HFLD           
  Martin Brehm           : Molecular dynamics                            
  Dmytro Bykov           : pre 5.0 version of the SCF Hessian            
  Marcos Casanova-Páez   : Triplet and SCS-CIS(D). UHF-(DLPNO)-IP/EA/STEOM-CCSD. UHF-CVS-IP/STEOM-CCSD   
  Vijay G. Chilkuri      : MRCI spin determinant printing, contributions to CSF-ICE 
  Pauline Colinet        : FMM embedding                                 
  Dipayan Datta          : RHF DLPNO-CCSD density                        
  Achintya Kumar Dutta   : EOM-CC, STEOM-CC                              
  Nicolas Foglia         : Exact transition moments, OPA infrastructure, MCD improvements    
  Dmitry Ganyushin       : Spin-Orbit,Spin-Spin,Magnetic field MRCI      
  Miquel Garcia-Rates    : C-PCM and meta-GGA Hessian, CCSD/C-PCM, Gaussian charge scheme 
  Tiago L. C. Gouveia    : GS-ROHF, GS-ROCIS                             
  Yang Guo               : DLPNO-NEVPT2, F12-NEVPT2, CIM, IAO-localization        
  Andreas Hansen         : Spin unrestricted coupled pair/coupled cluster methods 
  Ingolf Harden          : AUTO-CI MPn and infrastructure                
  Benjamin Helmich-Paris : MC-RPA, TRAH-(SCF,CASSCF), AVAS, COSX integrals, SCF dyn. polar. 
  Lee Huntington         : MR-EOM, pCC                                   
  Robert Izsak           : Overlap fitted RIJCOSX, COSX-SCS-MP3, EOM     
  Riya Kayal             : Wick's Theorem for AUTO-CI, AUTO-CI UHF-CCSDT 
  Emily Kempfer          : AUTO-CI, RHF CISDT and CCSDT                  
  Christian Kollmar      : KDIIS, OOCD, Brueckner-CCSD(T), CCSD density, CASPT2, CASPT2-K, improved NEVPT2 
  Axel Koslowski         : Symmetry handling                             
  Simone Kossmann        : meta-GGA functionals, TD-DFT gradient, OOMP2, (MP2 Hessian; deprecated post 5.0) 
  Lucas Lang             : DCDCAS                                        
  Marvin Lechner         : AUTO-CI (C++ implementation), FIC-MRCC        
  Spencer Leger          : CASSCF response                               
  Dagmar Lenk            : GEPOL surface, SMD, ORCA-2-JSON               
  Dimitrios Liakos       : Extrapolation schemes; Compound Job, initial MDCI parallelization 
  Dimitrios Manganas     : Further ROCIS development; embedding schemes. LFT, Crystal Embedding 
  Dimitrios Pantazis     : SARC Basis sets                               
  Anastasios Papadopoulos: AUTO-CI, single reference methods and gradients 
  Taras Petrenko         : pre 6.0 DFT Hessian and TD-DFT gradient, (ASA, deprecated), ECA, 1-Electron XAS/XES, NRVS 
  Peter Pinski           : DLPNO-MP2, DLPNO-MP2 Gradient                 
  Christoph Reimann      : Effective Core Potentials                     
  Marius Retegan         : Local ZFS, SOC                                
  Christoph Riplinger    : Optimizer, TS searches, QM/MM, DLPNO-CCSD(T), (RO)-DLPNO pert. Triples 
  Michael Roemelt        : Original ROCIS implementation                 
  Masaaki Saitow         : Open-shell DLPNO-CCSD energy and density      
  Barbara Sandhoefer     : DKH picture change effects                    
  Kantharuban Sivalingam : CASSCF convergence/infrastructure, NEVPT2 and variants, FIC-MRCI 
  Bernardo de Souza      : ESD, SOC TD-DFT                               
  Georgi L. Stoychev     : AutoAux, RI-MP2 NMR, DLPNO-MP2 response, X2C  
  Van Anh Tran           : RI-MP2 g-tensors                              
  Willem Van den Heuvel  : Paramagnetic NMR                              
  Zikuan Wang            : NOTCH, Electric field optimization            
  Frank Wennmohs         : Technical directorship and infrastructure     
  Hang Xu                : AUTO-CI-Response properties                   
                                                                         
[FACCTs GmbH]                                                            
  Markus Bursch, Miquel Garcia-Rates, Christoph Riplinger, Bernardo de Souza, Georgi L. Stoychev 
                                                                 
  APM, Basis sets (HGBS, AHGBS, def-TZVP (Ac-Lr), def2-XVPD (La-Lu)), CI-OPT, improved COSX, DLPNO-Multilevel,           
  DOCKER, DRACO, updates on ESD, GOAT, IRC, LR-CPCM, MBIS, meta-GGA TD-DFT gradient, ML-optimized integration grids, 
  MM, NACMEs, nearIR, NEB, NEB-TS, NL-DFT gradient (VV10), 2- and 3-layer-ONIOM, interface openCOSMO-RS, QMMM,   
  Crystal-QMMM, SF, symmetry and pop. for TD-DFT, r2SCAN hybrids, SOLVATOR                                   
                                                                         
[Other institutions]                                                     
  V. Asgeirsson          : NEB                                           
  Christoph Bannwarth    : sTDA-DFT, sTD-DFT, PBEh-3c, B97-3c, D3        
  Sebastian Ehlert       : rSCAN, r2SCAN, r2SCAN-3c, D4, dhf basis sets  
  Marvin Friede          : D4 for Fr, Ra, Ac-Lr                          
  Lars Goerigk           : TD-DFT with DH, B97 family of functionals     
  Stefan Grimme          : VdW corrections, initial TS optimization, DFT functionals, gCP, sTDA/sTD-DF 
  Waldemar Hujo          : DFT-NL                                        
  H. Jonsson             : NEB                                           
  Holger Kruse           : gCP                                           
  Marcel Mueller         : wB97X-3c, vDZP basis set                      
  Hagen Neugebauer       : wr2SCAN                                       
  Tobias Risthaus        : range-separated hybrid DFT                    
  Lukas Wittmann         : regularized MP2, r2SCAN double-hybrids, wr2SCAN        
                                                                         
We gratefully acknowledge several colleagues who have allowed us to      
interface, adapt or use parts of their codes:                            
  Ed Valeev, F. Pavosevic, A. Kumar             : LibInt (2-el integral package), F12 methods 
  Garnet Chan, S. Sharma, J. Yang, R. Olivares  : DMRG                   
  Ulf Ekstrom                                   : XCFun DFT Library      
  Mihaly Kallay                                 : mrcc  (arbitrary order and MRCC methods)
  Frank Weinhold                                : gennbo (NPA and NBO analysis)           
  Simon Mueller                                 : openCOSMO-RS                            
  Christopher J. Cramer and Donald G. Truhlar   : smd solvation model                     
  S Lehtola, MJT Oliveira, MAL Marques          : LibXC Library                           
  Liviu Ungur et al                             : ANISO software                          


 Your calculation uses the libint2 library for the computation of 2-el integrals
 For citations please refer to: http://libint.valeyev.net

 Your ORCA version has been built with support for libXC version: 6.2.2
 For citations please refer to: https://libxc.gitlab.io

 This ORCA versions uses:
   CBLAS   interface :  Fast vector & matrix operations
   LAPACKE interface :  Fast linear algebra routines
   SCALAPACK package :  Parallel linear algebra routines
   Shared memory     :  Shared parallel matrices
   BLAS/LAPACK       :  OpenBLAS 0.3.27  USE64BITINT DYNAMIC_ARCH NO_AFFINITY SkylakeX SINGLE_THREADED
        Core in use  :  SkylakeX
   Copyright (c) 2011-2014, The OpenBLAS Project


Your calculation utilizes the atom-pairwise dispersion correction
based on EEQ partial charges (D4)


================================================================================

cite the ECPs for C  [vDZP-ECP] as follows:
   B-Ne (ecp-2-mwb), Al-Ar (ecp-10-mwb), Ga-Kr (ecp-28-mwb), Y-Cd (ecp-28-mwb), In-Xe (ecp-46-mwb):
     A. Bergner, M. Dolg, W. Küchle, H. Stoll, and H. Preuß, Mol. Phys. 80, 1431 (1993)., T. Leininger, A. Berning, A. Nicklass, H. Stoll, H.-J. Werner, and H.-J.Flad, Chem. Phys. 217, 19 (1997).
   Na-Mg, K-Ca, Rb-Sr, Cs-Ba (CRENBL):
     L. Fernandez Pacios and P. A. Christiansen, J. Chem. Phys. 82, 2664 (1985)., M. M. Hurley, L. F. Pacios, P. A. Christiansen, R. B. Ross, and W. C. Ermler, J. Chem. Phys. 84, 6840 (1986)., L. A. LaJohn, P. A. Christiansen, R. B. Ross, T. Atashroo, and W. C. Ermler, J. Chem. Phys. 87, 2812 (1987)., R. B. Ross, J. M. Powers, T. Atashroo, W. C. Ermler, L. A. LaJohn, and P. A. Christiansen, J. Chem. Phys. 93, 6654 (1990). 
   Sc-Zn (ecp-10-mdf):
     M. Dolg, U. Wedig, H. Stoll, and H. Preuss, J. Chem. Phys. 86, 866 (1986). 
   Y-Cd (ecp-28-mwb), Hf-Hg (ecp-60-mwb):
     D. Andrae, U. Häußermann, M. Dolg, H. Stoll, and H. Preuß, Theor. Chim. Acta 77, 123 (1990). 
   La (ecp-46-mwb):
     M. Dolg, H. Stoll, and H. Preuss, J. Chem. Phys. 90, 1730 (1989)., M. Dolg, H. Stoll, and H. Preuss, Theor. Chim. Acta 85, 441 (1993).
   Ce-Lu (SBKJC-ecp):
     T. R. Cundari and W. J. Stevens, J. Chem. Phys. 98, 5555 (1993).
   Tl-Rn (ecp-78-mwb):
     W. Küchle, M. Dolg, H. Stoll, and H. Preuss, Mol. Phys. 74, 1245 (1991).

ECP parameters for C  [vDZP-ECP] have been obtained from:
MM, AH, SG, J. Chem. Phys. 158, 014103 (2023), 10.1063/5.0133026

----- Orbital basis set information -----
Your calculation utilizes the basis: vDZP
   Marcel Mueller, Andreas Hansen, Stefan Grimme 
   J. Chem. Phys. 158, 014103 (2023). DOI: 10.1063/5.0133026

----- AuxJ basis set information -----
Your calculation utilizes the auxiliary basis: def2/J
   F. Weigend, Phys. Chem. Chem. Phys. 8, 1057 (2006).

================================================================================
                                        WARNINGS
                       Please study these warnings very carefully!
================================================================================

WARNING: Frozen-Core approximation turned on, but there are no core electrons.
  ===> : Turning off frozen-core approximation


WARNING: Geometry Optimization
  ===> : Switching off AutoStart
         For restart on a previous wavefunction, please use MOREAD

================================================================================
                                       INPUT FILE
================================================================================
NAME = ./output/delta_3_carene/delta_3_carene.inp
|  1> ! wB97X-3c OPT FREQ TightSCF
|  2> %pal
|  3>   nprocs 40
|  4> end
|  5> * xyz 0 1
|  6> C      3.398429    -0.579076    -0.100016
|  7> C      1.951492    -0.186152    -0.227456
|  8> C      1.616856     0.860118    -1.001392
|  9> C      0.186995     1.290794    -1.168411
| 10> C     -0.611231     1.156673     0.145475
| 11> C     -0.237657    -0.047843     1.040005
| 12> C      0.884809    -0.965152     0.506162
| 13> C     -1.605624    -0.000210     0.339514
| 14> C     -2.784750     0.321056     1.264382
| 15> C     -1.917666    -0.960717    -0.824225
| 16> H      3.517207    -1.478162     0.540225
| 17> H      3.815132    -0.809458    -1.103388
| 18> H      3.975555     0.255275     0.351659
| 19> H      2.390655     1.423474    -1.516569
| 20> H     -0.272355     0.750720    -2.016422
| 21> H      0.182145     2.361878    -1.461287
| 22> H     -0.791109     2.083373     0.732939
| 23> H     -0.212632     0.216415     2.119763
| 24> H      0.510923    -1.783251    -0.136313
| 25> H      1.338951    -1.468318     1.385895
| 26> H     -2.500990     1.016807     2.083444
| 27> H     -3.600646     0.789653     0.675193
| 28> H     -3.164944    -0.617412     1.719492
| 29> H     -2.721210    -0.520940    -1.451117
| 30> H     -1.062761    -1.186677    -1.486819
| 31> H     -2.285574    -1.922866    -0.410732
| 32> *
| 33> 
| 34>                          ****END OF INPUT****
================================================================================

                       *****************************
                       * Geometry Optimization Run *
                       *****************************

Geometry optimization settings:
Update method            Update   .... BFGS
Choice of coordinates    CoordSys .... (2022) Redundant Internals
Initial Hessian          InHess   .... Almloef's Model
Max. no of cycles        MaxIter  .... 78

Convergence Tolerances:
Energy Change            TolE     ....  5.0000e-06 Eh
Max. Gradient            TolMAXG  ....  3.0000e-04 Eh/bohr
RMS Gradient             TolRMSG  ....  1.0000e-04 Eh/bohr
Max. Displacement        TolMAXD  ....  4.0000e-03 bohr
RMS Displacement         TolRMSD  ....  2.0000e-03 bohr
Strict Convergence                .... False

------------------------------------------------------------------------------
                        ORCA OPTIMIZATION COORDINATE SETUP
------------------------------------------------------------------------------

The optimization will be done in redundant internal coordinates (2022)
Making redundant internal coordinates   ...  (2022 redundants) done
Evaluating the initial hessian          ...  (Almloef) done
Evaluating the coordinates              ...  done
Calculating the B-matrix                .... done
Calculating the G-matrix                .... done
Diagonalizing the G-matrix              .... done
The first mode is                       ....   70
The number of degrees of freedom        ....   72

    -----------------------------------------------------------------
                    Redundant Internal Coordinates


    -----------------------------------------------------------------
         Definition                    Initial Value    Approx d2E/dq
    -----------------------------------------------------------------
      1. B(C   1,C   0)                  1.5047         0.409893   
      2. B(C   2,C   1)                  1.3437         0.740529   
      3. B(C   3,C   2)                  1.5026         0.413099   
      4. B(C   4,C   3)                  1.5432         0.355899   
      5. B(C   5,C   4)                  1.5462         0.352047   
      6. B(C   6,C   5)                  1.5448         0.353820   
      7. B(C   6,C   1)                  1.5109         0.400714   
      8. B(C   7,C   5)                  1.5376         0.363256   
      9. B(C   7,C   4)                  1.5378         0.363014   
     10. B(C   8,C   7)                  1.5326         0.369993   
     11. B(C   9,C   7)                  1.5409         0.358971   
     12. B(H  10,C   0)                  1.1101         0.334440   
     13. B(H  11,C   0)                  1.1106         0.333832   
     14. B(H  12,C   0)                  1.1105         0.333968   
     15. B(H  13,C   2)                  1.0870         0.364107   
     16. B(H  14,C   3)                  1.1054         0.340352   
     17. B(H  15,C   3)                  1.1104         0.334082   
     18. B(H  16,C   4)                  1.1119         0.332307   
     19. B(H  17,C   5)                  1.1119         0.332256   
     20. B(H  18,C   6)                  1.1054         0.340326   
     21. B(H  19,C   6)                  1.1106         0.333899   
     22. B(H  20,C   8)                  1.1115         0.332742   
     23. B(H  21,C   8)                  1.1101         0.334418   
     24. B(H  22,C   8)                  1.1101         0.334428   
     25. B(H  23,C   9)                  1.1100         0.334602   
     26. B(H  24,C   9)                  1.1050         0.340835   
     27. B(H  25,C   9)                  1.1100         0.334611   
     28. A(C   1,C   0,H  10)          111.2976         0.325325   
     29. A(C   1,C   0,H  12)          109.7544         0.325250   
     30. A(H  10,C   0,H  11)          108.2336         0.284117   
     31. A(H  11,C   0,H  12)          109.1665         0.284054   
     32. A(H  10,C   0,H  12)          108.5613         0.284135   
     33. A(C   1,C   0,H  11)          109.7817         0.325228   
     34. A(C   2,C   1,C   6)          120.3503         0.414432   
     35. A(C   0,C   1,C   2)          119.4433         0.416105   
     36. A(C   0,C   1,C   6)          120.2061         0.373656   
     37. A(C   1,C   2,H  13)          119.9493         0.364425   
     38. A(C   3,C   2,H  13)          118.4360         0.330340   
     39. A(C   1,C   2,C   3)          121.6116         0.416682   
     40. A(C   4,C   3,H  15)          107.8265         0.317834   
     41. A(C   4,C   3,H  14)          113.3138         0.318799   
     42. A(C   2,C   3,H  14)          109.9182         0.326683   
     43. A(C   2,C   3,C   4)          111.8799         0.366606   
     44. A(C   2,C   3,H  15)          108.0554         0.325685   
     45. A(H  14,C   3,H  15)          105.4935         0.284925   
     46. A(C   5,C   4,H  16)          112.5015         0.316996   
     47. A(C   3,C   4,C   5)          115.8052         0.356737   
     48. A(C   7,C   4,H  16)          117.1120         0.318584   
     49. A(C   5,C   4,C   7)           59.8124         0.357939   
     50. A(C   3,C   4,H  16)          117.4577         0.317558   
     51. A(C   3,C   4,C   7)          120.4832         0.358602   
     52. A(C   4,C   5,C   6)          115.9908         0.356382   
     53. A(C   6,C   5,C   7)          120.4910         0.358286   
     54. A(C   4,C   5,C   7)           59.8240         0.357980   
     55. A(C   6,C   5,H  17)          117.4102         0.317247   
     56. A(C   7,C   5,H  17)          117.0685         0.318611   
     57. A(C   4,C   5,H  17)          112.4646         0.316988   
     58. A(H  18,C   6,H  19)          105.2728         0.284897   
     59. A(C   5,C   6,H  19)          107.0031         0.317502   
     60. A(C   1,C   6,H  19)          109.2399         0.324031   
     61. A(C   5,C   6,H  18)          113.2392         0.318490   
     62. A(C   1,C   6,H  18)          109.7655         0.325047   
     63. A(C   1,C   6,C   5)          112.0006         0.364334   
     64. A(C   5,C   7,C   8)          114.5850         0.361024   
     65. A(C   4,C   7,C   8)          114.5782         0.360983   
     66. A(C   4,C   7,C   5)           60.3635         0.359854   
     67. A(C   8,C   7,C   9)          115.5074         0.360294   
     68. A(C   5,C   7,C   9)          120.3265         0.359168   
     69. A(C   4,C   7,C   9)          120.3050         0.359128   
     70. A(H  21,C   8,H  22)          108.8270         0.284192   
     71. A(H  20,C   8,H  22)          108.3302         0.283971   
     72. A(C   7,C   8,H  22)          109.4918         0.319908   
     73. A(H  20,C   8,H  21)          108.3308         0.283969   
     74. A(C   7,C   8,H  21)          109.4899         0.319907   
     75. A(C   7,C   8,H  20)          112.3016         0.319644   
     76. A(H  24,C   9,H  25)          107.6119         0.285058   
     77. A(H  23,C   9,H  25)          108.2929         0.284241   
     78. A(C   7,C   9,H  25)          109.0329         0.318362   
     79. A(H  23,C   9,H  24)          107.6046         0.285057   
     80. A(C   7,C   9,H  24)          115.0672         0.319320   
     81. A(C   7,C   9,H  23)          109.0368         0.318360   
     82. D(C   6,C   1,C   0,H  10)      1.8090         0.012444   
     83. D(C   6,C   1,C   0,H  11)    121.6171         0.012444   
     84. D(C   2,C   1,C   0,H  12)     61.7870         0.012444   
     85. D(C   2,C   1,C   0,H  10)   -178.0134         0.012444   
     86. D(C   2,C   1,C   0,H  11)    -58.2053         0.012444   
     87. D(H  13,C   2,C   1,C   0)     -0.9258         0.039013   
     88. D(C   3,C   2,C   1,C   6)     -0.1052         0.039013   
     89. D(C   3,C   2,C   1,C   0)    179.7169         0.039013   
     90. D(H  13,C   2,C   1,C   6)    179.2520         0.039013   
     91. D(H  15,C   3,C   2,C   1)    156.3336         0.012632   
     92. D(H  14,C   3,C   2,C   1)    -89.0232         0.012632   
     93. D(C   4,C   3,C   2,H  13)   -141.5814         0.012632   
     94. D(H  14,C   3,C   2,H  13)     91.6101         0.012632   
     95. D(C   4,C   3,C   2,C   1)     37.7853         0.012632   
     96. D(C   5,C   4,C   3,C   2)    -35.5478         0.010179   
     97. D(C   7,C   4,C   3,H  15)    137.0822         0.010179   
     98. D(C   7,C   4,C   3,H  14)     20.7143         0.010179   
     99. D(C   7,C   4,C   3,C   2)   -104.2336         0.010179   
    100. D(C   5,C   4,C   3,H  15)   -154.2320         0.010179   
    101. D(C   5,C   4,C   3,H  14)     89.4001         0.010179   
    102. D(H  17,C   5,C   4,C   3)    139.0278         0.009976   
    103. D(C   7,C   5,C   4,H  16)    109.2507         0.009976   
    104. D(C   7,C   5,C   4,C   3)   -111.7527         0.009976   
    105. D(C   6,C   5,C   4,C   7)    111.6851         0.009976   
    106. D(C   6,C   5,C   4,C   3)     -0.0676         0.009976   
    107. D(C   6,C   5,C   4,H  16)   -139.0642         0.009976   
    108. D(H  18,C   6,C   1,C   2)     89.0404         0.011915   
    109. D(H  18,C   6,C   1,C   0)    -90.7804         0.011915   
    110. D(C   5,C   6,C   1,C   2)    -37.6427         0.011915   
    111. D(H  19,C   6,C   1,C   0)     24.1729         0.011915   
    112. D(C   5,C   6,C   1,C   0)    142.5365         0.011915   
    113. D(H  18,C   6,C   5,H  17)    133.9659         0.010069   
    114. D(H  18,C   6,C   5,C   7)    -20.2216         0.010069   
    115. D(H  18,C   6,C   5,C   4)    -89.0058         0.010069   
    116. D(C   1,C   6,C   5,H  17)   -101.2536         0.010069   
    117. D(C   1,C   6,C   5,C   7)    104.5588         0.010069   
    118. D(C   1,C   6,C   5,C   4)     35.7747         0.010069   
    119. D(C   9,C   7,C   5,C   4)    109.8636         0.010573   
    120. D(C   8,C   7,C   5,H  17)     -3.9308         0.010573   
    121. D(C   8,C   7,C   5,C   4)   -105.4235         0.010573   
    122. D(C   4,C   7,C   5,H  17)    101.4927         0.010573   
    123. D(C   4,C   7,C   5,C   6)   -104.2348         0.010573   
    124. D(C   9,C   7,C   4,C   3)     -5.8964         0.010560   
    125. D(C   8,C   7,C   4,H  16)      3.9228         0.010560   
    126. D(C   8,C   7,C   4,C   5)    105.4348         0.010560   
    127. D(C   8,C   7,C   5,C   6)    150.3417         0.010573   
    128. D(C   8,C   7,C   4,C   3)   -150.5634         0.010560   
    129. D(C   5,C   7,C   4,H  16)   -101.5119         0.010560   
    130. D(C   5,C   7,C   4,C   3)    104.0019         0.010560   
    131. D(H  21,C   8,C   7,C   5)    153.9125         0.010943   
    132. D(H  21,C   8,C   7,C   4)     86.7870         0.010943   
    133. D(H  20,C   8,C   7,C   9)    179.9939         0.010943   
    134. D(H  20,C   8,C   7,C   5)     33.5310         0.010943   
    135. D(H  21,C   8,C   7,C   9)    -59.6246         0.010943   
    136. D(H  20,C   8,C   7,C   4)    -33.5945         0.010943   
    137. D(H  24,C   9,C   7,C   8)    179.9529         0.010342   
    138. D(H  24,C   9,C   7,C   5)    -35.6410         0.010342   
    139. D(H  24,C   9,C   7,C   4)     35.5955         0.010342   
    140. D(H  23,C   9,C   7,C   8)     58.9820         0.010342   
    141. D(H  23,C   9,C   7,C   5)   -156.6119         0.010342   
    142. D(H  23,C   9,C   7,C   4)    -85.3755         0.010342   
    -----------------------------------------------------------------

Number of atoms                         .... 26
Number of degrees of freedom            .... 142


         *************************************************************
         *                GEOMETRY OPTIMIZATION CYCLE   1            *
         *************************************************************
---------------------------------
CARTESIAN COORDINATES (ANGSTROEM)
---------------------------------
  C      3.398429   -0.579076   -0.100016
  C      1.951492   -0.186152   -0.227456
  C      1.616856    0.860118   -1.001392
  C      0.186995    1.290794   -1.168411
  C     -0.611231    1.156673    0.145475
  C     -0.237657   -0.047843    1.040005
  C      0.884809   -0.965152    0.506162
  C     -1.605624   -0.000210    0.339514
  C     -2.784750    0.321056    1.264382
  C     -1.917666   -0.960717   -0.824225
  H      3.517207   -1.478162    0.540225
  H      3.815132   -0.809458   -1.103388
  H      3.975555    0.255275    0.351659
  H      2.390655    1.423474   -1.516569
  H     -0.272355    0.750720   -2.016422
  H      0.182145    2.361878   -1.461287
  H     -0.791109    2.083373    0.732939
  H     -0.212632    0.216415    2.119763
  H      0.510923   -1.783251   -0.136313
  H      1.338951   -1.468318    1.385895
  H     -2.500990    1.016807    2.083444
  H     -3.600646    0.789653    0.675193
  H     -3.164944   -0.617412    1.719492
  H     -2.721210   -0.520940   -1.451117
  H     -1.062761   -1.186677   -1.486819
  H     -2.285574   -1.922866   -0.410732

----------------------------
CARTESIAN COORDINATES (A.U.)
----------------------------
  NO LB      ZA    FRAG     MASS         X           Y           Z
   0 C     4.0000*   0    12.011    6.422100   -1.094295   -0.189003
   1 C     4.0000*   0    12.011    3.687785   -0.351776   -0.429830
   2 C     4.0000*   0    12.011    3.055415    1.625387   -1.892357
   3 C     4.0000*   0    12.011    0.353369    2.439247   -2.207977
   4 C     4.0000*   0    12.011   -1.155059    2.185795    0.274908
   5 C     4.0000*   0    12.011   -0.449107   -0.090410    1.965325
   6 C     4.0000*   0    12.011    1.672047   -1.823873    0.956508
   7 C     4.0000*   0    12.011   -3.034190   -0.000397    0.641588
   8 C     4.0000*   0    12.011   -5.262415    0.606708    2.389336
   9 C     4.0000*   0    12.011   -3.623864   -1.815492   -1.557560
  10 H     1.0000    0     1.008    6.646558   -2.793321    1.020877
  11 H     1.0000    0     1.008    7.209555   -1.529654   -2.085101
  12 H     1.0000    0     1.008    7.512710    0.482400    0.664539
  13 H     1.0000    0     1.008    4.517683    2.689976   -2.865900
  14 H     1.0000    0     1.008   -0.514676    1.418655   -3.810485
  15 H     1.0000    0     1.008    0.344204    4.463303   -2.761432
  16 H     1.0000    0     1.008   -1.494979    3.937004    1.385054
  17 H     1.0000    0     1.008   -0.401816    0.408965    4.005772
  18 H     1.0000    0     1.008    0.965505   -3.369856   -0.257594
  19 H     1.0000    0     1.008    2.530251   -2.774719    2.618962
  20 H     1.0000    0     1.008   -4.726186    1.921487    3.937139
  21 H     1.0000    0     1.008   -6.804235    1.492228    1.275930
  22 H     1.0000    0     1.008   -5.980877   -1.166740    3.249369
  23 H     1.0000    0     1.008   -5.142342   -0.984434   -2.742214
  24 H     1.0000    0     1.008   -2.008327   -2.242495   -2.809681
  25 H     1.0000    0     1.008   -4.319109   -3.633690   -0.776171
* core charge reduced due to ECP

--------------------------------
INTERNAL COORDINATES (ANGSTROEM)
--------------------------------
 C      0   0   0     0.000000000000     0.00000000     0.00000000
 C      1   0   0     1.504744797414     0.00000000     0.00000000
 C      2   1   0     1.343740710663   119.44330920     0.00000000
 C      3   2   1     1.502624251987   121.61162249   179.71693705
 C      4   3   2     1.543194612067   111.87992197    37.78527092
 C      5   4   3     1.546156605468   115.80518805   324.45219590
 C      2   1   3     1.510909988190   120.20612653   179.82242150
 C      6   5   4     1.537624875208    59.82404064   248.24731353
 C      8   6   5     1.532622192210   114.58502986   254.57650335
 C      8   6   5     1.540854427561   120.32646879   109.86363084
 H      1   2   3     1.110122689959   111.29762763   181.98660637
 H      1   2   3     1.110618128124   109.78171376   301.79468020
 H      1   2   3     1.110507233971   109.75440545    61.78702899
 H      3   2   1     1.086987679997   119.94931441   359.07420211
 H      4   3   2     1.105352886682   109.91823678   270.97675909
 H      4   3   2     1.110414701331   108.05542644   156.33359276
 H      5   4   3     1.111864621337   117.45765513   101.36543460
 H      6   5   4     1.111906416814   112.46462982   139.02776284
 H      7   2   1     1.105373620285   109.76546500   269.21961775
 H      7   2   1     1.110563429530   109.23989336    24.17294770
 H      9   8   6     1.111508772545   112.30160974    33.53096289
 H      9   8   6     1.110141031106   109.48994354   153.91253049
 H      9   8   6     1.110132774383   109.49184572   273.14875404
 H     10   8   6     1.109991148311   109.03680604   203.38809173
 H     10   8   6     1.104966646312   115.06721008   324.35903306
 H     10   8   6     1.109983538488   109.03291615    85.33651534

---------------------------
INTERNAL COORDINATES (A.U.)
---------------------------
 C      0   0   0     0.000000000000     0.00000000     0.00000000
 C      1   0   0     2.843555568556     0.00000000     0.00000000
 C      2   1   0     2.539301938153   119.44330920     0.00000000
 C      3   2   1     2.839548318443   121.61162249   179.71693705
 C      4   3   2     2.916215188150   111.87992197    37.78527092
 C      5   4   3     2.921812544488   115.80518805   324.45219590
 C      2   1   3     2.855206090686   120.20612653   179.82242150
 C      6   5   4     2.905689910848    59.82404064   248.24731353
 C      8   6   5     2.896236210048   114.58502986   254.57650335
 C      8   6   5     2.911792880330   120.32646879   109.86363084
 H      1   2   3     2.097827859074   111.29762763   181.98660637
 H      1   2   3     2.098764101522   109.78171376   301.79468020
 H      1   2   3     2.098554541944   109.75440545    61.78702899
 H      3   2   1     2.054109026141   119.94931441   359.07420211
 H      4   3   2     2.088814237169   109.91823678   270.97675909
 H      4   3   2     2.098379680596   108.05542644   156.33359276
 H      5   4   3     2.101119632322   117.45765513   101.36543460
 H      6   5   4     2.101198614329   112.46462982   139.02776284
 H      7   2   1     2.088853418000   109.76546500   269.21961775
 H      7   2   1     2.098660736160   109.23989336    24.17294770
 H      9   8   6     2.100447175561   112.30160974    33.53096289
 H      9   8   6     2.097862518820   109.48994354   153.91253049
 H      9   8   6     2.097846915875   109.49184572   273.14875404
 H     10   8   6     2.097579281385   109.03680604   203.38809173
 H     10   8   6     2.088084348646   115.06721008   324.35903306
 H     10   8   6     2.097564900903   109.03291615    85.33651534

---------------------
BASIS SET INFORMATION
---------------------
There are 2 groups of distinct atoms

 Group   1 Type C   : 6s6p2d contracted to 2s2p1d pattern {42/42/2}
 Group   2 Type H   : 8s2p contracted to 2s1p pattern {53/2}

Atom   0C    basis set group =>   1
Atom   1C    basis set group =>   1
Atom   2C    basis set group =>   1
Atom   3C    basis set group =>   1
Atom   4C    basis set group =>   1
Atom   5C    basis set group =>   1
Atom   6C    basis set group =>   1
Atom   7C    basis set group =>   1
Atom   8C    basis set group =>   1
Atom   9C    basis set group =>   1
Atom  10H    basis set group =>   2
Atom  11H    basis set group =>   2
Atom  12H    basis set group =>   2
Atom  13H    basis set group =>   2
Atom  14H    basis set group =>   2
Atom  15H    basis set group =>   2
Atom  16H    basis set group =>   2
Atom  17H    basis set group =>   2
Atom  18H    basis set group =>   2
Atom  19H    basis set group =>   2
Atom  20H    basis set group =>   2
Atom  21H    basis set group =>   2
Atom  22H    basis set group =>   2
Atom  23H    basis set group =>   2
Atom  24H    basis set group =>   2
Atom  25H    basis set group =>   2
---------------------------------
AUXILIARY/J BASIS SET INFORMATION
---------------------------------
There are 2 groups of distinct atoms

 Group   1 Type C   : 12s5p4d2f1g contracted to 6s4p3d1f1g pattern {711111/2111/211/2/1}
 Group   2 Type H   : 5s2p1d contracted to 3s1p1d pattern {311/2/1}

Atom   0C    basis set group =>   1
Atom   1C    basis set group =>   1
Atom   2C    basis set group =>   1
Atom   3C    basis set group =>   1
Atom   4C    basis set group =>   1
Atom   5C    basis set group =>   1
Atom   6C    basis set group =>   1
Atom   7C    basis set group =>   1
Atom   8C    basis set group =>   1
Atom   9C    basis set group =>   1
Atom  10H    basis set group =>   2
Atom  11H    basis set group =>   2
Atom  12H    basis set group =>   2
Atom  13H    basis set group =>   2
Atom  14H    basis set group =>   2
Atom  15H    basis set group =>   2
Atom  16H    basis set group =>   2
Atom  17H    basis set group =>   2
Atom  18H    basis set group =>   2
Atom  19H    basis set group =>   2
Atom  20H    basis set group =>   2
Atom  21H    basis set group =>   2
Atom  22H    basis set group =>   2
Atom  23H    basis set group =>   2
Atom  24H    basis set group =>   2
Atom  25H    basis set group =>   2
-------------------------
ECP PARAMETER INFORMATION
-------------------------

 Group 1, Type C  ECP vDZP-ECP (replacing 2 core electrons, lmax=3)

Atom   0C    ECP group =>   1
Atom   1C    ECP group =>   1
Atom   2C    ECP group =>   1
Atom   3C    ECP group =>   1
Atom   4C    ECP group =>   1
Atom   5C    ECP group =>   1
Atom   6C    ECP group =>   1
Atom   7C    ECP group =>   1
Atom   8C    ECP group =>   1
Atom   9C    ECP group =>   1



           ************************************************************
           *        Program running with 40 parallel MPI-processes    *
           *              working on a common directory               *
           ************************************************************
------------------------------------------------------------------------------
                             ORCA STARTUP CALCULATIONS
                           -- RI-GTO INTEGRALS CHOSEN --
------------------------------------------------------------------------------
------------------------------------------------------------------------------
                   ___                                                        
                  /   \      - P O W E R E D   B Y -                         
                 /     \                                                     
                 |  |  |   _    _      __       _____    __    __             
                 |  |  |  | |  | |    /  \     |  _  \  |  |  /  |          
                  \  \/   | |  | |   /    \    | | | |  |  | /  /          
                 / \  \   | |__| |  /  /\  \   | |_| |  |  |/  /          
                |  |  |   |  __  | /  /__\  \  |    /   |      \           
                |  |  |   | |  | | |   __   |  |    \   |  |\   \          
                \     /   | |  | | |  |  |  |  | |\  \  |  | \   \       
                 \___/    |_|  |_| |__|  |__|  |_| \__\ |__|  \__/        
                                                                              
                      - O R C A' S   B I G   F R I E N D -                    
                                      &                                       
                       - I N T E G R A L  F E E D E R -                       
                                                                              
 v1 FN, 2020, v2 2021, v3 2022-2024                                           
------------------------------------------------------------------------------


----------------------
SHARK INTEGRAL PACKAGE
----------------------

Number of atoms                             ...     26
Number of basis functions                   ...    210
Number of shells                            ...     98
Maximum angular momentum                    ...      2
Integral batch strategy                     ... SHARK/LIBINT Hybrid
RI-J (if used) integral strategy            ... SPLIT-RIJ (Revised 2003 algorithm where possible)
Printlevel                                  ...      1
Contraction scheme used                     ... SEGMENTED contraction
Prescreening option                         ... SCHWARTZ
   Thresh                                   ... 2.500e-11
   Tcut                                     ... 2.500e-12
   Tpresel                                  ... 2.500e-12 
Coulomb Range Separation                    ... NOT USED
Exchange Range Separation                   ... Long Range
   Mu parameter                             ... 3.000e-01
   Scaling (regular/separated)              ... 1.670e-01 8.330e-01
Multipole approximations                    ... NOT USED
Finite Nucleus Model                        ... NOT USED
CABS basis                                  ... NOT available
Auxiliary Coulomb fitting basis             ... AVAILABLE
   # of basis functions in Aux-J            ...    666
   # of shells in Aux-J                     ...    230
   Maximum angular momentum in Aux-J        ...      4
Auxiliary J/K fitting basis                 ... NOT available
Auxiliary Correlation fitting basis         ... NOT available
Auxiliary 'external' fitting basis          ... NOT available

Checking pre-screening integrals            ... done (  0.0 sec) Dimension = 98
Check shell pair data                       ... done (  0.0 sec)
Shell pair information
Shell pair cut-off parameter TPreSel        ...   2.5e-12
Total number of shell pairs                 ...      4851
Shell pairs after pre-screening             ...      4849
Total number of primitive shell pairs       ...     45524
Primitive shell pairs kept                  ...     37440
          la=0 lb=0:   1378 shell pairs
          la=1 lb=0:   1872 shell pairs
          la=1 lb=1:    664 shell pairs
          la=2 lb=0:    520 shell pairs
          la=2 lb=1:    360 shell pairs
          la=2 lb=2:     55 shell pairs

Calculating one electron integrals          ... done (  0.0 sec)
Calculating ECP integrals                   ... done (  0.1 sec)
Calculating RI/J V-Matrix + Cholesky decomp.... done (  0.0 sec)
Calculating Nuclear repulsion               ... done (  0.0 sec) ENN=    291.222989327679 Eh

Diagonalization of the overlap matrix:
Smallest eigenvalue                        ... 1.086e-03
Time for diagonalization                   ...    0.006 sec
Threshold for overlap eigenvalues          ... 1.000e-07
Number of eigenvalues below threshold      ... 0
Time for construction of square roots      ...    0.004 sec
Total time needed                          ...    0.015 sec

-------------------
DFT GRID GENERATION
-------------------

General Integration Accuracy     IntAcc      ... 4.388
Radial Grid Type                 RadialGrid  ... OptM3 with GC (2021)
Angular Grid (max. ang.)         AngularGrid ... 4 (Lebedev-302)
Angular grid pruning method      GridPruning ... 4 (adaptive)
Weight generation scheme         WeightScheme... mBecke (2022)
Basis function cutoff            BFCut       ... 1.0000e-11
Integration weight cutoff        WCut        ... 1.0000e-14
Partially contracted basis set               ... off
Rotationally invariant grid construction     ... off
Angular grids for H and He will be reduced by one unit

Total number of grid points                  ...   110701
Total number of batches                      ...     1745
Average number of points per batch           ...       63
Average number of grid points per atom       ...     4258

--------------------
COSX GRID GENERATION
--------------------

GRIDX 1
-------
General Integration Accuracy     IntAcc      ... 3.816
Radial Grid Type                 RadialGrid  ... OptM3 with GC (2021)
Angular Grid (max. ang.)         AngularGrid ... 1 (Lebedev-50)
Angular grid pruning method      GridPruning ... 4 (adaptive)
Weight generation scheme         WeightScheme... mBecke (2022)
Basis function cutoff            BFCut       ... 1.0000e-11
Integration weight cutoff        WCut        ... 1.0000e-14
Partially contracted basis set               ... on
Rotationally invariant grid construction     ... off
Angular grids for H and He will be reduced by one unit

Total number of grid points                  ...    14191
Total number of batches                      ...      128
Average number of points per batch           ...      110
Average number of grid points per atom       ...      546
UseSFitting                                  ... on

GRIDX 2
-------
General Integration Accuracy     IntAcc      ... 4.020
Radial Grid Type                 RadialGrid  ... OptM3 with GC (2021)
Angular Grid (max. ang.)         AngularGrid ... 2 (Lebedev-110)
Angular grid pruning method      GridPruning ... 4 (adaptive)
Weight generation scheme         WeightScheme... mBecke (2022)
Basis function cutoff            BFCut       ... 1.0000e-11
Integration weight cutoff        WCut        ... 1.0000e-14
Partially contracted basis set               ... on
Rotationally invariant grid construction     ... off
Angular grids for H and He will be reduced by one unit

Total number of grid points                  ...    29533
Total number of batches                      ...      243
Average number of points per batch           ...      121
Average number of grid points per atom       ...     1136
UseSFitting                                  ... on

GRIDX 3
-------
General Integration Accuracy     IntAcc      ... 4.338
Radial Grid Type                 RadialGrid  ... OptM3 with GC (2021)
Angular Grid (max. ang.)         AngularGrid ... 3 (Lebedev-194)
Angular grid pruning method      GridPruning ... 4 (adaptive)
Weight generation scheme         WeightScheme... mBecke (2022)
Basis function cutoff            BFCut       ... 1.0000e-11
Integration weight cutoff        WCut        ... 1.0000e-14
Partially contracted basis set               ... on
Rotationally invariant grid construction     ... off
Angular grids for H and He will be reduced by one unit

Total number of grid points                  ...    64302
Total number of batches                      ...      515
Average number of points per batch           ...      124
Average number of grid points per atom       ...     2473
UseSFitting                                  ... on
Initializing property integral containers    ... done (  0.0 sec)

SHARK setup successfully completed in   3.4 seconds

Maximum memory used throughout the entire STARTUP-calculation: 31.7 MB


           ************************************************************
           *        Program running with 40 parallel MPI-processes    *
           *              working on a common directory               *
           ************************************************************
-------------------------------------------------------------------------------
                                 ORCA GUESS
                   Start orbitals & Density for SCF / CASSCF
-------------------------------------------------------------------------------

------------
SCF SETTINGS
------------
Hamiltonian:
 Density Functional     Method          .... DFT(GTOs)
 Exchange Functional    Exchange        .... WB97X-V
 Correlation Functional Correlation     .... WB97X-V
 Gradients option       PostSCFGGA      .... off
 Hybrid DFT is turned on
   Fraction HF Exchange ScalHFX         ....  0.167000
   Scaling of DF-GGA-X  ScalDFX         ....  0.000000
   Scaling of DF-GGA-C  ScalDFC         ....  1.000000
   Scaling of DF-LDA-C  ScalLDAC        ....  1.000000
   Perturbative correction              ....  0.000000
 Long-range corrected/Screened/Range-Separated Hybrid DFT is turned on
   Amount of maximum screened exact exchange              ....  0.833000
   Range separation parameter mu (erf(mu*r12)/r12)        ....  0.300000
   NL short-range parameter             ....  6.000000
   NL long-range parameter              ....  0.010000
 RI-approximation to the Coulomb term is turned on
   Number of AuxJ basis functions       .... 666
   RIJ-COSX (HFX calculated with COS-X)).... on


General Settings:
 Integral files         IntName         .... ./output/delta_3_carene/delta_3_carene
 Hartree-Fock type      HFTyp           .... RHF
 Total Charge           Charge          ....    0
 Multiplicity           Mult            ....    1
 Number of Electrons    NEL             ....   56
 Basis Dimension        Dim             ....  210
 Nuclear Repulsion      ENuc            ....    291.2229893277 Eh

Convergence Acceleration:
 AO-DIIS                CNVDIIS         .... on
   Start iteration      DIISMaxIt       ....    12
   Startup error        DIISStart       ....  0.200000
   # of expansion vecs  DIISMaxEq       ....     5
   Bias factor          DIISBfac        ....   1.050
   Max. coefficient     DIISMaxC        ....  10.000
 MO-DIIS                CNVKDIIS        .... off
 Trust-Rad. Augm. Hess. CNVTRAH         .... auto
   Auto Start mean grad. ratio tolernc. ....  1.125000
   Auto Start start iteration           ....    50
   Auto Start num. interpolation iter.  ....    10
   Max. Number of Micro iterations      ....    24
   Max. Number of Macro iterations      .... Maxiter - #DIIS iter
   Number of Davidson start vectors     ....     2
   Converg. threshold    (grad. norm)   ....   1.000e-05
   Grad. Scal. Fac. for Micro threshold ....   0.100
   Minimum threshold for Micro iter.    ....   1.000e-02
   NR start threshold (gradient norm)   ....   1.000e-04
   Initial trust radius                 ....   0.400
   Minimum AH scaling param. (alpha)    ....   1.000
   Maximum AH scaling param. (alpha)    .... 1000.000
   Quad. conv. algorithm                .... NR
   White noise on init. David. guess    .... on
   Maximum white noise                  ....   0.010
   Pseudo random numbers                .... off
   Inactive MOs                         .... canonical
   Orbital update algorithm             .... Taylor
   Preconditioner                       .... Diag
   Full preconditioner red. dimension   ....   250
 SOSCF                  CNVSOSCF        .... on
   Start iteration      SOSCFMaxIt      ....   150
   Startup grad/error   SOSCFStart      ....  0.003300
   Hessian update       SOSCFHessUp     .... L-BFGS
 Level Shifting         CNVShift        .... on
   Level shift para.    LevelShift      ....    0.2500
   Turn off err/grad.   ShiftErr        ....    0.0010
 Zerner damping         CNVZerner       .... off
 Static damping         CNVDamp         .... on
   Fraction old density DampFac         ....    0.7000
   Max. Damping (<1)    DampMax         ....    0.9800
   Min. Damping (>=0)   DampMin         ....    0.0000
   Turn off err/grad.   DampErr         ....    0.1000

SCF Procedure:
 Maximum # iterations   MaxIter         ....   125
 SCF integral mode      SCFMode         .... Direct
   Integral package                     .... SHARK and LIBINT hybrid scheme
 Reset frequency        DirectResetFreq ....    20
 Integral Threshold     Thresh          ....  2.500e-11 Eh
 Primitive CutOff       TCut            ....  2.500e-12 Eh

Convergence Tolerance:
 Convergence Check Mode ConvCheckMode   .... Total+1el-Energy
 Convergence forced     ConvForced      .... 0
 Energy Change          TolE            ....  1.000e-08 Eh
 1-El. energy change                    ....  1.000e-05 Eh
 Orbital Gradient       TolG            ....  1.000e-05
 Orbital Rotation angle TolX            ....  1.000e-05
 DIIS Error             TolErr          ....  5.000e-07

------------------------------
INITIAL GUESS: MODEL POTENTIAL
------------------------------
Loading Hartree-Fock densities                     ... done
Atomic calculation to generate a density for atom 0 (C  with ECP)
  Multiplicity assumed   :    1
  Atomic configuration   : 1s2 2s2 2p2 
  Number of open shells  : 1
  Command: /home/aspe232/Project/Software/ORCA/6_0_1/build/orca ./output/delta_3_carene/delta_3_carene_atom6.inp "" > ./output/delta_3_carene/delta_3_carene_atom6.out
Returned from the atomic calculation with res=0
Calculating cut-offs                               ... done
Initializing the effective Hamiltonian             ... done
Setting up the integral package (SHARK)            ... done
Starting the Coulomb interaction                   ... done (   0.0 sec)
Making the grid                                    ... done (   0.7 sec)
Mapping shells                                     ... done
Starting the XC term evaluation                    ... done (   0.0 sec)
  promolecular density results
     # of electrons  =     75.989584499
     EX              =    -36.905328975
     EC              =     -3.028079849
     EX+EC           =    -39.933408824
Transforming the Hamiltonian                       ... done (   0.0 sec)
Diagonalizing the Hamiltonian                      ... done (   0.0 sec)
Back transforming the eigenvectors                 ... done (   0.0 sec)
Now organizing SCF variables                       ... done
                      ------------------
                      INITIAL GUESS DONE (   1.6 sec)
                      ------------------
             **** ENERGY FILE WAS UPDATED (./output/delta_3_carene/delta_3_carene.en.tmp) ****
Finished Guess after   2.1 sec
Maximum memory used throughout the entire GUESS-calculation: 19.9 MB


           ************************************************************
           *        Program running with 40 parallel MPI-processes    *
           *              working on a common directory               *
           ************************************************************

-------------------------------------------------------------------------------------------
                                      ORCA LEAN-SCF
                              memory conserving SCF solver
-------------------------------------------------------------------------------------------

----------------------------------------D-I-I-S--------------------------------------------
Iteration    Energy (Eh)           Delta-E    RMSDP     MaxDP     DIISErr   Damp  Time(sec)
-------------------------------------------------------------------------------------------
               ***  Starting incremental Fock matrix formation  ***
    1    -66.1009194737548569     0.00e+00  4.02e-03  7.25e-02  1.87e-01  0.700   4.0
    2    -66.2821620656644086    -1.81e-01  2.95e-03  5.19e-02  1.13e-01  0.700   3.7
                               ***Turning on AO-DIIS***
    3    -66.3766499800434531    -9.45e-02  1.50e-03  2.73e-02  5.76e-02  0.700   3.2
    4    -66.4322055417571846    -5.56e-02  3.19e-03  6.14e-02  3.65e-02  0.000   3.4
    5    -66.5486340164039802    -1.16e-01  2.46e-04  3.96e-03  4.51e-03  0.000   3.4
                              *** Initializing SOSCF ***
---------------------------------------S-O-S-C-F--------------------------------------
Iteration    Energy (Eh)           Delta-E    RMSDP     MaxDP     MaxGrad    Time(sec)
--------------------------------------------------------------------------------------
    6    -66.5489410894468278    -3.07e-04  1.16e-04  1.48e-03  1.06e-03     3.1
               *** Restarting incremental Fock matrix formation ***
    7    -66.5489399398716159     1.15e-06  6.32e-05  7.45e-04  2.89e-04     3.9
    8    -66.5489481082379370    -8.17e-06  3.62e-05  3.86e-04  1.51e-04     4.3
    9    -66.5489494987833723    -1.39e-06  1.05e-05  1.38e-04  4.31e-05     3.6
   10    -66.5489496781934236    -1.79e-07  2.45e-06  5.36e-05  2.30e-05     3.8
   11    -66.5489496787421331    -5.49e-10  9.27e-07  1.82e-05  6.25e-06     3.3
                 **** Energy Check signals convergence ****

               *****************************************************
               *                     SUCCESS                       *
               *           SCF CONVERGED AFTER  11 CYCLES          *
               *****************************************************

Recomputing exchange energy using gridx3       ... done (    3.536 sec)
Old exchange energy                            :    -10.579827063 Eh
New exchange energy                            :    -10.579841812 Eh
Exchange energy change after final integration :     -0.000014749 Eh
Total energy after final integration           :    -66.548964427 Eh
             **** ENERGY FILE WAS UPDATED (./output/delta_3_carene/delta_3_carene.en.tmp) ****

----------------
TOTAL SCF ENERGY
----------------

Total Energy       :        -66.54896442729836 Eh           -1810.88939 eV

Components:
Nuclear Repulsion  :        291.22298932767910 Eh            7924.58042 eV
Electronic Energy  :       -357.77193900642123 Eh           -9735.46940 eV
One Electron Energy:       -675.06113844099832 Eh          -18369.34746 eV
Two Electron Energy:        317.28919943457709 Eh            8633.87805 eV

Virial components:
Potential Energy   :       -118.42919756217501 Eh           -3222.62230 eV
Kinetic Energy     :         51.88023313487665 Eh            1411.73291 eV
Virial Ratio       :          2.28274220075855

DFT components:
N(Alpha)           :       27.999981309863 electrons
N(Beta)            :       27.999981309863 electrons
N(Total)           :       55.999962619726 electrons
E(X)               :      -10.695745607373 Eh       
E(C)               :       -2.085128092719 Eh       
E(XC)              :      -12.780873700091 Eh       

---------------
SCF CONVERGENCE
---------------

  Last Energy change         ...    5.4871e-10  Tolerance :   1.0000e-08
  Last MAX-Density change    ...    1.8245e-05  Tolerance :   1.0000e-07
  Last RMS-Density change    ...    9.2681e-07  Tolerance :   5.0000e-09
  Last DIIS Error            ...    1.0550e-03  Tolerance :   5.0000e-07
  Last Orbital Gradient      ...    6.2511e-06  Tolerance :   1.0000e-05
  Last Orbital Rotation      ...    7.7644e-06  Tolerance :   1.0000e-05


----------------
ORBITAL ENERGIES
----------------

  NO   OCC          E(Eh)            E(eV) 
   0   2.0000      -1.008291       -27.4370 
   1   2.0000      -0.941546       -25.6208 
   2   2.0000      -0.876342       -23.8465 
   3   2.0000      -0.857105       -23.3230 
   4   2.0000      -0.825850       -22.4725 
   5   2.0000      -0.808463       -21.9994 
   6   2.0000      -0.754674       -20.5357 
   7   2.0000      -0.688811       -18.7435 
   8   2.0000      -0.651641       -17.7320 
   9   2.0000      -0.609951       -16.5976 
  10   2.0000      -0.592507       -16.1229 
  11   2.0000      -0.572464       -15.5775 
  12   2.0000      -0.551711       -15.0128 
  13   2.0000      -0.548817       -14.9341 
  14   2.0000      -0.533100       -14.5064 
  15   2.0000      -0.516443       -14.0531 
  16   2.0000      -0.500770       -13.6266 
  17   2.0000      -0.491607       -13.3773 
  18   2.0000      -0.489164       -13.3108 
  19   2.0000      -0.485660       -13.2155 
  20   2.0000      -0.467340       -12.7170 
  21   2.0000      -0.465919       -12.6783 
  22   2.0000      -0.450784       -12.2665 
  23   2.0000      -0.437805       -11.9133 
  24   2.0000      -0.429156       -11.6779 
  25   2.0000      -0.357939        -9.7400 
  26   2.0000      -0.353168        -9.6102 
  27   2.0000      -0.319612        -8.6971 
  28   0.0000       0.085431         2.3247 
  29   0.0000       0.092389         2.5140 
  30   0.0000       0.100301         2.7293 
  31   0.0000       0.104058         2.8316 
  32   0.0000       0.108355         2.9485 
  33   0.0000       0.125344         3.4108 
  34   0.0000       0.128055         3.4845 
  35   0.0000       0.135040         3.6746 
  36   0.0000       0.141449         3.8490 
  37   0.0000       0.150045         4.0829 
  38   0.0000       0.160439         4.3658 
*Only the first 10 virtual orbitals were printed.

                    ********************************
                    * MULLIKEN POPULATION ANALYSIS *
                    ********************************

-----------------------
MULLIKEN ATOMIC CHARGES
-----------------------
   0 C :   -0.100213
   1 C :   -0.056527
   2 C :   -0.010121
   3 C :   -0.085944
   4 C :   -0.051663
   5 C :   -0.050742
   6 C :   -0.069870
   7 C :   -0.098199
   8 C :   -0.053323
   9 C :   -0.059393
  10 H :    0.032219
  11 H :    0.052334
  12 H :    0.056239
  13 H :    0.010307
  14 H :    0.045816
  15 H :    0.047531
  16 H :    0.039360
  17 H :    0.037644
  18 H :    0.050582
  19 H :    0.045355
  20 H :    0.031223
  21 H :    0.035714
  22 H :    0.035007
  23 H :    0.042630
  24 H :    0.032131
  25 H :    0.041904
Sum of atomic charges:    0.0000000

--------------------------------
MULLIKEN REDUCED ORBITAL CHARGES
--------------------------------
  0 C s       :     0.959215  s :     0.959215
      pz      :     1.049878  p :     3.066975
      px      :     0.971609
      py      :     1.045488
      dz2     :     0.010396  d :     0.074024
      dxz     :     0.016972
      dyz     :     0.014432
      dx2y2   :     0.015484
      dxy     :     0.016740

  1 C s       :     1.084642  s :     1.084642
      pz      :     0.966682  p :     2.852851
      px      :     0.902641
      py      :     0.983528
      dz2     :     0.021844  d :     0.119034
      dxz     :     0.024280
      dyz     :     0.013891
      dx2y2   :     0.029240
      dxy     :     0.029779

  2 C s       :     1.024073  s :     1.024073
      pz      :     0.994929  p :     2.894524
      px      :     0.925295
      py      :     0.974300
      dz2     :     0.013928  d :     0.091524
      dxz     :     0.020824
      dyz     :     0.008736
      dx2y2   :     0.021587
      dxy     :     0.026450

  3 C s       :     0.984104  s :     0.984104
      pz      :     0.988787  p :     3.001050
      px      :     0.948943
      py      :     1.063319
      dz2     :     0.020647  d :     0.100791
      dxz     :     0.026213
      dyz     :     0.015389
      dx2y2   :     0.024882
      dxy     :     0.013660

  4 C s       :     1.067900  s :     1.067900
      pz      :     0.967372  p :     2.871559
      px      :     1.012361
      py      :     0.891826
      dz2     :     0.019920  d :     0.112204
      dxz     :     0.019313
      dyz     :     0.030355
      dx2y2   :     0.022484
      dxy     :     0.020132

  5 C s       :     1.066246  s :     1.066246
      pz      :     0.960878  p :     2.872435
      px      :     0.909592
      py      :     1.001966
      dz2     :     0.025691  d :     0.112061
      dxz     :     0.019637
      dyz     :     0.019588
      dx2y2   :     0.024813
      dxy     :     0.022333

  6 C s       :     0.988410  s :     0.988410
      pz      :     1.033892  p :     2.982295
      px      :     0.943988
      py      :     1.004414
      dz2     :     0.013104  d :     0.099165
      dxz     :     0.020320
      dyz     :     0.023306
      dx2y2   :     0.019877
      dxy     :     0.022558

  7 C s       :     1.105543  s :     1.105543
      pz      :     0.996350  p :     2.847940
      px      :     0.857334
      py      :     0.994257
      dz2     :     0.023230  d :     0.144716
      dxz     :     0.034648
      dyz     :     0.025415
      dx2y2   :     0.030701
      dxy     :     0.030722

  8 C s       :     0.961334  s :     0.961334
      pz      :     0.997468  p :     3.016109
      px      :     0.987356
      py      :     1.031285
      dz2     :     0.008236  d :     0.075880
      dxz     :     0.019051
      dyz     :     0.020242
      dx2y2   :     0.011612
      dxy     :     0.016740

  9 C s       :     0.951212  s :     0.951212
      pz      :     0.988863  p :     3.034378
      px      :     1.034002
      py      :     1.011513
      dz2     :     0.010029  d :     0.073803
      dxz     :     0.022590
      dyz     :     0.016381
      dx2y2   :     0.013552
      dxy     :     0.011251

 10 H s       :     0.923704  s :     0.923704
      pz      :     0.014850  p :     0.044076
      px      :     0.010174
      py      :     0.019052

 11 H s       :     0.903610  s :     0.903610
      pz      :     0.020931  p :     0.044056
      px      :     0.012315
      py      :     0.010810

 12 H s       :     0.899649  s :     0.899649
      pz      :     0.012465  p :     0.044112
      px      :     0.014137
      py      :     0.017511

 13 H s       :     0.940676  s :     0.940676
      pz      :     0.016114  p :     0.049017
      px      :     0.017496
      py      :     0.015406

 14 H s       :     0.908728  s :     0.908728
      pz      :     0.017904  p :     0.045456
      px      :     0.013249
      py      :     0.014302

 15 H s       :     0.909303  s :     0.909303
      pz      :     0.010722  p :     0.043166
      px      :     0.010439
      py      :     0.022005

 16 H s       :     0.915634  s :     0.915634
      pz      :     0.013797  p :     0.045005
      px      :     0.012351
      py      :     0.018858

 17 H s       :     0.917245  s :     0.917245
      pz      :     0.022557  p :     0.045111
      px      :     0.010000
      py      :     0.012554

 18 H s       :     0.903914  s :     0.903914
      pz      :     0.015308  p :     0.045504
      px      :     0.012623
      py      :     0.017572

 19 H s       :     0.911214  s :     0.911214
      pz      :     0.018382  p :     0.043432
      px      :     0.012375
      py      :     0.012674

 20 H s       :     0.924700  s :     0.924700
      pz      :     0.017876  p :     0.044076
      px      :     0.010462
      py      :     0.015738

 21 H s       :     0.921206  s :     0.921206
      pz      :     0.013169  p :     0.043080
      px      :     0.017450
      py      :     0.012461

 22 H s       :     0.921911  s :     0.921911
      pz      :     0.012296  p :     0.043081
      px      :     0.011581
      py      :     0.019205

 23 H s       :     0.914111  s :     0.914111
      pz      :     0.014425  p :     0.043259
      px      :     0.017177
      py      :     0.011657

 24 H s       :     0.920862  s :     0.920862
      pz      :     0.015982  p :     0.047007
      px      :     0.019094
      py      :     0.011932

 25 H s       :     0.914836  s :     0.914836
      pz      :     0.011371  p :     0.043260
      px      :     0.011561
      py      :     0.020328



                     *******************************
                     * LOEWDIN POPULATION ANALYSIS *
                     *******************************

----------------------
LOEWDIN ATOMIC CHARGES
----------------------
   0 C :   -0.119854
   1 C :   -0.049406
   2 C :   -0.056647
   3 C :   -0.091215
   4 C :   -0.040516
   5 C :   -0.040627
   6 C :   -0.079671
   7 C :   -0.065828
   8 C :   -0.112935
   9 C :   -0.109545
  10 H :    0.047675
  11 H :    0.053696
  12 H :    0.054976
  13 H :    0.035389
  14 H :    0.047547
  15 H :    0.052549
  16 H :    0.043670
  17 H :    0.043599
  18 H :    0.050414
  19 H :    0.052339
  20 H :    0.049990
  21 H :    0.045741
  22 H :    0.045451
  23 H :    0.050126
  24 H :    0.043428
  25 H :    0.049652

-------------------------------
LOEWDIN REDUCED ORBITAL CHARGES
-------------------------------
  0 C s       :     0.777721  s :     0.777721
      pz      :     1.064327  p :     3.104198
      px      :     0.983174
      py      :     1.056698
      dz2     :     0.032708  d :     0.237934
      dxz     :     0.054260
      dyz     :     0.047366
      dx2y2   :     0.048929
      dxy     :     0.054671

  1 C s       :     0.796723  s :     0.796723
      pz      :     0.935567  p :     2.873629
      px      :     0.961296
      py      :     0.976766
      dz2     :     0.061710  d :     0.379054
      dxz     :     0.079279
      dyz     :     0.051221
      dx2y2   :     0.090069
      dxy     :     0.096775

  2 C s       :     0.805136  s :     0.805136
      pz      :     0.966147  p :     2.949959
      px      :     0.985467
      py      :     0.998345
      dz2     :     0.035734  d :     0.301552
      dxz     :     0.070804
      dyz     :     0.036856
      dx2y2   :     0.066293
      dxy     :     0.091864

  3 C s       :     0.762174  s :     0.762174
      pz      :     0.992652  p :     3.015120
      px      :     0.972716
      py      :     1.049753
      dz2     :     0.062180  d :     0.313922
      dxz     :     0.080811
      dyz     :     0.050805
      dx2y2   :     0.077431
      dxy     :     0.042695

  4 C s       :     0.764912  s :     0.764912
      pz      :     0.971038  p :     2.922991
      px      :     0.987142
      py      :     0.964810
      dz2     :     0.063453  d :     0.352614
      dxz     :     0.059149
      dyz     :     0.095999
      dx2y2   :     0.076170
      dxy     :     0.057842

  5 C s       :     0.764371  s :     0.764371
      pz      :     1.005879  p :     2.924148
      px      :     0.944786
      py      :     0.973483
      dz2     :     0.089299  d :     0.352109
      dxz     :     0.060621
      dyz     :     0.056283
      dx2y2   :     0.072800
      dxy     :     0.073107

  6 C s       :     0.762628  s :     0.762628
      pz      :     1.032739  p :     3.008215
      px      :     0.975742
      py      :     0.999734
      dz2     :     0.038655  d :     0.308828
      dxz     :     0.063665
      dyz     :     0.077057
      dx2y2   :     0.059756
      dxy     :     0.069696

  7 C s       :     0.752565  s :     0.752565
      pz      :     0.974433  p :     2.876992
      px      :     0.926303
      py      :     0.976256
      dz2     :     0.074164  d :     0.436270
      dxz     :     0.101749
      dyz     :     0.076117
      dx2y2   :     0.092211
      dxy     :     0.092029

  8 C s       :     0.780580  s :     0.780580
      pz      :     1.027143  p :     3.088910
      px      :     1.003496
      py      :     1.058271
      dz2     :     0.026935  d :     0.243445
      dxz     :     0.060008
      dyz     :     0.066603
      dx2y2   :     0.036774
      dxy     :     0.053126

  9 C s       :     0.778083  s :     0.778083
      pz      :     1.011641  p :     3.094476
      px      :     1.055542
      py      :     1.027293
      dz2     :     0.032277  d :     0.236986
      dxz     :     0.073156
      dyz     :     0.052675
      dx2y2   :     0.043290
      dxy     :     0.035588

 10 H s       :     0.806769  s :     0.806769
      pz      :     0.050374  p :     0.145556
      px      :     0.037427
      py      :     0.057754

 11 H s       :     0.799618  s :     0.799618
      pz      :     0.061196  p :     0.146686
      px      :     0.044074
      py      :     0.041416

 12 H s       :     0.798274  s :     0.798274
      pz      :     0.044643  p :     0.146750
      px      :     0.047735
      py      :     0.054372

 13 H s       :     0.811683  s :     0.811683
      pz      :     0.050342  p :     0.152928
      px      :     0.055316
      py      :     0.047269

 14 H s       :     0.798392  s :     0.798392
      pz      :     0.055883  p :     0.154061
      px      :     0.046637
      py      :     0.051541

 15 H s       :     0.799394  s :     0.799394
      pz      :     0.042326  p :     0.148058
      px      :     0.039464
      py      :     0.066268

 16 H s       :     0.807985  s :     0.807985
      pz      :     0.048606  p :     0.148345
      px      :     0.044854
      py      :     0.054885

 17 H s       :     0.807990  s :     0.807990
      pz      :     0.065928  p :     0.148411
      px      :     0.035975
      py      :     0.046508

 18 H s       :     0.795443  s :     0.795443
      pz      :     0.052501  p :     0.154143
      px      :     0.044747
      py      :     0.056895

 19 H s       :     0.799447  s :     0.799447
      pz      :     0.057151  p :     0.148214
      px      :     0.043732
      py      :     0.047330

 20 H s       :     0.807303  s :     0.807303
      pz      :     0.053553  p :     0.142708
      px      :     0.038372
      py      :     0.050783

 21 H s       :     0.808219  s :     0.808219
      pz      :     0.045855  p :     0.146040
      px      :     0.055566
      py      :     0.044619

 22 H s       :     0.808455  s :     0.808455
      pz      :     0.044109  p :     0.146095
      px      :     0.043513
      py      :     0.058472

 23 H s       :     0.803357  s :     0.803357
      pz      :     0.048108  p :     0.146517
      px      :     0.055087
      py      :     0.043321

 24 H s       :     0.803850  s :     0.803850
      pz      :     0.049689  p :     0.152722
      px      :     0.059789
      py      :     0.043243

 25 H s       :     0.803714  s :     0.803714
      pz      :     0.042468  p :     0.146634
      px      :     0.043811
      py      :     0.060355



                      *****************************
                      * MAYER POPULATION ANALYSIS *
                      *****************************

  NA   - Mulliken gross atomic population
  ZA   - Total nuclear charge
  QA   - Mulliken gross atomic charge
  VA   - Mayer's total valence
  BVA  - Mayer's bonded valence
  FA   - Mayer's free valence

  ATOM       NA         ZA         QA         VA         BVA        FA
  0 C      4.1002     4.0000    -0.1002     3.9789     3.9789     0.0000
  1 C      4.0565     4.0000    -0.0565     4.0332     4.0332    -0.0000
  2 C      4.0101     4.0000    -0.0101     3.9728     3.9728     0.0000
  3 C      4.0859     4.0000    -0.0859     4.0253     4.0253     0.0000
  4 C      4.0517     4.0000    -0.0517     3.9029     3.9029     0.0000
  5 C      4.0507     4.0000    -0.0507     3.8994     3.8994     0.0000
  6 C      4.0699     4.0000    -0.0699     4.0010     4.0010    -0.0000
  7 C      4.0982     4.0000    -0.0982     3.9957     3.9957     0.0000
  8 C      4.0533     4.0000    -0.0533     3.9827     3.9827    -0.0000
  9 C      4.0594     4.0000    -0.0594     3.9781     3.9781     0.0000
 10 H      0.9678     1.0000     0.0322     1.0326     1.0326     0.0000
 11 H      0.9477     1.0000     0.0523     1.0236     1.0236     0.0000
 12 H      0.9438     1.0000     0.0562     1.0231     1.0231     0.0000
 13 H      0.9897     1.0000     0.0103     1.0413     1.0413     0.0000
 14 H      0.9542     1.0000     0.0458     1.0195     1.0195     0.0000
 15 H      0.9525     1.0000     0.0475     1.0116     1.0116     0.0000
 16 H      0.9606     1.0000     0.0394     1.0257     1.0257     0.0000
 17 H      0.9624     1.0000     0.0376     1.0262     1.0262     0.0000
 18 H      0.9494     1.0000     0.0506     1.0150     1.0150    -0.0000
 19 H      0.9546     1.0000     0.0454     1.0123     1.0123    -0.0000
 20 H      0.9688     1.0000     0.0312     1.0259     1.0259    -0.0000
 21 H      0.9643     1.0000     0.0357     1.0257     1.0257     0.0000
 22 H      0.9650     1.0000     0.0350     1.0258     1.0258    -0.0000
 23 H      0.9574     1.0000     0.0426     1.0262     1.0262     0.0000
 24 H      0.9679     1.0000     0.0321     1.0163     1.0163    -0.0000
 25 H      0.9581     1.0000     0.0419     1.0262     1.0262     0.0000

  Mayer bond orders larger than 0.100000
B(  0-C ,  1-C ) :   1.0175 B(  0-C , 10-H ) :   0.9942 B(  0-C , 11-H ) :   0.9862 
B(  0-C , 12-H ) :   0.9850 B(  1-C ,  2-C ) :   1.9083 B(  1-C ,  6-C ) :   1.0063 
B(  2-C ,  3-C ) :   1.0202 B(  2-C , 13-H ) :   0.9939 B(  3-C ,  4-C ) :   0.9991 
B(  3-C , 14-H ) :   0.9833 B(  3-C , 15-H ) :   0.9966 B(  4-C ,  5-C ) :   0.9322 
B(  4-C ,  7-C ) :   0.9354 B(  4-C , 16-H ) :   1.0102 B(  5-C ,  6-C ) :   0.9991 
B(  5-C ,  7-C ) :   0.9337 B(  5-C , 17-H ) :   1.0115 B(  6-C , 18-H ) :   0.9819 
B(  6-C , 19-H ) :   0.9954 B(  7-C ,  8-C ) :   1.0239 B(  7-C ,  9-C ) :   1.0161 
B(  8-C , 20-H ) :   0.9933 B(  8-C , 21-H ) :   0.9917 B(  8-C , 22-H ) :   0.9917 
B(  9-C , 23-H ) :   0.9900 B(  9-C , 24-H ) :   0.9940 B(  9-C , 25-H ) :   0.9898 


-------
TIMINGS
-------

Total SCF time: 0 days 0 hours 0 min 47 sec 

Total time                  ....      47.416 sec
Sum of individual times     ....      45.468 sec  ( 95.9%)

SCF preparation             ....       2.314 sec  (  4.9%)
Fock matrix formation       ....      41.985 sec  ( 88.5%)
  Startup                   ....       0.119 sec  (  0.3% of F)
  Split-RI-J                ....       1.427 sec  (  3.4% of F)
  Chain of spheres X        ....      19.602 sec  ( 46.7% of F)
  XC integration            ....      20.341 sec  ( 48.4% of F)
    XC Preparation          ....       0.000 sec  (  0.0% of XC)
    Basis function eval.    ....       0.437 sec  (  2.1% of XC)
    Density eval.           ....       0.199 sec  (  1.0% of XC)
    XC-Functional eval.     ....       0.143 sec  (  0.7% of XC)
    XC-Potential eval.      ....       0.311 sec  (  1.5% of XC)
Diagonalization             ....       0.000 sec  (  0.0%)
Density matrix formation    ....       0.181 sec  (  0.4%)
Total Energy calculation    ....       0.254 sec  (  0.5%)
Population analysis         ....       0.051 sec  (  0.1%)
Orbital Transformation      ....       0.060 sec  (  0.1%)
Orbital Orthonormalization  ....       0.000 sec  (  0.0%)
DIIS solution               ....       0.391 sec  (  0.8%)
SOSCF solution              ....       0.232 sec  (  0.5%)
Finished LeanSCF after  47.5 sec

Maximum memory used throughout the entire LEANSCF-calculation: 39.0 MB


           ************************************************************
           *        Program running with 40 parallel MPI-processes    *
           *              working on a common directory               *
           ************************************************************

------------------------------------------------------------------------------
                         ORCA PROPERTY INTEGRAL CALCULATIONS
------------------------------------------------------------------------------

GBWName                                   ... ./output/delta_3_carene/delta_3_carene.gbw
Number of atoms                           ...     26
Number of basis functions                 ...    210
Max core memory                           ...   1024 MB

Dipole integrals                          ... YES
Quadrupole integrals                      ...  NO
Linear momentum integrals                 ...  NO
Angular momentum integrals                ...  NO
Higher moments length integrals           ...  NO
Higher moments velocity integrals         ...  NO
Kinetic energy integrals                  ...  NO
GIAO right hand sides                     ...  NO
GIAO dipole derivative integrals          ...  NO
SOC integrals                             ...  NO
EPR diamagnetic integrals (GIAO)          ...  NO
EPR gauge integrals                       ...  NO
Field gradient integrals                  ...  NO (   0 nuclei)
Spin-dipole/Fermi contact integrals       ...  NO (   0 nuclei)
Contact density integrals                 ...  NO (   0 nuclei)
Nucleus-orbit integrals                   ...  NO (   0 nuclei)
Geometric perturbations                   ...  NO (  26 nuclei)

Choice of electric origin   ... Center of mass
Position of electric origin ... (  0.1346,  0.1358, -0.0040) 
Choice of magnetic origin   ... GIAO
Position of magnetic origin ... (  0.0000,  0.0000,  0.0000) 

Calculating integrals                     ... Electric Dipole (Length)     done (  0.0 sec)

Property integrals calculated in   0.0 sec

Maximum memory used throughout the entire PROPINT-calculation: 16.8 MB


-------------------------------------------------------------------------------
                          DFT DISPERSION CORRECTION                            
                                                                               
                                DFTD4 V3.4.0                                   
-------------------------------------------------------------------------------
The wB97X-3c composite method is recognized
Using three-body term ABC
Active option DFTDOPT                   ...         5   

-------------------------   ----------------
Dispersion correction           -0.030376461
-------------------------   ----------------


[...]
 20:    590.21   0.000095    0.48  0.000050  (-0.004945 -0.003349 -0.003844)
 21:    716.10   0.000020    0.10  0.000009  ( 0.002891 -0.000596 -0.000085)
 22:    748.98   0.000325    1.64  0.000135  ( 0.004079  0.009373  0.005563)
 23:    808.75   0.000865    4.37  0.000334  ( 0.004200  0.017715 -0.001524)
 24:    824.30   0.002644   13.36  0.001001  ( 0.017007  0.019103  0.018627)
 25:    859.51   0.000080    0.40  0.000029  (-0.000106  0.005324 -0.000763)
 26:    940.47   0.000443    2.24  0.000147  (-0.006262 -0.000152 -0.010383)
 27:    963.00   0.000300    1.52  0.000097  (-0.007065 -0.002901 -0.006243)
 28:    979.90   0.000172    0.87  0.000055  (-0.004477 -0.005781  0.001183)
 29:    988.40   0.001397    7.06  0.000441  (-0.016426 -0.011266 -0.006668)
 30:    994.87   0.000499    2.52  0.000156  (-0.009940  0.003300  0.006838)
 31:   1022.58   0.000827    4.18  0.000252  ( 0.013525  0.008200  0.001495)
 32:   1045.70   0.000430    2.17  0.000128  (-0.009248  0.003940  0.005228)
 33:   1054.16   0.000113    0.57  0.000033  ( 0.003883 -0.004214  0.000795)
 34:   1081.04   0.000796    4.02  0.000230  (-0.000804 -0.010024  0.011337)
 35:   1094.48   0.000228    1.15  0.000065  ( 0.005765  0.004799  0.002980)
 36:   1130.73   0.000108    0.54  0.000030  ( 0.000066 -0.004964  0.002256)
 37:   1151.70   0.000179    0.90  0.000048  (-0.001965  0.004637 -0.004807)
 38:   1204.43   0.000871    4.40  0.000226  (-0.007981  0.010756 -0.006795)
 39:   1208.42   0.000811    4.10  0.000209  ( 0.005419  0.005936 -0.012032)
 40:   1221.50   0.000102    0.52  0.000026  (-0.003568  0.000540 -0.003625)
 41:   1274.35   0.000256    1.29  0.000063  ( 0.005295 -0.002644 -0.005255)
 42:   1281.55   0.000502    2.54  0.000122  (-0.010965  0.000810 -0.001211)
 43:   1287.44   0.000401    2.03  0.000097  (-0.006435 -0.007387 -0.001102)
 44:   1362.95   0.000308    1.55  0.000070  (-0.000255 -0.008387 -0.000025)
 45:   1375.61   0.000231    1.17  0.000052  ( 0.000596  0.002526  0.006758)
 46:   1405.30   0.000375    1.90  0.000083  (-0.005946  0.002731 -0.006366)
 47:   1428.65   0.000090    0.45  0.000020  (-0.000304 -0.004402 -0.000406)
 48:   1442.02   0.000195    0.99  0.000042  (-0.005791  0.002951 -0.000125)
 49:   1448.23   0.001945    9.83  0.000419  (-0.011792  0.008816  0.014224)
 50:   1458.90   0.001080    5.46  0.000231  (-0.012063 -0.007800 -0.004970)
 51:   1460.79   0.001161    5.87  0.000248  ( 0.008965 -0.005400 -0.011768)
 52:   1504.46   0.001199    6.06  0.000249  (-0.006537  0.012332 -0.007336)
 53:   1509.78   0.002335   11.80  0.000483  ( 0.012580  0.015187  0.009682)
 54:   1511.07   0.000573    2.90  0.000118  (-0.001290  0.000745 -0.010780)
 55:   1513.73   0.000221    1.12  0.000046  ( 0.004677  0.001006 -0.004762)
 56:   1515.93   0.001880    9.50  0.000387  (-0.007466  0.014115 -0.011490)
 57:   1522.33   0.001656    8.37  0.000339  (-0.001592  0.006499  0.017164)
 58:   1524.00   0.002773   14.01  0.000568  ( 0.005068  0.017810 -0.014995)
 59:   1536.83   0.000326    1.65  0.000066  (-0.003653  0.004972 -0.005310)
 60:   1562.34   0.000245    1.24  0.000049  (-0.005179 -0.003766 -0.002807)
 61:   1815.60   0.000384    1.94  0.000066  (-0.001712 -0.005677  0.005548)
 62:   3073.21   0.007913   39.99  0.000804  ( 0.011413 -0.021271  0.014861)
 63:   3080.43   0.009231   46.65  0.000935  ( 0.003711 -0.020257  0.022606)
 64:   3087.22   0.008237   41.62  0.000833  (-0.025224  0.004580  0.013241)
 65:   3092.66   0.010119   51.13  0.001021  (-0.027342  0.015034 -0.006886)
 66:   3094.04   0.009408   47.55  0.000949  ( 0.016379  0.023037  0.012244)
 67:   3117.85   0.002863   14.47  0.000287  (-0.011301 -0.007664 -0.010006)
 68:   3124.05   0.002443   12.35  0.000244  ( 0.007707  0.012620  0.005043)
 69:   3167.07   0.001845    9.32  0.000182  ( 0.005275 -0.007342  0.010002)
 70:   3167.64   0.002422   12.24  0.000239  ( 0.007320  0.012016  0.006377)
 71:   3170.40   0.005749   29.05  0.000566  ( 0.006707 -0.016888  0.015352)
 72:   3187.57   0.003264   16.49  0.000320  (-0.008938 -0.012295 -0.009405)
 73:   3203.58   0.002770   14.00  0.000270  ( 0.000365  0.009665 -0.013277)
 74:   3203.87   0.000852    4.31  0.000083  (-0.005555  0.006302 -0.003528)
 75:   3212.14   0.008137   41.12  0.000791  ( 0.016602  0.000890 -0.022674)
 76:   3214.28   0.001693    8.55  0.000164  (-0.005567 -0.010556 -0.004683)
 77:   3215.22   0.003035   15.34  0.000295  ( 0.007797 -0.010878 -0.010746)

* The epsilon (eps) is given for a Dirac delta lineshape.
** The dipole moment derivative (T) already includes vibrational overlap.

The first frequency considered to be a vibration is 6
The total number of vibrations considered is 72


--------------------------
THERMOCHEMISTRY AT 298.15K
--------------------------

Temperature         ...   298.15 K
Pressure            ...     1.00 atm
Total Mass          ...   136.24 AMU
Quasi RRHO          ...     True
Cut-Off Frequency   ...     1.00 cm^-1

Throughout the following assumptions are being made:
  (1) The electronic state is orbitally nondegenerate
  (2) There are no thermally accessible electronically excited states
  (3) Hindered rotations indicated by low frequency modes are not
      treated as such but are treated as vibrations and this may
      cause some error
  (4) All equations used are the standard statistical mechanics
      equations for an ideal gas
  (5) All vibrations are strictly harmonic

freq.      81.93  E(vib)   ...       0.48 
freq.     160.61  E(vib)   ...       0.39 
freq.     181.17  E(vib)   ...       0.37 
freq.     194.26  E(vib)   ...       0.36 
freq.     210.00  E(vib)   ...       0.34 
freq.     242.02  E(vib)   ...       0.31 
freq.     256.87  E(vib)   ...       0.30 
freq.     276.65  E(vib)   ...       0.28 
freq.     346.42  E(vib)   ...       0.23 
freq.     358.62  E(vib)   ...       0.22 
freq.     417.40  E(vib)   ...       0.18 
freq.     437.33  E(vib)   ...       0.17 
freq.     473.02  E(vib)   ...       0.15 
freq.     520.73  E(vib)   ...       0.13 
freq.     590.21  E(vib)   ...       0.10 
freq.     716.10  E(vib)   ...       0.07 
freq.     748.98  E(vib)   ...       0.06 
freq.     808.75  E(vib)   ...       0.05 
freq.     824.30  E(vib)   ...       0.04 
freq.     859.51  E(vib)   ...       0.04 
freq.     940.47  E(vib)   ...       0.03 
freq.     963.00  E(vib)   ...       0.03 
freq.     979.90  E(vib)   ...       0.02 
freq.     988.40  E(vib)   ...       0.02 
freq.     994.87  E(vib)   ...       0.02 
freq.    1022.58  E(vib)   ...       0.02 
freq.    1045.70  E(vib)   ...       0.02 
freq.    1054.16  E(vib)   ...       0.02 
freq.    1081.04  E(vib)   ...       0.02 
freq.    1094.48  E(vib)   ...       0.02 
freq.    1130.73  E(vib)   ...       0.01 
freq.    1151.70  E(vib)   ...       0.01 
freq.    1204.43  E(vib)   ...       0.01 
freq.    1208.42  E(vib)   ...       0.01 
freq.    1221.50  E(vib)   ...       0.01 
freq.    1274.35  E(vib)   ...       0.01 
freq.    1281.55  E(vib)   ...       0.01 
freq.    1287.44  E(vib)   ...       0.01 
freq.    1362.95  E(vib)   ...       0.01 
freq.    1375.61  E(vib)   ...       0.01 
freq.    1405.30  E(vib)   ...       0.00 
freq.    1428.65  E(vib)   ...       0.00 
freq.    1442.02  E(vib)   ...       0.00 
freq.    1448.23  E(vib)   ...       0.00 
freq.    1458.90  E(vib)   ...       0.00 
freq.    1460.79  E(vib)   ...       0.00 
freq.    1504.46  E(vib)   ...       0.00 
freq.    1509.78  E(vib)   ...       0.00 
freq.    1511.07  E(vib)   ...       0.00 
freq.    1513.73  E(vib)   ...       0.00 
freq.    1515.93  E(vib)   ...       0.00 
freq.    1522.33  E(vib)   ...       0.00 
freq.    1524.00  E(vib)   ...       0.00 
freq.    1536.83  E(vib)   ...       0.00 
freq.    1562.34  E(vib)   ...       0.00 
freq.    1815.60  E(vib)   ...       0.00 
freq.    3073.21  E(vib)   ...       0.00 
freq.    3080.43  E(vib)   ...       0.00 
freq.    3087.22  E(vib)   ...       0.00 
freq.    3092.66  E(vib)   ...       0.00 
freq.    3094.04  E(vib)   ...       0.00 
freq.    3117.85  E(vib)   ...       0.00 
freq.    3124.05  E(vib)   ...       0.00 
freq.    3167.07  E(vib)   ...       0.00 
freq.    3167.64  E(vib)   ...       0.00 
freq.    3170.40  E(vib)   ...       0.00 
freq.    3187.57  E(vib)   ...       0.00 
freq.    3203.58  E(vib)   ...       0.00 
freq.    3203.87  E(vib)   ...       0.00 
freq.    3212.14  E(vib)   ...       0.00 
freq.    3214.28  E(vib)   ...       0.00 
freq.    3215.22  E(vib)   ...       0.00 

------------
INNER ENERGY
------------

The inner energy is: U= E(el) + E(ZPE) + E(vib) + E(rot) + E(trans)
    E(el)   - is the total energy from the electronic structure calculation
              = E(kin-el) + E(nuc-el) + E(el-el) + E(nuc-nuc)
    E(ZPE)  - the the zero temperature vibrational energy from the frequency calculation
    E(vib)  - the the finite temperature correction to E(ZPE) due to population
              of excited vibrational states
    E(rot)  - is the rotational thermal energy
    E(trans)- is the translational thermal energy

Summary of contributions to the inner energy U:
Electronic energy                ...    -66.60273913 Eh
Zero point energy                ...      0.24134754 Eh     151.45 kcal/mol
Thermal vibrational correction   ...      0.00741615 Eh       4.65 kcal/mol
Thermal rotational correction    ...      0.00141627 Eh       0.89 kcal/mol
Thermal translational correction ...      0.00141627 Eh       0.89 kcal/mol
-----------------------------------------------------------------------
Total thermal energy                    -66.35114290 Eh


Summary of corrections to the electronic energy:
(perhaps to be used in another calculation)
Total thermal correction                  0.01024869 Eh       6.43 kcal/mol
Non-thermal (ZPE) correction              0.24134754 Eh     151.45 kcal/mol
-----------------------------------------------------------------------
Total correction                          0.25159623 Eh     157.88 kcal/mol


--------
ENTHALPY
--------

The enthalpy is H = U + kB*T
                kB is Boltzmann's constant
Total thermal energy              ...    -66.35114290 Eh 
Thermal Enthalpy correction       ...      0.00094421 Eh       0.59 kcal/mol
-----------------------------------------------------------------------
Total Enthalpy                    ...    -66.35019869 Eh


Note: Only C1 symmetry has been detected, increase convergence thresholds 
      if your molecule has a higher symmetry. Symmetry factor of 1.0 is   
      used for the rotational entropy correction. 
 

Note: Rotational entropy computed according to Herzberg 
Infrared and Raman Spectra, Chapter V,1, Van Nostrand Reinhold, 1945 
Point Group:  C1, Symmetry Number:   1  
Rotational constants in cm-1:     0.083549     0.032189     0.029493 

Vibrational entropy computed according to the QRRHO of S. Grimme
Chem.Eur.J. 2012 18 9955 using a reference frequency of 100.0 cm-1


-------
ENTROPY
-------

The entropy contributions are T*S = T*(S(el)+S(vib)+S(rot)+S(trans))
     S(el)   - electronic entropy
     S(vib)  - vibrational entropy
     S(rot)  - rotational entropy
     S(trans)- translational entropy
The entropies will be listed as multiplied by the temperature to get
units of energy

Electronic entropy                ...      0.00000000 Eh      0.00 kcal/mol
Vibrational entropy               ...      0.01225903 Eh      7.69 kcal/mol
Rotational entropy                ...      0.01396831 Eh      8.77 kcal/mol
Translational entropy             ...      0.01930920 Eh     12.12 kcal/mol
-----------------------------------------------------------------------
Final entropy term                ...      0.04553653 Eh     28.57 kcal/mol

In case the symmetry of your molecule has not been determined correctly
or in case you have a reason to use a different symmetry number we print 
out the resulting rotational entropy values for sn=1,12:

 non-linear molecules -----------------------------------
|  sn= 1 | S(rot)=       0.01396831 Eh      8.77 kcal/mol|
|  sn= 2 | S(rot)=       0.01331385 Eh      8.35 kcal/mol|
|  sn= 3 | S(rot)=       0.01293102 Eh      8.11 kcal/mol|
|  sn= 4 | S(rot)=       0.01265939 Eh      7.94 kcal/mol|
|  sn= 5 | S(rot)=       0.01244870 Eh      7.81 kcal/mol|
|  sn= 6 | S(rot)=       0.01227656 Eh      7.70 kcal/mol|
|  sn= 7 | S(rot)=       0.01213101 Eh      7.61 kcal/mol|
|  sn= 8 | S(rot)=       0.01200494 Eh      7.53 kcal/mol|
|  sn= 9 | S(rot)=       0.01189373 Eh      7.46 kcal/mol|
|  sn=10 | S(rot)=       0.01179425 Eh      7.40 kcal/mol|
|  sn=11 | S(rot)=       0.01170426 Eh      7.34 kcal/mol|
|  sn=12 | S(rot)=       0.01162210 Eh      7.29 kcal/mol|
 linear molecules ---------------------------------------
|  Dinfh | S(rot)=       0.00865271 Eh      5.43 kcal/mol|
|  Cinfv | S(rot)=       0.00930717 Eh      5.84 kcal/mol|
 --------------------------------------------------------


-------------------
GIBBS FREE ENERGY
-------------------

The Gibbs free energy is G = H - T*S

Total enthalpy                    ...    -66.35019869 Eh 
Total entropy correction          ...     -0.04553653 Eh    -28.57 kcal/mol
-----------------------------------------------------------------------
Final Gibbs free energy         ...    -66.39573522 Eh

For completeness - the Gibbs free energy minus the electronic energy
G-E(el)                           ...      0.20700391 Eh    129.90 kcal/mol


Maximum memory used throughout the entire PROP-calculation: 113.0 MB

--------------------------------
SUGGESTED CITATIONS FOR THIS RUN
--------------------------------

Below you find a list of papers that are relevant to this ORCA run
We neither can nor want to force you to cite these papers, but we appreciate if you do
You receive ORCA, which is the product of decades of hard work by many enthusiastic individuals, for free
The only thing we kindly ask in return is that you cite our papers,
We deeply appreciate it, if you show your appreciation for ORCA by not just citing the generic ORCA reference.

Please note that relegating all ORCA citations to the supporting information does *not* help us.
SI sections are not indexed - citations you put there will not count into any citation statistics
But we need these citations in order to attract the funding resources that allow us to do what we are doing

Therefore, if you are a happy ORCA user, please consider citing a few of the papers listed below in the main body of your paper

In addition to the list printed below, the program has created the file ./output/delta_3_carene/delta_3_carene.bibtex that contains the list in bibtex format
You can import this file easily into all common literature databanks and citation aid programs


List of essential papers. We consider these as the minimum necessary citations

  1. Neese,F.
     Software update: the ORCA program system, version 5.0
     WIRES Comput. Molec. Sci., 2022 12(1)e1606
     doi.org/10.1002/wcms.1606
  2. Mueller,M.; Hansen,A.; Grimme,S.
     wB97X-3c: A composite range-separated hybrid DFT method with a molecule-optimized polarized valence double-zeta basis set
     J. Chem. Phys., 2023 158 014103
     doi.org/10.1063/5.0133026

List of papers to cite with high priority. The work reported in these papers was absolutely
necessary for this run to complete.
Our perspective: the developers of density functionals and basis sets usually get cited in chemistry papers
Good! But without the algorithms to do something with them, the functionals or basis sets would not do anything.
Hence, in our opinion, the algorithm design and method developments papers are equally worthy of getting cited

  1. Neese,F.
     An improvement of the resolution of the identity approximation for the formation of the Coulomb matrix
     J. Comp. Chem., 2003 24(14)1740-1747
     doi.org/10.1002/jcc.10318
  2. Neese,F.; Wennmohs,F.; Hansen,A.; Becker,U.
     Efficient, approximate and parallel Hartree-Fock and hybrid DFT calculations. A 'chain-of-spheres' algorithm for the Hartree-Fock exchange
     Chem. Phys., 2009 356(1-3)98-109
     doi.org/10.1016/j.chemphys.2008.10.036
  3. Bykov,D.; Petrenko,T.; Izsak,R.; Kossmann,S.; Becker,U.; Valeev,E.; Neese,F.
     Efficient implementation of the analytic second derivatives of Hartree-Fock and hybrid DFT energies: a detailed analysis of different approximations
     Molec. Phys., 2015 113 1961-1977
     doi.org/10.1080/00268976.2015.1025114
  4. Helmich-Paris,B.; de Souza,B.; Neese,F.; Izsák,R.
     An improved chain of spheres for exchange algorithm
     J. Chem. Phys., 2021 155 104109
     doi.org/doi: 10.1063/5.0058766.
  5. Neese,F.
     The SHARK Integral Generation and Digestion System
     J. Comp. Chem., 2022  1-16
     doi.org/10.1002/jcc.26942
  6. Caldeweyher,E.; Bannwarth,C.; Grimme,S.
     Extension of the D3 dispersion coefficient model
     J. Chem. Phys., 2017 147 034112
     doi.org/10.1063/1.4993215
  7. Caldeweyher,E.; Ehlert,S.; Hansen,A.; Neugebauer,H.; Spicher,S.; Bannwarth,C.; Grimme,S.
     A generally applicable atomic-charge dependent London dispersion correction
     J. Chem. Phys., 2019 150 154122
     doi.org/10.1063/1.5090222
  8. Caldeweyher,E.; Mewes,J.; Ehlert,S.; Grimme,S.
     Extension and evaluation of the D4 London-dispersion model for periodic systems
     Phys. Chem. Chem. Phys., 2020 22(16)8499-8512
     doi.org/10.1039/D0CP00502A
  9. Wittmann,L.; Gordiy,I.; Friede,M.; Helmich-Paris,B.; Grimme,S.; Hansen,A.; Bursch,M.
     Extension of the D3 and D4 London Dispersion Corrections to the full Actinides Series
     Phys. Chem. Chem. Phys., 2024 26(32)21379-21394
     doi.org/https://doi.org/10.1039/D4CP01514B 

List of suggested additional citations. These are papers that are important in the 'surrounding' of 
of this run, or papers that preceded the highly important papers. If you like your results we are grateful for a citation.

  1. Izsak,R.; Neese,F.
     An overlap fitted chain of spheres exchange method
     J. Chem. Phys., 2011 135 144105
     doi.org/10.1063/1.3646921
  2. Izsak,R.; Hansen,A.; Neese,F.
     The resolution of identity and chain of spheres approximations for the LPNO-CCSD singles Fock term
     Molec. Phys., 2012 110 2413-2417
     doi.org/10.1080/00268976.2012.687466
  3. Neese,F.
     The ORCA program system
     WIRES Comput. Molec. Sci., 2012 2(1)73-78
     doi.org/10.1002/wcms.81
  4. Izsak,R.; Neese,F.; Klopper,W.
     Robust fitting techniques in the chain of spheres approximation to the Fock exchange: The role of the complementary space
     J. Chem. Phys., 2013 139 
     doi.org/10.1063/1.4819264
  5. Neese,F.
     Software update: the ORCA program system, version 4.0
     WIRES Comput. Molec. Sci., 2018 8(1)1-6
     doi.org/10.1002/wcms.1327
  6. Neese,F.; Wennmohs,F.; Becker,U.; Riplinger,C.
     The ORCA quantum chemistry program package
     J. Chem. Phys., 2020 152 Art. No. L224108
     doi.org/10.1063/5.0004608

List of optional additional citations

  1. Neese,F.
     Approximate second-order SCF convergence for spin unrestricted wavefunctions
     Chem. Phys. Lett., 2000 325(1-3)93-98
     doi.org/10.1016/s0009-2614(00)00662-x

Timings for individual modules:

Sum of individual times          ...     1079.435 sec (=  17.991 min)
Startup calculation              ...       62.147 sec (=   1.036 min)   5.8 %
SCF iterations                   ...      699.415 sec (=  11.657 min)  64.8 %
Property integrals               ...       55.628 sec (=   0.927 min)   5.2 %
SCF Response                     ...       34.018 sec (=   0.567 min)   3.2 %
Property calculations            ...       77.010 sec (=   1.284 min)   7.1 %
SCF Gradient evaluation          ...      150.816 sec (=   2.514 min)  14.0 %
Geometry relaxation              ...        0.400 sec (=   0.007 min)   0.0 %
                             ****ORCA TERMINATED NORMALLY****
TOTAL RUN TIME: 0 days 0 hours 18 minutes 7 seconds 960 msec
