
                                 *****************
                                 * O   R   C   A *
                                 *****************

                                            #,                                       
                                            ###                                      
                                            ####                                     
                                            #####                                    
                                            ######                                   
                                           ########,                                 
                                     ,,################,,,,,                         
                               ,,#################################,,                 
                          ,,##########################################,,             
                       ,#########################################, ''#####,          
                    ,#############################################,,   '####,        
                  ,##################################################,,,,####,       
                ,###########''''           ''''###############################       
              ,#####''   ,,,,##########,,,,          '''####'''          '####       
            ,##' ,,,,###########################,,,                        '##       
           ' ,,###''''                  '''############,,,                           
         ,,##''                                '''############,,,,        ,,,,,,###''
      ,#''                                            '''#######################'''  
     '                                                          ''''####''''         
             ,#######,   #######,   ,#######,      ##                                
            ,#'     '#,  ##    ##  ,#'     '#,    #''#        ,####,   ,####,        
            ##       ##  ##   ,#'  ##            #'  '#       #'       #'  '#        
            ##       ##  #######   ##           ,######,      #####,   #    #        
            '#,     ,#'  ##    ##  '#,     ,#' ,#      #,     #,   #   #,  ,#        
             '#######'   ##     ##  '#######'  #'      '#     '####' # '####'        



                #########################################################
                #                        -***-                          #
                #          Department of theory and spectroscopy        #
                #                                                       #
                #                      Frank Neese                      #
                #                                                       #
                #     Directorship, Architecture, Infrastructure        #
                #                    SHARK, DRIVERS                     #
                #        Core code/Algorithms in most modules           #
                #                                                       #
                #        Max Planck Institute fuer Kohlenforschung      #
                #                Kaiser Wilhelm Platz 1                 #
                #                 D-45470 Muelheim/Ruhr                 #
                #                      Germany                          #
                #                                                       #
                #                  All rights reserved                  #
                #                        -***-                          #
                #########################################################


                         Program Version 6.0.1  -  RELEASE   -


 With contributions from (in alphabetic order):
[Max-Planck-Institut fuer Kohlenforschung]                               
  Daniel Aravena         : Magnetic Suceptibility                        
  Michael Atanasov       : Ab Initio Ligand Field Theory (pilot matlab implementation)
  Alexander A. Auer      : GIAO ZORA, VPT2 properties, NMR spectrum      
  Ute Becker             : All parallelization in ORCA, NUMFREQ, NUMCALC 
  Giovanni Bistoni       : ED, misc. LED, open-shell LED, HFLD           
  Martin Brehm           : Molecular dynamics                            
  Dmytro Bykov           : pre 5.0 version of the SCF Hessian            
  Marcos Casanova-Páez   : Triplet and SCS-CIS(D). UHF-(DLPNO)-IP/EA/STEOM-CCSD. UHF-CVS-IP/STEOM-CCSD   
  Vijay G. Chilkuri      : MRCI spin determinant printing, contributions to CSF-ICE 
  Pauline Colinet        : FMM embedding                                 
  Dipayan Datta          : RHF DLPNO-CCSD density                        
  Achintya Kumar Dutta   : EOM-CC, STEOM-CC                              
  Nicolas Foglia         : Exact transition moments, OPA infrastructure, MCD improvements    
  Dmitry Ganyushin       : Spin-Orbit,Spin-Spin,Magnetic field MRCI      
  Miquel Garcia-Rates    : C-PCM and meta-GGA Hessian, CCSD/C-PCM, Gaussian charge scheme 
  Tiago L. C. Gouveia    : GS-ROHF, GS-ROCIS                             
  Yang Guo               : DLPNO-NEVPT2, F12-NEVPT2, CIM, IAO-localization        
  Andreas Hansen         : Spin unrestricted coupled pair/coupled cluster methods 
  Ingolf Harden          : AUTO-CI MPn and infrastructure                
  Benjamin Helmich-Paris : MC-RPA, TRAH-(SCF,CASSCF), AVAS, COSX integrals, SCF dyn. polar. 
  Lee Huntington         : MR-EOM, pCC                                   
  Robert Izsak           : Overlap fitted RIJCOSX, COSX-SCS-MP3, EOM     
  Riya Kayal             : Wick's Theorem for AUTO-CI, AUTO-CI UHF-CCSDT 
  Emily Kempfer          : AUTO-CI, RHF CISDT and CCSDT                  
  Christian Kollmar      : KDIIS, OOCD, Brueckner-CCSD(T), CCSD density, CASPT2, CASPT2-K, improved NEVPT2 
  Axel Koslowski         : Symmetry handling                             
  Simone Kossmann        : meta-GGA functionals, TD-DFT gradient, OOMP2, (MP2 Hessian; deprecated post 5.0) 
  Lucas Lang             : DCDCAS                                        
  Marvin Lechner         : AUTO-CI (C++ implementation), FIC-MRCC        
  Spencer Leger          : CASSCF response                               
  Dagmar Lenk            : GEPOL surface, SMD, ORCA-2-JSON               
  Dimitrios Liakos       : Extrapolation schemes; Compound Job, initial MDCI parallelization 
  Dimitrios Manganas     : Further ROCIS development; embedding schemes. LFT, Crystal Embedding 
  Dimitrios Pantazis     : SARC Basis sets                               
  Anastasios Papadopoulos: AUTO-CI, single reference methods and gradients 
  Taras Petrenko         : pre 6.0 DFT Hessian and TD-DFT gradient, (ASA, deprecated), ECA, 1-Electron XAS/XES, NRVS 
  Peter Pinski           : DLPNO-MP2, DLPNO-MP2 Gradient                 
  Christoph Reimann      : Effective Core Potentials                     
  Marius Retegan         : Local ZFS, SOC                                
  Christoph Riplinger    : Optimizer, TS searches, QM/MM, DLPNO-CCSD(T), (RO)-DLPNO pert. Triples 
  Michael Roemelt        : Original ROCIS implementation                 
  Masaaki Saitow         : Open-shell DLPNO-CCSD energy and density      
  Barbara Sandhoefer     : DKH picture change effects                    
  Kantharuban Sivalingam : CASSCF convergence/infrastructure, NEVPT2 and variants, FIC-MRCI 
  Bernardo de Souza      : ESD, SOC TD-DFT                               
  Georgi L. Stoychev     : AutoAux, RI-MP2 NMR, DLPNO-MP2 response, X2C  
  Van Anh Tran           : RI-MP2 g-tensors                              
  Willem Van den Heuvel  : Paramagnetic NMR                              
  Zikuan Wang            : NOTCH, Electric field optimization            
  Frank Wennmohs         : Technical directorship and infrastructure     
  Hang Xu                : AUTO-CI-Response properties                   
                                                                         
[FACCTs GmbH]                                                            
  Markus Bursch, Miquel Garcia-Rates, Christoph Riplinger, Bernardo de Souza, Georgi L. Stoychev 
                                                                 
  APM, Basis sets (HGBS, AHGBS, def-TZVP (Ac-Lr), def2-XVPD (La-Lu)), CI-OPT, improved COSX, DLPNO-Multilevel,           
  DOCKER, DRACO, updates on ESD, GOAT, IRC, LR-CPCM, MBIS, meta-GGA TD-DFT gradient, ML-optimized integration grids, 
  MM, NACMEs, nearIR, NEB, NEB-TS, NL-DFT gradient (VV10), 2- and 3-layer-ONIOM, interface openCOSMO-RS, QMMM,   
  Crystal-QMMM, SF, symmetry and pop. for TD-DFT, r2SCAN hybrids, SOLVATOR                                   
                                                                         
[Other institutions]                                                     
  V. Asgeirsson          : NEB                                           
  Christoph Bannwarth    : sTDA-DFT, sTD-DFT, PBEh-3c, B97-3c, D3        
  Sebastian Ehlert       : rSCAN, r2SCAN, r2SCAN-3c, D4, dhf basis sets  
  Marvin Friede          : D4 for Fr, Ra, Ac-Lr                          
  Lars Goerigk           : TD-DFT with DH, B97 family of functionals     
  Stefan Grimme          : VdW corrections, initial TS optimization, DFT functionals, gCP, sTDA/sTD-DF 
  Waldemar Hujo          : DFT-NL                                        
  H. Jonsson             : NEB                                           
  Holger Kruse           : gCP                                           
  Marcel Mueller         : wB97X-3c, vDZP basis set                      
  Hagen Neugebauer       : wr2SCAN                                       
  Tobias Risthaus        : range-separated hybrid DFT                    
  Lukas Wittmann         : regularized MP2, r2SCAN double-hybrids, wr2SCAN        
                                                                         
We gratefully acknowledge several colleagues who have allowed us to      
interface, adapt or use parts of their codes:                            
  Ed Valeev, F. Pavosevic, A. Kumar             : LibInt (2-el integral package), F12 methods 
  Garnet Chan, S. Sharma, J. Yang, R. Olivares  : DMRG                   
  Ulf Ekstrom                                   : XCFun DFT Library      
  Mihaly Kallay                                 : mrcc  (arbitrary order and MRCC methods)
  Frank Weinhold                                : gennbo (NPA and NBO analysis)           
  Simon Mueller                                 : openCOSMO-RS                            
  Christopher J. Cramer and Donald G. Truhlar   : smd solvation model                     
  S Lehtola, MJT Oliveira, MAL Marques          : LibXC Library                           
  Liviu Ungur et al                             : ANISO software                          


 Your calculation uses the libint2 library for the computation of 2-el integrals
 For citations please refer to: http://libint.valeyev.net

 Your ORCA version has been built with support for libXC version: 6.2.2
 For citations please refer to: https://libxc.gitlab.io

 This ORCA versions uses:
   CBLAS   interface :  Fast vector & matrix operations
   LAPACKE interface :  Fast linear algebra routines
   SCALAPACK package :  Parallel linear algebra routines
   Shared memory     :  Shared parallel matrices
   BLAS/LAPACK       :  OpenBLAS 0.3.27  USE64BITINT DYNAMIC_ARCH NO_AFFINITY SkylakeX SINGLE_THREADED
        Core in use  :  SkylakeX
   Copyright (c) 2011-2014, The OpenBLAS Project


Your calculation utilizes the atom-pairwise dispersion correction
based on EEQ partial charges (D4)


================================================================================

cite the ECPs for C  [vDZP-ECP], O  [vDZP-ECP] as follows:
   B-Ne (ecp-2-mwb), Al-Ar (ecp-10-mwb), Ga-Kr (ecp-28-mwb), Y-Cd (ecp-28-mwb), In-Xe (ecp-46-mwb):
     A. Bergner, M. Dolg, W. Küchle, H. Stoll, and H. Preuß, Mol. Phys. 80, 1431 (1993)., T. Leininger, A. Berning, A. Nicklass, H. Stoll, H.-J. Werner, and H.-J.Flad, Chem. Phys. 217, 19 (1997).
   Na-Mg, K-Ca, Rb-Sr, Cs-Ba (CRENBL):
     L. Fernandez Pacios and P. A. Christiansen, J. Chem. Phys. 82, 2664 (1985)., M. M. Hurley, L. F. Pacios, P. A. Christiansen, R. B. Ross, and W. C. Ermler, J. Chem. Phys. 84, 6840 (1986)., L. A. LaJohn, P. A. Christiansen, R. B. Ross, T. Atashroo, and W. C. Ermler, J. Chem. Phys. 87, 2812 (1987)., R. B. Ross, J. M. Powers, T. Atashroo, W. C. Ermler, L. A. LaJohn, and P. A. Christiansen, J. Chem. Phys. 93, 6654 (1990). 
   Sc-Zn (ecp-10-mdf):
     M. Dolg, U. Wedig, H. Stoll, and H. Preuss, J. Chem. Phys. 86, 866 (1986). 
   Y-Cd (ecp-28-mwb), Hf-Hg (ecp-60-mwb):
     D. Andrae, U. Häußermann, M. Dolg, H. Stoll, and H. Preuß, Theor. Chim. Acta 77, 123 (1990). 
   La (ecp-46-mwb):
     M. Dolg, H. Stoll, and H. Preuss, J. Chem. Phys. 90, 1730 (1989)., M. Dolg, H. Stoll, and H. Preuss, Theor. Chim. Acta 85, 441 (1993).
   Ce-Lu (SBKJC-ecp):
     T. R. Cundari and W. J. Stevens, J. Chem. Phys. 98, 5555 (1993).
   Tl-Rn (ecp-78-mwb):
     W. Küchle, M. Dolg, H. Stoll, and H. Preuss, Mol. Phys. 74, 1245 (1991).

ECP parameters for C  [vDZP-ECP], O  [vDZP-ECP] have been obtained from:
MM, AH, SG, J. Chem. Phys. 158, 014103 (2023), 10.1063/5.0133026

----- Orbital basis set information -----
Your calculation utilizes the basis: vDZP
   Marcel Mueller, Andreas Hansen, Stefan Grimme 
   J. Chem. Phys. 158, 014103 (2023). DOI: 10.1063/5.0133026

----- AuxJ basis set information -----
Your calculation utilizes the auxiliary basis: def2/J
   F. Weigend, Phys. Chem. Chem. Phys. 8, 1057 (2006).

================================================================================
                                        WARNINGS
                       Please study these warnings very carefully!
================================================================================

WARNING: Frozen-Core approximation turned on, but there are no core electrons.
  ===> : Turning off frozen-core approximation


WARNING: Geometry Optimization
  ===> : Switching off AutoStart
         For restart on a previous wavefunction, please use MOREAD

================================================================================
                                       INPUT FILE
================================================================================
NAME = ./output/isopinocamphone/isopinocamphone.inp
|  1> ! wB97X-3c OPT FREQ TightSCF
|  2> %pal
|  3>   nprocs 40
|  4> end
|  5> * xyz 0 1
|  6> C      2.066861    -1.034413    -1.248473
|  7> C      1.624115    -0.003357    -0.201568
|  8> C      0.504843    -0.537499     0.753004
|  9> C      0.195442     0.637287     1.704418
| 10> C     -0.860159     1.083205     0.679247
| 11> C     -0.930121    -0.376286     0.169860
| 12> C     -1.963797    -1.218467     0.961708
| 13> C     -1.191648    -0.602476    -1.342928
| 14> C     -0.123585     1.997231    -0.350391
| 15> C      1.188814     1.340783    -0.810218
| 16> O      1.898974     1.908027    -1.625919
| 17> H      2.311643    -1.996363    -0.750272
| 18> H      2.982874    -0.673019    -1.762448
| 19> H      1.300572    -1.223118    -2.020987
| 20> H      2.523643     0.196876     0.422834
| 21> H      0.728791    -1.498845     1.265230
| 22> H      1.022328     1.361007     1.891936
| 23> H     -0.254193     0.305463     2.665383
| 24> H     -1.794805     1.503672     1.109788
| 25> H     -2.995407    -0.897436     0.702776
| 26> H     -1.852653    -2.293244     0.703334
| 27> H     -1.851588    -1.126967     2.061031
| 28> H     -0.576558     0.004766    -2.028487
| 29> H     -2.248630    -0.353038    -1.576135
| 30> H     -1.029936    -1.672354    -1.593040
| 31> H      0.106161     2.974045     0.126538
| 32> H     -0.781982     2.194520    -1.222559
| 33> *
| 34> 
| 35>                          ****END OF INPUT****
================================================================================

                       *****************************
                       * Geometry Optimization Run *
                       *****************************

Geometry optimization settings:
Update method            Update   .... BFGS
Choice of coordinates    CoordSys .... (2022) Redundant Internals
Initial Hessian          InHess   .... Almloef's Model
Max. no of cycles        MaxIter  .... 81

Convergence Tolerances:
Energy Change            TolE     ....  5.0000e-06 Eh
Max. Gradient            TolMAXG  ....  3.0000e-04 Eh/bohr
RMS Gradient             TolRMSG  ....  1.0000e-04 Eh/bohr
Max. Displacement        TolMAXD  ....  4.0000e-03 bohr
RMS Displacement         TolRMSD  ....  2.0000e-03 bohr
Strict Convergence                .... False

------------------------------------------------------------------------------
                        ORCA OPTIMIZATION COORDINATE SETUP
------------------------------------------------------------------------------

The optimization will be done in redundant internal coordinates (2022)
Making redundant internal coordinates   ...  (2022 redundants) done
Evaluating the initial hessian          ...  (Almloef) done
Evaluating the coordinates              ...  done
Calculating the B-matrix                .... done
Calculating the G-matrix                .... done
Diagonalizing the G-matrix              .... done
Small eigenvalue found = 2.945e-02
The first mode is                       ....   74
The number of degrees of freedom        ....   75

    -----------------------------------------------------------------
                    Redundant Internal Coordinates


    -----------------------------------------------------------------
         Definition                    Initial Value    Approx d2E/dq
    -----------------------------------------------------------------
      1. B(C   1,C   0)                  1.5346         0.367265   
      2. B(C   2,C   1)                  1.5650         0.328478   
      3. B(C   3,C   2)                  1.5431         0.356072   
      4. B(C   4,C   3)                  1.5376         0.363333   
      5. B(C   5,C   4)                  1.5474         0.350427   
      6. B(C   5,C   2)                  1.5573         0.337932   
      7. B(C   6,C   5)                  1.5507         0.346176   
      8. B(C   7,C   5)                  1.5518         0.344823   
      9. B(C   8,C   4)                  1.5615         0.332808   
     10. B(C   9,C   8)                  1.5378         0.363054   
     11. B(C   9,C   1)                  1.5384         0.362232   
     12. B(O  10,C   9)                  1.2213         1.040157   
     13. B(H  11,C   0)                  1.1106         0.333833   
     14. B(H  12,C   0)                  1.1108         0.333621   
     15. B(H  13,C   0)                  1.1043         0.341610   
     16. B(H  14,C   1)                  1.1132         0.330731   
     17. B(H  15,C   2)                  1.1121         0.332048   
     18. B(H  16,C   3)                  1.1148         0.328800   
     19. B(H  17,C   3)                  1.1116         0.332587   
     20. B(H  18,C   4)                  1.1116         0.332594   
     21. B(H  19,C   6)                  1.1110         0.333362   
     22. B(H  20,C   6)                  1.1110         0.333400   
     23. B(H  21,C   6)                  1.1088         0.336049   
     24. B(H  22,C   7)                  1.1032         0.343044   
     25. B(H  23,C   7)                  1.1108         0.333643   
     26. B(H  24,C   7)                  1.1106         0.333902   
     27. B(H  25,C   8)                  1.1110         0.333315   
     28. B(H  26,C   8)                  1.1104         0.334045   
     29. A(C   1,C   0,H  11)          109.8460         0.319429   
     30. A(H  12,C   0,H  13)          107.7057         0.285027   
     31. A(C   1,C   0,H  12)          109.5713         0.319396   
     32. A(H  11,C   0,H  13)          108.5857         0.285056   
     33. A(C   1,C   0,H  13)          113.0677         0.320633   
     34. A(H  11,C   0,H  12)          107.9150         0.284008   
     35. A(C   2,C   1,C   9)          109.7037         0.353625   
     36. A(C   2,C   1,H  14)          107.2887         0.313207   
     37. A(C   0,C   1,H  14)          105.6865         0.318943   
     38. A(C   0,C   1,C   9)          113.5004         0.360395   
     39. A(C   9,C   1,H  14)          107.0625         0.318226   
     40. A(C   0,C   1,C   2)          113.1487         0.354453   
     41. A(C   1,C   2,H  15)          115.5920         0.313408   
     42. A(C   3,C   2,C   5)           88.1266         0.354298   
     43. A(C   1,C   2,C   3)          105.0483         0.352600   
     44. A(C   3,C   2,H  15)          114.4894         0.317543   
     45. A(C   1,C   2,C   5)          113.2828         0.349498   
     46. A(C   5,C   2,H  15)          116.5851         0.314854   
     47. A(C   2,C   3,C   4)           86.9824         0.358686   
     48. A(C   4,C   3,H  17)          112.6596         0.318674   
     49. A(H  16,C   3,H  17)          110.3900         0.283203   
     50. A(C   4,C   3,H  16)          115.6661         0.318079   
     51. A(C   2,C   3,H  16)          116.6961         0.317035   
     52. A(C   2,C   3,H  17)          112.7586         0.317627   
     53. A(C   5,C   4,C   8)          110.8773         0.352428   
     54. A(C   3,C   4,C   5)           88.6814         0.357712   
     55. A(C   3,C   4,C   8)          106.5929         0.354593   
     56. A(C   8,C   4,H  18)          115.5057         0.314158   
     57. A(C   5,C   4,H  18)          116.5023         0.316802   
     58. A(C   3,C   4,H  18)          115.3848         0.318675   
     59. A(C   2,C   5,C   4)           86.1417         0.353340   
     60. A(C   6,C   5,C   7)          107.8359         0.353818   
     61. A(C   4,C   5,C   7)          117.7755         0.354551   
     62. A(C   2,C   5,C   7)          120.3479         0.352377   
     63. A(C   4,C   5,C   6)          111.9794         0.354786   
     64. A(C   2,C   5,C   6)          111.5172         0.352611   
     65. A(H  20,C   6,H  21)          107.4746         0.284271   
     66. A(H  19,C   6,H  21)          107.5289         0.284266   
     67. A(C   5,C   6,H  21)          113.2027         0.316706   
     68. A(H  19,C   6,H  20)          108.5561         0.283917   
     69. A(C   5,C   6,H  20)          109.8740         0.316298   
     70. A(C   5,C   6,H  19)          110.0599         0.316293   
     71. A(H  22,C   7,H  24)          108.0068         0.285251   
     72. A(H  23,C   7,H  24)          107.9155         0.284020   
     73. A(C   5,C   7,H  24)          109.5987         0.316174   
     74. A(H  22,C   7,H  23)          106.0498         0.285216   
     75. A(C   5,C   7,H  23)          109.4090         0.316134   
     76. A(C   5,C   7,H  22)          115.5695         0.317567   
     77. A(H  25,C   8,H  26)          107.6713         0.283996   
     78. A(C   9,C   8,H  26)          110.3040         0.318861   
     79. A(C   4,C   8,H  26)          110.0125         0.314380   
     80. A(C   9,C   8,H  25)          109.0983         0.318748   
     81. A(C   4,C   8,H  25)          109.2162         0.314269   
     82. A(C   4,C   8,C   9)          110.4801         0.354547   
     83. A(C   8,C   9,O  10)          119.8494         0.429854   
     84. A(C   1,C   9,O  10)          120.3674         0.429679   
     85. A(C   1,C   9,C   8)          119.7464         0.359688   
     86. D(C   2,C   1,C   0,H  11)    -50.9342         0.010793   
     87. D(C   2,C   1,C   0,H  13)     70.5326         0.010793   
     88. D(C   9,C   1,C   0,H  13)    -55.3231         0.010793   
     89. D(C   2,C   1,C   0,H  12)   -169.3195         0.010793   
     90. D(C   9,C   1,C   0,H  11)   -176.7899         0.010793   
     91. D(C   9,C   1,C   0,H  12)     64.8247         0.010793   
     92. D(C   5,C   2,C   1,C   0)    -84.8750         0.008795   
     93. D(C   3,C   2,C   1,C   9)    -51.5351         0.008795   
     94. D(C   5,C   2,C   1,C   9)     42.9866         0.008795   
     95. D(C   5,C   2,C   1,H  14)    158.9551         0.008795   
     96. D(C   3,C   2,C   1,C   0)   -179.3967         0.008795   
     97. D(C   3,C   2,C   1,H  14)     64.4334         0.008795   
     98. D(C   4,C   3,C   2,H  15)   -142.1811         0.010188   
     99. D(C   4,C   3,C   2,C   5)    -23.6829         0.010188   
    100. D(C   4,C   3,C   2,C   1)     89.9410         0.010188   
    101. D(H  16,C   3,C   2,C   5)   -141.0035         0.010188   
    102. D(H  16,C   3,C   2,H  15)    100.4984         0.010188   
    103. D(H  16,C   3,C   2,C   1)    -27.3796         0.010188   
    104. D(C   8,C   4,C   3,H  17)    158.9838         0.010578   
    105. D(C   8,C   4,C   3,H  16)     30.7045         0.010578   
    106. D(C   8,C   4,C   3,C   2)    -87.5766         0.010578   
    107. D(C   5,C   4,C   3,H  16)    142.1177         0.010578   
    108. D(C   5,C   4,C   3,C   2)     23.8367         0.010578   
    109. D(C   5,C   4,C   3,H  17)    -89.6029         0.010578   
    110. D(C   6,C   5,C   2,C   3)    -88.5804         0.009257   
    111. D(C   2,C   5,C   4,C   3)    -23.6276         0.009892   
    112. D(C   6,C   5,C   2,C   1)    165.8311         0.009257   
    113. D(C   4,C   5,C   2,C   3)     23.5451         0.009257   
    114. D(C   6,C   5,C   2,H  15)     27.9975         0.009257   
    115. D(C   4,C   5,C   2,C   1)    -82.0434         0.009257   
    116. D(C   4,C   5,C   2,H  15)    140.1229         0.009257   
    117. D(C   6,C   5,C   4,H  18)    -29.8449         0.009892   
    118. D(C   6,C   5,C   4,C   8)   -164.6872         0.009892   
    119. D(C   6,C   5,C   4,C   3)     88.0391         0.009892   
    120. D(C   2,C   5,C   4,H  18)   -141.5116         0.009892   
    121. D(C   2,C   5,C   4,C   8)     83.6462         0.009892   
    122. D(H  20,C   6,C   5,C   7)     59.4536         0.009673   
    123. D(H  20,C   6,C   5,C   4)   -169.4165         0.009673   
    124. D(H  20,C   6,C   5,C   2)    -74.7631         0.009673   
    125. D(H  19,C   6,C   5,C   7)    -60.0342         0.009673   
    126. D(H  19,C   6,C   5,C   4)     71.0958         0.009673   
    127. D(H  19,C   6,C   5,C   2)    165.7491         0.009673   
    128. D(H  23,C   7,C   5,C   6)     55.6260         0.009603   
    129. D(H  23,C   7,C   5,C   4)    -72.2415         0.009603   
    130. D(H  23,C   7,C   5,C   2)   -174.9646         0.009603   
    131. D(H  22,C   7,C   5,C   6)    175.1992         0.009603   
    132. D(H  22,C   7,C   5,C   4)     47.3317         0.009603   
    133. D(H  22,C   7,C   5,C   2)    -55.3914         0.009603   
    134. D(H  25,C   8,C   4,H  18)     56.7997         0.009004   
    135. D(H  25,C   8,C   4,C   5)   -167.8733         0.009004   
    136. D(H  25,C   8,C   4,C   3)    -72.8275         0.009004   
    137. D(C   9,C   8,C   4,H  18)    176.8033         0.009004   
    138. D(C   9,C   8,C   4,C   5)    -47.8697         0.009004   
    139. D(C   9,C   8,C   4,C   3)     47.1761         0.009004   
    140. D(C   1,C   9,C   8,H  26)   -124.5311         0.009898   
    141. D(C   1,C   9,C   8,H  25)    117.3939         0.009898   
    142. D(C   1,C   9,C   8,C   4)     -2.6806         0.009898   
    143. D(O  10,C   9,C   1,C   2)   -177.2546         0.009857   
    144. D(O  10,C   9,C   1,C   0)    -49.5887         0.009857   
    145. D(C   8,C   9,C   1,H  14)   -111.1557         0.009857   
    146. D(C   8,C   9,C   1,C   2)      4.9559         0.009857   
    147. D(O  10,C   9,C   8,C   4)    179.5183         0.009898   
    148. D(C   8,C   9,C   1,C   0)    132.6217         0.009857   
    149. D(O  10,C   9,C   8,H  25)    -60.4072         0.009898   
    -----------------------------------------------------------------

Number of atoms                         .... 27
Number of degrees of freedom            .... 149


         *************************************************************
         *                GEOMETRY OPTIMIZATION CYCLE   1            *
         *************************************************************
---------------------------------
CARTESIAN COORDINATES (ANGSTROEM)
---------------------------------
  C      2.066861   -1.034413   -1.248473
  C      1.624115   -0.003357   -0.201568
  C      0.504843   -0.537499    0.753004
  C      0.195442    0.637287    1.704418
  C     -0.860159    1.083205    0.679247
  C     -0.930121   -0.376286    0.169860
  C     -1.963797   -1.218467    0.961708
  C     -1.191648   -0.602476   -1.342928
  C     -0.123585    1.997231   -0.350391
  C      1.188814    1.340783   -0.810218
  O      1.898974    1.908027   -1.625919
  H      2.311643   -1.996363   -0.750272
  H      2.982874   -0.673019   -1.762448
  H      1.300572   -1.223118   -2.020987
  H      2.523643    0.196876    0.422834
  H      0.728791   -1.498845    1.265230
  H      1.022328    1.361007    1.891936
  H     -0.254193    0.305463    2.665383
  H     -1.794805    1.503672    1.109788
  H     -2.995407   -0.897436    0.702776
  H     -1.852653   -2.293244    0.703334
  H     -1.851588   -1.126967    2.061031
  H     -0.576558    0.004766   -2.028487
  H     -2.248630   -0.353038   -1.576135
  H     -1.029936   -1.672354   -1.593040
  H      0.106161    2.974045    0.126538
  H     -0.781982    2.194520   -1.222559

----------------------------
CARTESIAN COORDINATES (A.U.)
----------------------------
  NO LB      ZA    FRAG     MASS         X           Y           Z
   0 C     4.0000*   0    12.011    3.905801   -1.954757   -2.359272
   1 C     4.0000*   0    12.011    3.069133   -0.006344   -0.380908
   2 C     4.0000*   0    12.011    0.954015   -1.015726    1.422971
   3 C     4.0000*   0    12.011    0.369332    1.204298    3.220883
   4 C     4.0000*   0    12.011   -1.625465    2.046961    1.283591
   5 C     4.0000*   0    12.011   -1.757674   -0.711077    0.320989
   6 C     4.0000*   0    12.011   -3.711039   -2.302569    1.817365
   7 C     4.0000*   0    12.011   -2.251888   -1.138515   -2.537766
   8 C     4.0000*   0    12.011   -0.233542    3.774220   -0.662143
   9 C     4.0000*   0    12.011    2.246533    2.533713   -1.531090
  10 O     6.0000*   0    15.999    3.588541    3.605648   -3.072542
  11 H     1.0000    0     1.008    4.368372   -3.772579   -1.417809
  12 H     1.0000    0     1.008    5.636815   -1.271822   -3.330544
  13 H     1.0000    0     1.008    2.457725   -2.311358   -3.819112
  14 H     1.0000    0     1.008    4.768994    0.372042    0.799040
  15 H     1.0000    0     1.008    1.377215   -2.832407    2.390938
  16 H     1.0000    0     1.008    1.931920    2.571930    3.575241
  17 H     1.0000    0     1.008   -0.480355    0.577241    5.036844
  18 H     1.0000    0     1.008   -3.391690    2.841528    2.097195
  19 H     1.0000    0     1.008   -5.660499   -1.695908    1.328054
  20 H     1.0000    0     1.008   -3.501007   -4.333603    1.329109
  21 H     1.0000    0     1.008   -3.498994   -2.129659    3.894784
  22 H     1.0000    0     1.008   -1.089537    0.009006   -3.833285
  23 H     1.0000    0     1.008   -4.249295   -0.667145   -2.978464
  24 H     1.0000    0     1.008   -1.946297   -3.160291   -3.010409
  25 H     1.0000    0     1.008    0.200615    5.620131    0.239122
  26 H     1.0000    0     1.008   -1.477732    4.147042   -2.310302
* core charge reduced due to ECP

--------------------------------
INTERNAL COORDINATES (ANGSTROEM)
--------------------------------
 C      0   0   0     0.000000000000     0.00000000     0.00000000
 C      1   0   0     1.534636952076     0.00000000     0.00000000
 C      2   1   0     1.565019229700   113.14873574     0.00000000
 C      3   2   1     1.543061801741   105.04831655   180.60329272
 C      4   3   2     1.537566880876    86.98235682    89.94101984
 C      5   4   3     1.547411960757    88.68136221    23.83666569
 C      6   5   4     1.550734717752   111.97942650    88.03908524
 C      6   5   4     1.551800831542   117.77548634   213.90495106
 C      5   4   3     1.561454193115   106.59290983   272.42341741
 C      9   5   4     1.537776310727   110.48006191    47.17610219
 O     10   9   5     1.221253905843   119.84936358   179.51830539
 H      1   2   3     1.110617065610   109.84604596   309.06582994
 H      1   2   3     1.110790592340   109.57130511   190.68047662
 H      1   2   3     1.104348807552   113.06765526    70.53262902
 H      2   1   3     1.113158449942   105.68653304   117.11515959
 H      3   2   1     1.112076577173   115.59204006    53.39565056
 H      4   3   2     1.114752930348   116.69611250   332.62044780
 H      4   3   2     1.111635071157   112.75859215   203.28486699
 H      5   4   3     1.111629972646   115.38481036   142.72679677
 H      7   6   5     1.111002194276   110.05994033    71.09575653
 H      7   6   5     1.110970617227   109.87397101   190.58354545
 H      7   6   5     1.108816561930   113.20268418   310.73909006
 H      8   6   5     1.103208818468   115.56946312    47.33167484
 H      8   6   5     1.110772600048   109.40903160   287.75851133
 H      8   6   5     1.110560992639   109.59869734   169.61655420
 H      9   5   4     1.111040092055   109.21621643   287.17249531
 H      9   5   4     1.110444316188   110.01248544   169.19824831

---------------------------
INTERNAL COORDINATES (A.U.)
---------------------------
 C      0   0   0     0.000000000000     0.00000000     0.00000000
 C      1   0   0     2.900043554419     0.00000000     0.00000000
 C      2   1   0     2.957457738454   113.14873574     0.00000000
 C      3   2   1     2.915964213006   105.04831655   180.60329272
 C      4   3   2     2.905580317443    86.98235682    89.94101984
 C      5   4   3     2.924184822185    88.68136221    23.83666569
 C      6   5   4     2.930463922915   111.97942650    88.03908524
 C      6   5   4     2.932478586005   117.77548634   213.90495106
 C      5   4   3     2.950720795650   106.59290983   272.42341741
 C      9   5   4     2.905976082506   110.48006191    47.17610219
 O     10   9   5     2.307835422025   119.84936358   179.51830539
 H      1   2   3     2.098762093663   109.84604596   309.06582994
 H      1   2   3     2.099090011658   109.57130511   190.68047662
 H      1   2   3     2.086916802596   113.06765526    70.53262902
 H      2   1   3     2.103564614050   105.68653304   117.11515959
 H      3   2   1     2.101520170805   115.59204006    53.39565056
 H      4   3   2     2.106577745344   116.69611250   332.62044780
 H      4   3   2     2.100685845349   112.75859215   203.28486699
 H      5   4   3     2.100676210560   115.38481036   142.72679677
 H      7   6   5     2.099489881366   110.05994033    71.09575653
 H      7   6   5     2.099430209392   109.87397101   190.58354545
 H      7   6   5     2.095359634804   113.20268418   310.73909006
 H      8   6   5     2.084762535431   115.56946312    47.33167484
 H      8   6   5     2.099056011154   109.40903160   287.75851133
 H      8   6   5     2.098656131104   109.59869734   169.61655420
 H      9   5   4     2.099561497790   109.21621643   287.17249531
 H      9   5   4     2.098435644565   110.01248544   169.19824831

---------------------
BASIS SET INFORMATION
---------------------
There are 3 groups of distinct atoms

 Group   1 Type C   : 6s6p2d contracted to 2s2p1d pattern {42/42/2}
 Group   2 Type O   : 6s6p2d contracted to 2s2p1d pattern {42/42/2}
 Group   3 Type H   : 8s2p contracted to 2s1p pattern {53/2}

Atom   0C    basis set group =>   1
Atom   1C    basis set group =>   1
Atom   2C    basis set group =>   1
Atom   3C    basis set group =>   1
Atom   4C    basis set group =>   1
Atom   5C    basis set group =>   1
Atom   6C    basis set group =>   1
Atom   7C    basis set group =>   1
Atom   8C    basis set group =>   1
Atom   9C    basis set group =>   1
Atom  10O    basis set group =>   2
Atom  11H    basis set group =>   3
Atom  12H    basis set group =>   3
Atom  13H    basis set group =>   3
Atom  14H    basis set group =>   3
Atom  15H    basis set group =>   3
Atom  16H    basis set group =>   3
Atom  17H    basis set group =>   3
Atom  18H    basis set group =>   3
Atom  19H    basis set group =>   3
Atom  20H    basis set group =>   3
Atom  21H    basis set group =>   3
Atom  22H    basis set group =>   3
Atom  23H    basis set group =>   3
Atom  24H    basis set group =>   3
Atom  25H    basis set group =>   3
Atom  26H    basis set group =>   3
---------------------------------
AUXILIARY/J BASIS SET INFORMATION
---------------------------------
There are 3 groups of distinct atoms

 Group   1 Type C   : 12s5p4d2f1g contracted to 6s4p3d1f1g pattern {711111/2111/211/2/1}
 Group   2 Type O   : 12s5p4d2f1g contracted to 6s4p3d1f1g pattern {711111/2111/211/2/1}
 Group   3 Type H   : 5s2p1d contracted to 3s1p1d pattern {311/2/1}

Atom   0C    basis set group =>   1
Atom   1C    basis set group =>   1
Atom   2C    basis set group =>   1
Atom   3C    basis set group =>   1
Atom   4C    basis set group =>   1
Atom   5C    basis set group =>   1
Atom   6C    basis set group =>   1
Atom   7C    basis set group =>   1
Atom   8C    basis set group =>   1
Atom   9C    basis set group =>   1
Atom  10O    basis set group =>   2
Atom  11H    basis set group =>   3
Atom  12H    basis set group =>   3
Atom  13H    basis set group =>   3
Atom  14H    basis set group =>   3
Atom  15H    basis set group =>   3
Atom  16H    basis set group =>   3
Atom  17H    basis set group =>   3
Atom  18H    basis set group =>   3
Atom  19H    basis set group =>   3
Atom  20H    basis set group =>   3
Atom  21H    basis set group =>   3
Atom  22H    basis set group =>   3
Atom  23H    basis set group =>   3
Atom  24H    basis set group =>   3
Atom  25H    basis set group =>   3
Atom  26H    basis set group =>   3
-------------------------
ECP PARAMETER INFORMATION
-------------------------

 Group 1, Type C  ECP vDZP-ECP (replacing 2 core electrons, lmax=3)
 Group 2, Type O  ECP vDZP-ECP (replacing 2 core electrons, lmax=3)

Atom   0C    ECP group =>   1
Atom   1C    ECP group =>   1
Atom   2C    ECP group =>   1
Atom   3C    ECP group =>   1
Atom   4C    ECP group =>   1
Atom   5C    ECP group =>   1
Atom   6C    ECP group =>   1
Atom   7C    ECP group =>   1
Atom   8C    ECP group =>   1
Atom   9C    ECP group =>   1
Atom  10O    ECP group =>   2



           ************************************************************
           *        Program running with 40 parallel MPI-processes    *
           *              working on a common directory               *
           ************************************************************
------------------------------------------------------------------------------
                             ORCA STARTUP CALCULATIONS
                           -- RI-GTO INTEGRALS CHOSEN --
------------------------------------------------------------------------------
------------------------------------------------------------------------------
                   ___                                                        
                  /   \      - P O W E R E D   B Y -                         
                 /     \                                                     
                 |  |  |   _    _      __       _____    __    __             
                 |  |  |  | |  | |    /  \     |  _  \  |  |  /  |          
                  \  \/   | |  | |   /    \    | | | |  |  | /  /          
                 / \  \   | |__| |  /  /\  \   | |_| |  |  |/  /          
                |  |  |   |  __  | /  /__\  \  |    /   |      \           
                |  |  |   | |  | | |   __   |  |    \   |  |\   \          
                \     /   | |  | | |  |  |  |  | |\  \  |  | \   \       
                 \___/    |_|  |_| |__|  |__|  |_| \__\ |__|  \__/        
                                                                              
                      - O R C A' S   B I G   F R I E N D -                    
                                      &                                       
                       - I N T E G R A L  F E E D E R -                       
                                                                              
 v1 FN, 2020, v2 2021, v3 2022-2024                                           
------------------------------------------------------------------------------


----------------------
SHARK INTEGRAL PACKAGE
----------------------

Number of atoms                             ...     27
Number of basis functions                   ...    223
Number of shells                            ...    103
Maximum angular momentum                    ...      2
Integral batch strategy                     ... SHARK/LIBINT Hybrid
RI-J (if used) integral strategy            ... SPLIT-RIJ (Revised 2003 algorithm where possible)
Printlevel                                  ...      1
Contraction scheme used                     ... SEGMENTED contraction
Prescreening option                         ... SCHWARTZ
   Thresh                                   ... 2.500e-11
   Tcut                                     ... 2.500e-12
   Tpresel                                  ... 2.500e-12 
Coulomb Range Separation                    ... NOT USED
Exchange Range Separation                   ... Long Range
   Mu parameter                             ... 3.000e-01
   Scaling (regular/separated)              ... 1.670e-01 8.330e-01
Multipole approximations                    ... NOT USED
Finite Nucleus Model                        ... NOT USED
CABS basis                                  ... NOT available
Auxiliary Coulomb fitting basis             ... AVAILABLE
   # of basis functions in Aux-J            ...    715
   # of shells in Aux-J                     ...    245
   Maximum angular momentum in Aux-J        ...      4
Auxiliary J/K fitting basis                 ... NOT available
Auxiliary Correlation fitting basis         ... NOT available
Auxiliary 'external' fitting basis          ... NOT available

Checking pre-screening integrals            ... done (  0.0 sec) Dimension = 103
Check shell pair data                       ... done (  0.0 sec)
Shell pair information
Shell pair cut-off parameter TPreSel        ...   2.5e-12
Total number of shell pairs                 ...      5356
Shell pairs after pre-screening             ...      5356
Total number of primitive shell pairs       ...     49844
Primitive shell pairs kept                  ...     42185
          la=0 lb=0:   1485 shell pairs
          la=1 lb=0:   2052 shell pairs
          la=1 lb=1:    741 shell pairs
          la=2 lb=0:    594 shell pairs
          la=2 lb=1:    418 shell pairs
          la=2 lb=2:     66 shell pairs

Calculating one electron integrals          ... done (  0.0 sec)
Calculating ECP integrals                   ... done (  0.1 sec)
Calculating RI/J V-Matrix + Cholesky decomp.... done (  0.0 sec)
Calculating Nuclear repulsion               ... done (  0.0 sec) ENN=    360.890750257685 Eh

Diagonalization of the overlap matrix:
Smallest eigenvalue                        ... 1.220e-03
Time for diagonalization                   ...    0.007 sec
Threshold for overlap eigenvalues          ... 1.000e-07
Number of eigenvalues below threshold      ... 0
Time for construction of square roots      ...    0.004 sec
Total time needed                          ...    0.027 sec

-------------------
DFT GRID GENERATION
-------------------

General Integration Accuracy     IntAcc      ... 4.388
Radial Grid Type                 RadialGrid  ... OptM3 with GC (2021)
Angular Grid (max. ang.)         AngularGrid ... 4 (Lebedev-302)
Angular grid pruning method      GridPruning ... 4 (adaptive)
Weight generation scheme         WeightScheme... mBecke (2022)
Basis function cutoff            BFCut       ... 1.0000e-11
Integration weight cutoff        WCut        ... 1.0000e-14
Partially contracted basis set               ... off
Rotationally invariant grid construction     ... off
Angular grids for H and He will be reduced by one unit

Total number of grid points                  ...   116152
Total number of batches                      ...     1830
Average number of points per batch           ...       63
Average number of grid points per atom       ...     4302

--------------------
COSX GRID GENERATION
--------------------

GRIDX 1
-------
General Integration Accuracy     IntAcc      ... 3.816
Radial Grid Type                 RadialGrid  ... OptM3 with GC (2021)
Angular Grid (max. ang.)         AngularGrid ... 1 (Lebedev-50)
Angular grid pruning method      GridPruning ... 4 (adaptive)
Weight generation scheme         WeightScheme... mBecke (2022)
Basis function cutoff            BFCut       ... 1.0000e-11
Integration weight cutoff        WCut        ... 1.0000e-14
Partially contracted basis set               ... on
Rotationally invariant grid construction     ... off
Angular grids for H and He will be reduced by one unit

Total number of grid points                  ...    14832
Total number of batches                      ...      133
Average number of points per batch           ...      111
Average number of grid points per atom       ...      549
UseSFitting                                  ... on

GRIDX 2
-------
General Integration Accuracy     IntAcc      ... 4.020
Radial Grid Type                 RadialGrid  ... OptM3 with GC (2021)
Angular Grid (max. ang.)         AngularGrid ... 2 (Lebedev-110)
Angular grid pruning method      GridPruning ... 4 (adaptive)
Weight generation scheme         WeightScheme... mBecke (2022)
Basis function cutoff            BFCut       ... 1.0000e-11
Integration weight cutoff        WCut        ... 1.0000e-14
Partially contracted basis set               ... on
Rotationally invariant grid construction     ... off
Angular grids for H and He will be reduced by one unit

Total number of grid points                  ...    30987
Total number of batches                      ...      257
Average number of points per batch           ...      120
Average number of grid points per atom       ...     1148
UseSFitting                                  ... on

GRIDX 3
-------
General Integration Accuracy     IntAcc      ... 4.338
Radial Grid Type                 RadialGrid  ... OptM3 with GC (2021)
Angular Grid (max. ang.)         AngularGrid ... 3 (Lebedev-194)
Angular grid pruning method      GridPruning ... 4 (adaptive)
Weight generation scheme         WeightScheme... mBecke (2022)
Basis function cutoff            BFCut       ... 1.0000e-11
Integration weight cutoff        WCut        ... 1.0000e-14
Partially contracted basis set               ... on
Rotationally invariant grid construction     ... off
Angular grids for H and He will be reduced by one unit

Total number of grid points                  ...    67516
Total number of batches                      ...      539
Average number of points per batch           ...      125
Average number of grid points per atom       ...     2501
UseSFitting                                  ... on
Initializing property integral containers    ... done (  0.0 sec)

SHARK setup successfully completed in   3.6 seconds

Maximum memory used throughout the entire STARTUP-calculation: 35.9 MB


           ************************************************************
           *        Program running with 40 parallel MPI-processes    *
           *              working on a common directory               *
           ************************************************************
-------------------------------------------------------------------------------
                                 ORCA GUESS
                   Start orbitals & Density for SCF / CASSCF
-------------------------------------------------------------------------------

------------
SCF SETTINGS
------------
Hamiltonian:
 Density Functional     Method          .... DFT(GTOs)
 Exchange Functional    Exchange        .... WB97X-V
 Correlation Functional Correlation     .... WB97X-V
 Gradients option       PostSCFGGA      .... off
 Hybrid DFT is turned on
   Fraction HF Exchange ScalHFX         ....  0.167000
   Scaling of DF-GGA-X  ScalDFX         ....  0.000000
   Scaling of DF-GGA-C  ScalDFC         ....  1.000000
   Scaling of DF-LDA-C  ScalLDAC        ....  1.000000
   Perturbative correction              ....  0.000000
 Long-range corrected/Screened/Range-Separated Hybrid DFT is turned on
   Amount of maximum screened exact exchange              ....  0.833000
   Range separation parameter mu (erf(mu*r12)/r12)        ....  0.300000
   NL short-range parameter             ....  6.000000
   NL long-range parameter              ....  0.010000
 RI-approximation to the Coulomb term is turned on
   Number of AuxJ basis functions       .... 715
   RIJ-COSX (HFX calculated with COS-X)).... on


General Settings:
 Integral files         IntName         .... ./output/isopinocamphone/isopinocamphone
 Hartree-Fock type      HFTyp           .... RHF
 Total Charge           Charge          ....    0
 Multiplicity           Mult            ....    1
 Number of Electrons    NEL             ....   62
 Basis Dimension        Dim             ....  223
 Nuclear Repulsion      ENuc            ....    360.8907502577 Eh

Convergence Acceleration:
 AO-DIIS                CNVDIIS         .... on
   Start iteration      DIISMaxIt       ....    12
   Startup error        DIISStart       ....  0.200000
   # of expansion vecs  DIISMaxEq       ....     5
   Bias factor          DIISBfac        ....   1.050
   Max. coefficient     DIISMaxC        ....  10.000
 MO-DIIS                CNVKDIIS        .... off
 Trust-Rad. Augm. Hess. CNVTRAH         .... auto
   Auto Start mean grad. ratio tolernc. ....  1.125000
   Auto Start start iteration           ....    50
   Auto Start num. interpolation iter.  ....    10
   Max. Number of Micro iterations      ....    24
   Max. Number of Macro iterations      .... Maxiter - #DIIS iter
   Number of Davidson start vectors     ....     2
   Converg. threshold    (grad. norm)   ....   1.000e-05
   Grad. Scal. Fac. for Micro threshold ....   0.100
   Minimum threshold for Micro iter.    ....   1.000e-02
   NR start threshold (gradient norm)   ....   1.000e-04
   Initial trust radius                 ....   0.400
   Minimum AH scaling param. (alpha)    ....   1.000
   Maximum AH scaling param. (alpha)    .... 1000.000
   Quad. conv. algorithm                .... NR
   White noise on init. David. guess    .... on
   Maximum white noise                  ....   0.010
   Pseudo random numbers                .... off
   Inactive MOs                         .... canonical
   Orbital update algorithm             .... Taylor
   Preconditioner                       .... Diag
   Full preconditioner red. dimension   ....   250
 SOSCF                  CNVSOSCF        .... on
   Start iteration      SOSCFMaxIt      ....   150
   Startup grad/error   SOSCFStart      ....  0.003300
   Hessian update       SOSCFHessUp     .... L-BFGS
 Level Shifting         CNVShift        .... on
   Level shift para.    LevelShift      ....    0.2500
   Turn off err/grad.   ShiftErr        ....    0.0010
 Zerner damping         CNVZerner       .... off
 Static damping         CNVDamp         .... on
   Fraction old density DampFac         ....    0.7000
   Max. Damping (<1)    DampMax         ....    0.9800
   Min. Damping (>=0)   DampMin         ....    0.0000
   Turn off err/grad.   DampErr         ....    0.1000

SCF Procedure:
 Maximum # iterations   MaxIter         ....   125
 SCF integral mode      SCFMode         .... Direct
   Integral package                     .... SHARK and LIBINT hybrid scheme
 Reset frequency        DirectResetFreq ....    20
 Integral Threshold     Thresh          ....  2.500e-11 Eh
 Primitive CutOff       TCut            ....  2.500e-12 Eh

Convergence Tolerance:
 Convergence Check Mode ConvCheckMode   .... Total+1el-Energy
 Convergence forced     ConvForced      .... 0
 Energy Change          TolE            ....  1.000e-08 Eh
 1-El. energy change                    ....  1.000e-05 Eh
 Orbital Gradient       TolG            ....  1.000e-05
 Orbital Rotation angle TolX            ....  1.000e-05
 DIIS Error             TolErr          ....  5.000e-07

------------------------------
INITIAL GUESS: MODEL POTENTIAL
------------------------------
Loading Hartree-Fock densities                     ... done
Atomic calculation to generate a density for atom 0 (C  with ECP)
  Multiplicity assumed   :    1
  Atomic configuration   : 1s2 2s2 2p2 
  Number of open shells  : 1
  Command: /home/aspe232/Project/Software/ORCA/6_0_1/build/orca ./output/isopinocamphone/isopinocamphone_atom6.inp "" > ./output/isopinocamphone/isopinocamphone_atom6.out
Returned from the atomic calculation with res=0
Atomic calculation to generate a density for atom 10 (O  with ECP)
  Multiplicity assumed   :    3
  Atomic configuration   : 1s2 2s2 2p4 
  Number of open shells  : 1
  Command: /home/aspe232/Project/Software/ORCA/6_0_1/build/orca ./output/isopinocamphone/isopinocamphone_atom8.inp "" > ./output/isopinocamphone/isopinocamphone_atom8.out
Returned from the atomic calculation with res=0
Calculating cut-offs                               ... done
Initializing the effective Hamiltonian             ... done
Setting up the integral package (SHARK)            ... done
Starting the Coulomb interaction                   ... done (   0.1 sec)
Making the grid                                    ... done (   0.8 sec)
Mapping shells                                     ... done
Starting the XC term evaluation                    ... done (   0.0 sec)
  promolecular density results
     # of electrons  =     83.992302870
     EX              =    -42.634038927
     EC              =     -3.405331447
     EX+EC           =    -46.039370374
Transforming the Hamiltonian                       ... done (   0.0 sec)
Diagonalizing the Hamiltonian                      ... done (   0.0 sec)
Back transforming the eigenvectors                 ... done (   0.0 sec)
Now organizing SCF variables                       ... done
                      ------------------
                      INITIAL GUESS DONE (   4.1 sec)
                      ------------------
             **** ENERGY FILE WAS UPDATED (./output/isopinocamphone/isopinocamphone.en.tmp) ****
Finished Guess after   4.6 sec
Maximum memory used throughout the entire GUESS-calculation: 22.3 MB


           ************************************************************
           *        Program running with 40 parallel MPI-processes    *
           *              working on a common directory               *
           ************************************************************

-------------------------------------------------------------------------------------------
                                      ORCA LEAN-SCF
                              memory conserving SCF solver
-------------------------------------------------------------------------------------------

----------------------------------------D-I-I-S--------------------------------------------
Iteration    Energy (Eh)           Delta-E    RMSDP     MaxDP     DIISErr   Damp  Time(sec)
-------------------------------------------------------------------------------------------
               ***  Starting incremental Fock matrix formation  ***
    1    -82.1778961919206381     0.00e+00  3.71e-03  6.98e-02  1.79e-01  0.700   4.7
    2    -82.3630327935784976    -1.85e-01  2.70e-03  5.12e-02  1.09e-01  0.700   3.8
                               ***Turning on AO-DIIS***
    3    -82.4566270895167577    -9.36e-02  1.42e-03  2.57e-02  5.80e-02  0.700   3.6
    4    -82.5117270407987462    -5.51e-02  3.08e-03  5.50e-02  3.60e-02  0.000   3.7
    5    -82.6283916144872137    -1.17e-01  2.54e-04  4.45e-03  4.18e-03  0.000   3.7
                              *** Initializing SOSCF ***
---------------------------------------S-O-S-C-F--------------------------------------
Iteration    Energy (Eh)           Delta-E    RMSDP     MaxDP     MaxGrad    Time(sec)
--------------------------------------------------------------------------------------
    6    -82.6287319002387903    -3.40e-04  1.20e-04  3.07e-03  2.21e-03     3.8
               *** Restarting incremental Fock matrix formation ***
    7    -82.6287775319291313    -4.56e-05  7.65e-05  2.40e-03  1.01e-03     5.3
    8    -82.6287906512189920    -1.31e-05  5.13e-05  1.54e-03  2.79e-04     4.2
    9    -82.6287958771338822    -5.23e-06  1.56e-05  3.32e-04  1.00e-04     4.4
   10    -82.6287963422383314    -4.65e-07  6.49e-06  1.48e-04  4.57e-05     4.1
   11    -82.6287964583644907    -1.16e-07  2.15e-06  4.83e-05  1.20e-05     3.8
   12    -82.6287964905756667    -3.22e-08  4.61e-07  1.24e-05  4.77e-06     3.8
   13    -82.6287964777648085     1.28e-08  2.57e-07  5.28e-06  2.61e-06     3.6
   14    -82.6287964823676475    -4.60e-09  1.07e-07  3.98e-06  1.52e-06     3.5
                 **** Energy Check signals convergence ****

               *****************************************************
               *                     SUCCESS                       *
               *           SCF CONVERGED AFTER  14 CYCLES          *
               *****************************************************

Recomputing exchange energy using gridx3       ... done (    4.284 sec)
Old exchange energy                            :    -11.920181516 Eh
New exchange energy                            :    -11.920144762 Eh
Exchange energy change after final integration :      0.000036754 Eh
Total energy after final integration           :    -82.628759728 Eh
             **** ENERGY FILE WAS UPDATED (./output/isopinocamphone/isopinocamphone.en.tmp) ****

----------------
TOTAL SCF ENERGY
----------------

Total Energy       :        -82.62875972805467 Eh           -2248.44286 eV

Components:
Nuclear Repulsion  :        360.89075025768540 Eh            9820.33657 eV
Electronic Energy  :       -443.51954674005304 Eh          -12068.78043 eV
One Electron Energy:       -840.23838655820623 Eh          -22864.04888 eV
Two Electron Energy:        396.71883981815319 Eh           10795.26845 eV

Virial components:
Potential Energy   :       -146.87745870200774 Eh           -3996.73884 eV
Kinetic Energy     :         64.24869897395305 Eh            1748.29598 eV
Virial Ratio       :          2.28607677739207

DFT components:
N(Alpha)           :       30.999917313083 electrons
N(Beta)            :       30.999917313083 electrons
N(Total)           :       61.999834626167 electrons
E(X)               :      -12.640427707421 Eh       
E(C)               :       -2.348187867255 Eh       
E(XC)              :      -14.988615574675 Eh       

---------------
SCF CONVERGENCE
---------------

  Last Energy change         ...    4.6028e-09  Tolerance :   1.0000e-08
  Last MAX-Density change    ...    3.9839e-06  Tolerance :   1.0000e-07
  Last RMS-Density change    ...    1.0676e-07  Tolerance :   5.0000e-09
  Last DIIS Error            ...    2.2124e-03  Tolerance :   5.0000e-07
  Last Orbital Gradient      ...    1.5167e-06  Tolerance :   1.0000e-05
  Last Orbital Rotation      ...    6.2662e-06  Tolerance :   1.0000e-05


----------------
ORBITAL ENERGIES
----------------

  NO   OCC          E(Eh)            E(eV) 
   0   2.0000      -1.163557       -31.6620 
   1   2.0000      -1.032505       -28.0959 
   2   2.0000      -0.919379       -25.0176 
   3   2.0000      -0.897369       -24.4187 
   4   2.0000      -0.870677       -23.6923 
   5   2.0000      -0.816690       -22.2233 
   6   2.0000      -0.795998       -21.6602 
   7   2.0000      -0.745544       -20.2873 
   8   2.0000      -0.734522       -19.9873 
   9   2.0000      -0.675599       -18.3840 
  10   2.0000      -0.616222       -16.7682 
  11   2.0000      -0.605070       -16.4648 
  12   2.0000      -0.583003       -15.8643 
  13   2.0000      -0.579250       -15.7622 
  14   2.0000      -0.570899       -15.5350 
  15   2.0000      -0.548542       -14.9266 
  16   2.0000      -0.533427       -14.5153 
  17   2.0000      -0.527221       -14.3464 
  18   2.0000      -0.518855       -14.1188 
  19   2.0000      -0.504951       -13.7404 
  20   2.0000      -0.494321       -13.4512 
  21   2.0000      -0.489476       -13.3193 
  22   2.0000      -0.486724       -13.2444 
  23   2.0000      -0.471466       -12.8293 
  24   2.0000      -0.468669       -12.7531 
  25   2.0000      -0.448171       -12.1953 
  26   2.0000      -0.420917       -11.4537 
  27   2.0000      -0.410888       -11.1808 
  28   2.0000      -0.401371       -10.9219 
  29   2.0000      -0.391441       -10.6517 
  30   2.0000      -0.351757        -9.5718 
  31   0.0000       0.052126         1.4184 
  32   0.0000       0.081194         2.2094 
  33   0.0000       0.094507         2.5717 
  34   0.0000       0.098261         2.6738 
  35   0.0000       0.104719         2.8495 
  36   0.0000       0.122855         3.3431 
  37   0.0000       0.125456         3.4138 
  38   0.0000       0.129197         3.5156 
  39   0.0000       0.134859         3.6697 
  40   0.0000       0.150086         4.0840 
  41   0.0000       0.159519         4.3407 
*Only the first 10 virtual orbitals were printed.

                    ********************************
                    * MULLIKEN POPULATION ANALYSIS *
                    ********************************

-----------------------
MULLIKEN ATOMIC CHARGES
-----------------------
   0 C :   -0.054846
   1 C :   -0.129304
   2 C :   -0.025183
   3 C :   -0.049042
   4 C :   -0.040681
   5 C :   -0.155862
   6 C :   -0.051597
   7 C :   -0.052808
   8 C :   -0.076867
   9 C :    0.201505
  10 O :   -0.309854
  11 H :    0.039582
  12 H :    0.056985
  13 H :    0.030877
  14 H :    0.073827
  15 H :    0.045267
  16 H :    0.040554
  17 H :    0.042155
  18 H :    0.045826
  19 H :    0.039428
  20 H :    0.040258
  21 H :    0.027734
  22 H :    0.041256
  23 H :    0.039431
  24 H :    0.043617
  25 H :    0.071045
  26 H :    0.066696
Sum of atomic charges:    0.0000000

--------------------------------
MULLIKEN REDUCED ORBITAL CHARGES
--------------------------------
  0 C s       :     0.956730  s :     0.956730
      pz      :     1.000810  p :     3.025840
      px      :     1.038443
      py      :     0.986587
      dz2     :     0.007923  d :     0.072276
      dxz     :     0.022088
      dyz     :     0.017467
      dx2y2   :     0.015129
      dxy     :     0.009668

  1 C s       :     1.041952  s :     1.041952
      pz      :     1.011358  p :     2.971898
      px      :     1.011460
      py      :     0.949079
      dz2     :     0.017908  d :     0.115454
      dxz     :     0.028962
      dyz     :     0.025054
      dx2y2   :     0.023665
      dxy     :     0.019864

  2 C s       :     1.048242  s :     1.048242
      pz      :     0.954203  p :     2.859483
      px      :     0.923265
      py      :     0.982015
      dz2     :     0.016658  d :     0.117458
      dxz     :     0.024071
      dyz     :     0.026579
      dx2y2   :     0.028820
      dxy     :     0.021330

  3 C s       :     1.010406  s :     1.010406
      pz      :     0.969311  p :     2.942471
      px      :     0.993986
      py      :     0.979175
      dz2     :     0.018820  d :     0.096165
      dxz     :     0.021523
      dyz     :     0.020198
      dx2y2   :     0.012431
      dxy     :     0.023193

  4 C s       :     1.053822  s :     1.053822
      pz      :     0.953274  p :     2.867576
      px      :     0.982361
      py      :     0.931941
      dz2     :     0.019846  d :     0.119283
      dxz     :     0.025117
      dyz     :     0.023990
      dx2y2   :     0.023402
      dxy     :     0.026928

  5 C s       :     1.099960  s :     1.099960
      pz      :     0.985908  p :     2.911121
      px      :     0.957436
      py      :     0.967777
      dz2     :     0.033488  d :     0.144781
      dxz     :     0.029768
      dyz     :     0.027477
      dx2y2   :     0.032696
      dxy     :     0.021353

  6 C s       :     0.958610  s :     0.958610
      pz      :     1.010296  p :     3.019447
      px      :     0.995341
      py      :     1.013810
      dz2     :     0.025231  d :     0.073540
      dxz     :     0.008213
      dyz     :     0.006733
      dx2y2   :     0.024026
      dxy     :     0.009338

  7 C s       :     0.945139  s :     0.945139
      pz      :     0.957095  p :     3.035492
      px      :     1.042201
      py      :     1.036195
      dz2     :     0.017362  d :     0.072178
      dxz     :     0.015522
      dyz     :     0.015675
      dx2y2   :     0.017035
      dxy     :     0.006584

  8 C s       :     1.000584  s :     1.000584
      pz      :     1.018402  p :     2.988321
      px      :     0.956168
      py      :     1.013751
      dz2     :     0.015411  d :     0.087962
      dxz     :     0.022350
      dyz     :     0.016490
      dx2y2   :     0.016946
      dxy     :     0.016766

  9 C s       :     1.136170  s :     1.136170
      pz      :     0.760407  p :     2.460020
      px      :     0.840178
      py      :     0.859434
      dz2     :     0.035037  d :     0.202306
      dxz     :     0.035679
      dyz     :     0.039453
      dx2y2   :     0.057522
      dxy     :     0.034615

 10 O s       :     1.790389  s :     1.790389
      pz      :     1.325909  p :     4.483565
      px      :     1.543932
      py      :     1.613723
      dz2     :     0.010908  d :     0.035900
      dxz     :     0.007368
      dyz     :     0.006011
      dx2y2   :     0.004668
      dxy     :     0.006945

 11 H s       :     0.916782  s :     0.916782
      pz      :     0.012227  p :     0.043636
      px      :     0.011002
      py      :     0.020406

 12 H s       :     0.899783  s :     0.899783
      pz      :     0.013007  p :     0.043232
      px      :     0.018900
      py      :     0.011325

 13 H s       :     0.923127  s :     0.923127
      pz      :     0.017396  p :     0.045996
      px      :     0.017829
      py      :     0.010771

 14 H s       :     0.885109  s :     0.885109
      pz      :     0.013246  p :     0.041064
      px      :     0.018188
      py      :     0.009630

 15 H s       :     0.914148  s :     0.914148
      pz      :     0.012317  p :     0.040584
      px      :     0.008737
      py      :     0.019531

 16 H s       :     0.916417  s :     0.916417
      pz      :     0.009163  p :     0.043029
      px      :     0.017824
      py      :     0.016042

 17 H s       :     0.913799  s :     0.913799
      pz      :     0.019704  p :     0.044046
      px      :     0.012615
      py      :     0.011728

 18 H s       :     0.913392  s :     0.913392
      pz      :     0.011443  p :     0.040782
      px      :     0.018771
      py      :     0.010568

 19 H s       :     0.917630  s :     0.917630
      pz      :     0.010531  p :     0.042942
      px      :     0.021862
      py      :     0.010549

 20 H s       :     0.916808  s :     0.916808
      pz      :     0.010527  p :     0.042933
      px      :     0.009554
      py      :     0.022853

 21 H s       :     0.927684  s :     0.927684
      pz      :     0.023686  p :     0.044582
      px      :     0.010415
      py      :     0.010481

 22 H s       :     0.911755  s :     0.911755
      pz      :     0.016665  p :     0.046989
      px      :     0.015090
      py      :     0.015235

 23 H s       :     0.917602  s :     0.917602
      pz      :     0.010307  p :     0.042968
      px      :     0.022229
      py      :     0.010432

 24 H s       :     0.913169  s :     0.913169
      pz      :     0.010386  p :     0.043215
      px      :     0.010142
      py      :     0.022687

 25 H s       :     0.885627  s :     0.885627
      pz      :     0.012113  p :     0.043328
      px      :     0.010425
      py      :     0.020791

 26 H s       :     0.889524  s :     0.889524
      pz      :     0.018953  p :     0.043780
      px      :     0.014802
      py      :     0.010025



                     *******************************
                     * LOEWDIN POPULATION ANALYSIS *
                     *******************************

----------------------
LOEWDIN ATOMIC CHARGES
----------------------
   0 C :   -0.106523
   1 C :   -0.069268
   2 C :   -0.036564
   3 C :   -0.068344
   4 C :   -0.046199
   5 C :   -0.060041
   6 C :   -0.107482
   7 C :   -0.111873
   8 C :   -0.068515
   9 C :    0.029671
  10 O :   -0.136503
  11 H :    0.050199
  12 H :    0.054951
  13 H :    0.043278
  14 H :    0.065997
  15 H :    0.039602
  16 H :    0.040560
  17 H :    0.042040
  18 H :    0.038746
  19 H :    0.048343
  20 H :    0.048830
  21 H :    0.046113
  22 H :    0.041803
  23 H :    0.050123
  24 H :    0.049144
  25 H :    0.062843
  26 H :    0.059070

-------------------------------
LOEWDIN REDUCED ORBITAL CHARGES
-------------------------------
  0 C s       :     0.777665  s :     0.777665
      pz      :     1.018314  p :     3.089246
      px      :     1.060223
      py      :     1.010709
      dz2     :     0.027730  d :     0.239612
      dxz     :     0.074650
      dyz     :     0.055070
      dx2y2   :     0.049873
      dxy     :     0.032289

  1 C s       :     0.766099  s :     0.766099
      pz      :     0.988330  p :     2.945240
      px      :     0.997437
      py      :     0.959473
      dz2     :     0.054805  d :     0.357929
      dxz     :     0.089855
      dyz     :     0.076695
      dx2y2   :     0.074037
      dxy     :     0.062537

  2 C s       :     0.764143  s :     0.764143
      pz      :     0.958563  p :     2.901086
      px      :     0.941435
      py      :     1.001088
      dz2     :     0.057693  d :     0.371335
      dxz     :     0.075195
      dyz     :     0.077133
      dx2y2   :     0.090279
      dxy     :     0.071033

  3 C s       :     0.766816  s :     0.766816
      pz      :     1.000899  p :     2.985753
      px      :     1.000922
      py      :     0.983933
      dz2     :     0.068919  d :     0.315775
      dxz     :     0.069985
      dyz     :     0.065176
      dx2y2   :     0.038010
      dxy     :     0.073685

  4 C s       :     0.762613  s :     0.762613
      pz      :     0.955144  p :     2.906289
      px      :     0.999456
      py      :     0.951689
      dz2     :     0.066947  d :     0.377298
      dxz     :     0.072498
      dyz     :     0.075046
      dx2y2   :     0.072466
      dxy     :     0.090340

  5 C s       :     0.755376  s :     0.755376
      pz      :     0.953672  p :     2.867600
      px      :     0.953040
      py      :     0.960888
      dz2     :     0.097646  d :     0.437065
      dxz     :     0.090541
      dyz     :     0.084028
      dx2y2   :     0.096537
      dxy     :     0.068313

  6 C s       :     0.778867  s :     0.778867
      pz      :     1.039730  p :     3.088384
      px      :     1.015724
      py      :     1.032930
      dz2     :     0.083174  d :     0.240231
      dxz     :     0.026769
      dyz     :     0.021918
      dx2y2   :     0.078792
      dxy     :     0.029578

  7 C s       :     0.777552  s :     0.777552
      pz      :     0.978280  p :     3.096002
      px      :     1.059149
      py      :     1.058573
      dz2     :     0.057336  d :     0.238319
      dxz     :     0.052524
      dyz     :     0.052876
      dx2y2   :     0.054439
      dxy     :     0.021144

  8 C s       :     0.777513  s :     0.777513
      pz      :     1.022216  p :     3.008028
      px      :     0.976009
      py      :     1.009803
      dz2     :     0.048024  d :     0.282974
      dxz     :     0.072374
      dyz     :     0.052171
      dx2y2   :     0.056688
      dxy     :     0.053717

  9 C s       :     0.804087  s :     0.804087
      pz      :     0.793238  p :     2.602585
      px      :     0.900186
      py      :     0.909161
      dz2     :     0.084717  d :     0.563657
      dxz     :     0.112167
      dyz     :     0.115886
      dx2y2   :     0.152516
      dxy     :     0.098371

 10 O s       :     1.532138  s :     1.532138
      pz      :     1.387017  p :     4.528550
      px      :     1.554712
      py      :     1.586821
      dz2     :     0.014386  d :     0.075815
      dxz     :     0.019175
      dyz     :     0.016408
      dx2y2   :     0.013381
      dxy     :     0.012466

 11 H s       :     0.804597  s :     0.804597
      pz      :     0.043547  p :     0.145205
      px      :     0.042443
      py      :     0.059215

 12 H s       :     0.798550  s :     0.798550
      pz      :     0.045716  p :     0.146499
      px      :     0.058506
      py      :     0.042276

 13 H s       :     0.805005  s :     0.805005
      pz      :     0.053893  p :     0.151716
      px      :     0.057045
      py      :     0.040778

 14 H s       :     0.784543  s :     0.784543
      pz      :     0.048566  p :     0.149459
      px      :     0.060337
      py      :     0.040557

 15 H s       :     0.814031  s :     0.814031
      pz      :     0.045683  p :     0.146367
      px      :     0.037281
      py      :     0.063404

 16 H s       :     0.815233  s :     0.815233
      pz      :     0.037181  p :     0.144207
      px      :     0.055825
      py      :     0.051201

 17 H s       :     0.809086  s :     0.809086
      pz      :     0.058363  p :     0.148874
      px      :     0.046371
      py      :     0.044140

 18 H s       :     0.814286  s :     0.814286
      pz      :     0.044041  p :     0.146968
      px      :     0.061095
      py      :     0.041832

 19 H s       :     0.806284  s :     0.806284
      pz      :     0.040983  p :     0.145373
      px      :     0.063457
      py      :     0.040934

 20 H s       :     0.805598  s :     0.805598
      pz      :     0.041068  p :     0.145572
      px      :     0.039022
      py      :     0.065482

 21 H s       :     0.805818  s :     0.805818
      pz      :     0.066885  p :     0.148069
      px      :     0.040217
      py      :     0.040967

 22 H s       :     0.803900  s :     0.803900
      pz      :     0.050005  p :     0.154297
      px      :     0.052664
      py      :     0.051629

 23 H s       :     0.802912  s :     0.802912
      pz      :     0.039813  p :     0.146964
      px      :     0.065495
      py      :     0.041656

 24 H s       :     0.804122  s :     0.804122
      pz      :     0.040303  p :     0.146734
      px      :     0.041013
      py      :     0.065419

 25 H s       :     0.790270  s :     0.790270
      pz      :     0.043405  p :     0.146887
      px      :     0.039626
      py      :     0.063856

 26 H s       :     0.792851  s :     0.792851
      pz      :     0.058850  p :     0.148079
      px      :     0.047662
      py      :     0.041567



                      *****************************
                      * MAYER POPULATION ANALYSIS *
                      *****************************

  NA   - Mulliken gross atomic population
  ZA   - Total nuclear charge
  QA   - Mulliken gross atomic charge
  VA   - Mayer's total valence
  BVA  - Mayer's bonded valence
  FA   - Mayer's free valence

  ATOM       NA         ZA         QA         VA         BVA        FA
  0 C      4.0548     4.0000    -0.0548     3.9684     3.9684     0.0000
  1 C      4.1293     4.0000    -0.1293     4.0282     4.0282     0.0000
  2 C      4.0252     4.0000    -0.0252     3.9012     3.9012     0.0000
  3 C      4.0490     4.0000    -0.0490     3.9304     3.9304    -0.0000
  4 C      4.0407     4.0000    -0.0407     3.9231     3.9231    -0.0000
  5 C      4.1559     4.0000    -0.1559     4.0233     4.0233     0.0000
  6 C      4.0516     4.0000    -0.0516     3.9802     3.9802     0.0000
  7 C      4.0528     4.0000    -0.0528     3.9560     3.9560     0.0000
  8 C      4.0769     4.0000    -0.0769     3.9796     3.9796     0.0000
  9 C      3.7985     4.0000     0.2015     3.9610     3.9610     0.0000
 10 O      6.3099     6.0000    -0.3099     2.0171     2.0171     0.0000
 11 H      0.9604     1.0000     0.0396     1.0259     1.0259     0.0000
 12 H      0.9430     1.0000     0.0570     1.0276     1.0276     0.0000
 13 H      0.9691     1.0000     0.0309     1.0350     1.0350     0.0000
 14 H      0.9262     1.0000     0.0738     1.0146     1.0146     0.0000
 15 H      0.9547     1.0000     0.0453     1.0165     1.0165     0.0000
 16 H      0.9594     1.0000     0.0406     1.0247     1.0247    -0.0000
 17 H      0.9578     1.0000     0.0422     1.0317     1.0317    -0.0000
 18 H      0.9542     1.0000     0.0458     1.0194     1.0194    -0.0000
 19 H      0.9606     1.0000     0.0394     1.0265     1.0265     0.0000
 20 H      0.9597     1.0000     0.0403     1.0261     1.0261     0.0000
 21 H      0.9723     1.0000     0.0277     1.0334     1.0334     0.0000
 22 H      0.9587     1.0000     0.0413     1.0118     1.0118     0.0000
 23 H      0.9606     1.0000     0.0394     1.0304     1.0304     0.0000
 24 H      0.9564     1.0000     0.0436     1.0210     1.0210     0.0000
 25 H      0.9290     1.0000     0.0710     1.0311     1.0311     0.0000
 26 H      0.9333     1.0000     0.0667     1.0294     1.0294    -0.0000

  Mayer bond orders larger than 0.100000
B(  0-C ,  1-C ) :   0.9968 B(  0-C , 11-H ) :   0.9944 B(  0-C , 12-H ) :   0.9899 
B(  0-C , 13-H ) :   0.9951 B(  1-C ,  2-C ) :   0.9920 B(  1-C ,  9-C ) :   0.9882 
B(  1-C , 14-H ) :   0.9765 B(  2-C ,  3-C ) :   0.9804 B(  2-C ,  5-C ) :   0.9512 
B(  2-C , 15-H ) :   1.0029 B(  3-C ,  4-C ) :   0.9753 B(  3-C , 16-H ) :   1.0030 
B(  3-C , 17-H ) :   1.0062 B(  4-C ,  5-C ) :   0.9540 B(  4-C ,  8-C ) :   1.0000 
B(  4-C , 18-H ) :   1.0032 B(  5-C ,  6-C ) :   1.0293 B(  5-C ,  7-C ) :   1.0113 
B(  6-C , 19-H ) :   0.9936 B(  6-C , 20-H ) :   0.9938 B(  6-C , 21-H ) :   0.9941 
B(  7-C , 22-H ) :   0.9916 B(  7-C , 23-H ) :   0.9905 B(  7-C , 24-H ) :   0.9919 
B(  8-C ,  9-C ) :   0.9983 B(  8-C , 25-H ) :   0.9780 B(  8-C , 26-H ) :   0.9812 
B(  9-C , 10-O ) :   1.9169 

-------
TIMINGS
-------

Total SCF time: 0 days 0 hours 1 min 5 sec 

Total time                  ....      65.178 sec
Sum of individual times     ....      63.003 sec  ( 96.7%)

SCF preparation             ....       2.598 sec  (  4.0%)
Fock matrix formation       ....      58.758 sec  ( 90.2%)
  Startup                   ....       0.248 sec  (  0.4% of F)
  Split-RI-J                ....       1.815 sec  (  3.1% of F)
  Chain of spheres X        ....      28.330 sec  ( 48.2% of F)
  XC integration            ....      27.560 sec  ( 46.9% of F)
    XC Preparation          ....       0.000 sec  (  0.0% of XC)
    Basis function eval.    ....       0.657 sec  (  2.4% of XC)
    Density eval.           ....       0.308 sec  (  1.1% of XC)
    XC-Functional eval.     ....       0.198 sec  (  0.7% of XC)
    XC-Potential eval.      ....       0.346 sec  (  1.3% of XC)
Diagonalization             ....       0.000 sec  (  0.0%)
Density matrix formation    ....       0.262 sec  (  0.4%)
Total Energy calculation    ....       0.302 sec  (  0.5%)
Population analysis         ....       0.153 sec  (  0.2%)
Orbital Transformation      ....       0.066 sec  (  0.1%)
Orbital Orthonormalization  ....       0.000 sec  (  0.0%)
DIIS solution               ....       0.526 sec  (  0.8%)
SOSCF solution              ....       0.337 sec  (  0.5%)
Finished LeanSCF after  65.3 sec

Maximum memory used throughout the entire LEANSCF-calculation: 42.5 MB


[...]
 25:    863.79   0.000225    1.14  0.000081  ( 0.002647 -0.008613  0.000262)
 26:    880.40   0.000324    1.64  0.000115  (-0.003203 -0.003298 -0.009679)
 27:    897.96   0.000797    4.03  0.000277  ( 0.016150  0.003260 -0.002326)
 28:    921.63   0.000671    3.39  0.000227  (-0.009060  0.011936 -0.001583)
 29:    957.63   0.001095    5.53  0.000357  (-0.001806  0.000378 -0.018800)
 30:    983.07   0.000139    0.70  0.000044  (-0.000996 -0.004241  0.005023)
 31:    985.13   0.000225    1.14  0.000071  (-0.002093 -0.000141  0.008181)
 32:   1008.61   0.001019    5.15  0.000315  ( 0.014712  0.007771 -0.006190)
 33:   1038.84   0.000438    2.21  0.000132  (-0.010610  0.002191  0.003766)
 34:   1044.00   0.001359    6.87  0.000406  (-0.004567 -0.016462  0.010689)
 35:   1068.69   0.000478    2.42  0.000140  ( 0.005954 -0.009166 -0.004498)
 36:   1080.98   0.000053    0.27  0.000015  (-0.000772 -0.003248  0.002030)
 37:   1101.74   0.002077   10.50  0.000588  (-0.016331  0.017631  0.003281)
 38:   1142.44   0.001988   10.05  0.000543  (-0.013691  0.018859  0.000065)
 39:   1152.71   0.001220    6.17  0.000330  (-0.015502  0.009353  0.001598)
 40:   1189.93   0.000456    2.31  0.000120  ( 0.000376 -0.010545  0.002880)
 41:   1218.31   0.000793    4.01  0.000203  ( 0.010720 -0.009391  0.000359)
 42:   1244.41   0.000649    3.28  0.000163  (-0.009745  0.008012 -0.001895)
 43:   1247.99   0.002953   14.93  0.000738  ( 0.019753 -0.018661  0.000292)
 44:   1269.83   0.000949    4.79  0.000233  (-0.007761  0.012610  0.003731)
 45:   1284.97   0.000211    1.06  0.000051  ( 0.000475  0.005197  0.004891)
 46:   1299.61   0.000075    0.38  0.000018  ( 0.002658  0.003286  0.000382)
 47:   1336.72   0.000612    3.09  0.000143  (-0.010941  0.004805  0.000164)
 48:   1344.26   0.000591    2.99  0.000137  ( 0.009864  0.003479  0.005275)
 49:   1369.42   0.000301    1.52  0.000069  ( 0.004073  0.006946 -0.001962)
 50:   1381.35   0.000491    2.48  0.000111  ( 0.003185 -0.006927 -0.007267)
 51:   1401.32   0.002809   14.20  0.000626  ( 0.017679 -0.017153  0.004334)
 52:   1416.00   0.001510    7.63  0.000333  ( 0.005188 -0.017364 -0.002113)
 53:   1438.97   0.001973    9.97  0.000428  (-0.013968  0.010228  0.011326)
 54:   1442.82   0.002629   13.29  0.000569  (-0.009917 -0.007668  0.020286)
 55:   1457.75   0.002610   13.19  0.000559  ( 0.012668  0.014208  0.014018)
 56:   1486.41   0.003145   15.89  0.000660  ( 0.009664 -0.023050  0.005957)
 57:   1514.11   0.000466    2.36  0.000096  (-0.009415  0.002346  0.001384)
 58:   1517.46   0.000857    4.33  0.000176  ( 0.000637  0.006728 -0.011431)
 59:   1526.56   0.000856    4.33  0.000175  ( 0.008789  0.009483  0.002797)
 60:   1532.30   0.001849    9.34  0.000377  ( 0.007264 -0.009665  0.015177)
 61:   1540.49   0.000568    2.87  0.000115  (-0.008365  0.003732  0.005584)
 62:   1545.93   0.002515   12.71  0.000508  (-0.014864  0.015809  0.006069)
 63:   1549.82   0.002756   13.93  0.000555  ( 0.014468  0.002278  0.018449)
 64:   1864.56   0.043674  220.71  0.007309  ( 0.045572  0.038382 -0.061315)
 65:   3073.84   0.002126   10.74  0.000216  (-0.010311 -0.009586 -0.004197)
 66:   3095.90   0.003783   19.12  0.000381  ( 0.003025  0.004719 -0.018707)
 67:   3100.13   0.008756   44.25  0.000881  ( 0.023815  0.016772  0.005740)
 68:   3114.01   0.002339   11.82  0.000234  (-0.008152 -0.010900  0.007009)
 69:   3118.15   0.003001   15.16  0.000300  (-0.010474  0.011893  0.007010)
 70:   3120.89   0.006624   33.48  0.000662  (-0.007791 -0.018987 -0.015529)
 71:   3128.80   0.013176   66.58  0.001314  ( 0.022691 -0.026504  0.009838)
 72:   3136.48   0.004872   24.62  0.000485  (-0.010547  0.011896  0.015231)
 73:   3175.36   0.000572    2.89  0.000056  (-0.001336  0.005235  0.005195)
 74:   3175.69   0.001204    6.09  0.000118  (-0.009279  0.003105 -0.004754)
 75:   3181.06   0.005628   28.44  0.000552  (-0.015675  0.017502  0.000233)
 76:   3200.95   0.002177   11.00  0.000212  (-0.011077 -0.008620 -0.003897)
 77:   3207.65   0.002007   10.14  0.000195  (-0.011132 -0.000935 -0.008392)
 78:   3210.10   0.003571   18.05  0.000347  ( 0.010275  0.013023 -0.008484)
 79:   3214.79   0.005258   26.57  0.000510  ( 0.006014  0.003979 -0.021410)
 80:   3225.56   0.001003    5.07  0.000097  ( 0.008684  0.003446  0.003127)

* The epsilon (eps) is given for a Dirac delta lineshape.
** The dipole moment derivative (T) already includes vibrational overlap.

The first frequency considered to be a vibration is 6
The total number of vibrations considered is 75


--------------------------
THERMOCHEMISTRY AT 298.15K
--------------------------

Temperature         ...   298.15 K
Pressure            ...     1.00 atm
Total Mass          ...   152.24 AMU
Quasi RRHO          ...     True
Cut-Off Frequency   ...     1.00 cm^-1

Throughout the following assumptions are being made:
  (1) The electronic state is orbitally nondegenerate
  (2) There are no thermally accessible electronically excited states
  (3) Hindered rotations indicated by low frequency modes are not
      treated as such but are treated as vibrations and this may
      cause some error
  (4) All equations used are the standard statistical mechanics
      equations for an ideal gas
  (5) All vibrations are strictly harmonic

freq.      85.50  E(vib)   ...       0.48 
freq.     173.31  E(vib)   ...       0.38 
freq.     191.88  E(vib)   ...       0.36 
freq.     208.11  E(vib)   ...       0.34 
freq.     213.33  E(vib)   ...       0.34 
freq.     257.09  E(vib)   ...       0.30 
freq.     290.34  E(vib)   ...       0.27 
freq.     309.60  E(vib)   ...       0.26 
freq.     363.14  E(vib)   ...       0.22 
freq.     383.12  E(vib)   ...       0.20 
freq.     406.76  E(vib)   ...       0.19 
freq.     419.77  E(vib)   ...       0.18 
freq.     459.00  E(vib)   ...       0.16 
freq.     502.08  E(vib)   ...       0.14 
freq.     561.89  E(vib)   ...       0.11 
freq.     594.95  E(vib)   ...       0.10 
freq.     645.91  E(vib)   ...       0.09 
freq.     685.77  E(vib)   ...       0.07 
freq.     728.83  E(vib)   ...       0.06 
freq.     863.79  E(vib)   ...       0.04 
freq.     880.40  E(vib)   ...       0.04 
freq.     897.96  E(vib)   ...       0.03 
freq.     921.63  E(vib)   ...       0.03 
freq.     957.63  E(vib)   ...       0.03 
freq.     983.07  E(vib)   ...       0.02 
freq.     985.13  E(vib)   ...       0.02 
freq.    1008.61  E(vib)   ...       0.02 
freq.    1038.84  E(vib)   ...       0.02 
freq.    1044.00  E(vib)   ...       0.02 
freq.    1068.69  E(vib)   ...       0.02 
freq.    1080.98  E(vib)   ...       0.02 
freq.    1101.74  E(vib)   ...       0.02 
freq.    1142.44  E(vib)   ...       0.01 
freq.    1152.71  E(vib)   ...       0.01 
freq.    1189.93  E(vib)   ...       0.01 
freq.    1218.31  E(vib)   ...       0.01 
freq.    1244.41  E(vib)   ...       0.01 
freq.    1247.99  E(vib)   ...       0.01 
freq.    1269.83  E(vib)   ...       0.01 
freq.    1284.97  E(vib)   ...       0.01 
freq.    1299.61  E(vib)   ...       0.01 
freq.    1336.72  E(vib)   ...       0.01 
freq.    1344.26  E(vib)   ...       0.01 
freq.    1369.42  E(vib)   ...       0.01 
freq.    1381.35  E(vib)   ...       0.01 
freq.    1401.32  E(vib)   ...       0.00 
freq.    1416.00  E(vib)   ...       0.00 
freq.    1438.97  E(vib)   ...       0.00 
freq.    1442.82  E(vib)   ...       0.00 
freq.    1457.75  E(vib)   ...       0.00 
freq.    1486.41  E(vib)   ...       0.00 
freq.    1514.11  E(vib)   ...       0.00 
freq.    1517.46  E(vib)   ...       0.00 
freq.    1526.56  E(vib)   ...       0.00 
freq.    1532.30  E(vib)   ...       0.00 
freq.    1540.49  E(vib)   ...       0.00 
freq.    1545.93  E(vib)   ...       0.00 
freq.    1549.82  E(vib)   ...       0.00 
freq.    1864.56  E(vib)   ...       0.00 
freq.    3073.84  E(vib)   ...       0.00 
freq.    3095.90  E(vib)   ...       0.00 
freq.    3100.13  E(vib)   ...       0.00 
freq.    3114.01  E(vib)   ...       0.00 
freq.    3118.15  E(vib)   ...       0.00 
freq.    3120.89  E(vib)   ...       0.00 
freq.    3128.80  E(vib)   ...       0.00 
freq.    3136.48  E(vib)   ...       0.00 
freq.    3175.36  E(vib)   ...       0.00 
freq.    3175.69  E(vib)   ...       0.00 
freq.    3181.06  E(vib)   ...       0.00 
freq.    3200.95  E(vib)   ...       0.00 
freq.    3207.65  E(vib)   ...       0.00 
freq.    3210.10  E(vib)   ...       0.00 
freq.    3214.79  E(vib)   ...       0.00 
freq.    3225.56  E(vib)   ...       0.00 

------------
INNER ENERGY
------------

The inner energy is: U= E(el) + E(ZPE) + E(vib) + E(rot) + E(trans)
    E(el)   - is the total energy from the electronic structure calculation
              = E(kin-el) + E(nuc-el) + E(el-el) + E(nuc-nuc)
    E(ZPE)  - the the zero temperature vibrational energy from the frequency calculation
    E(vib)  - the the finite temperature correction to E(ZPE) due to population
              of excited vibrational states
    E(rot)  - is the rotational thermal energy
    E(trans)- is the translational thermal energy

Summary of contributions to the inner energy U:
Electronic energy                ...    -82.67650977 Eh
Zero point energy                ...      0.24720087 Eh     155.12 kcal/mol
Thermal vibrational correction   ...      0.00755951 Eh       4.74 kcal/mol
Thermal rotational correction    ...      0.00141627 Eh       0.89 kcal/mol
Thermal translational correction ...      0.00141627 Eh       0.89 kcal/mol
-----------------------------------------------------------------------
Total thermal energy                    -82.41891684 Eh


Summary of corrections to the electronic energy:
(perhaps to be used in another calculation)
Total thermal correction                  0.01039205 Eh       6.52 kcal/mol
Non-thermal (ZPE) correction              0.24720087 Eh     155.12 kcal/mol
-----------------------------------------------------------------------
Total correction                          0.25759292 Eh     161.64 kcal/mol


--------
ENTHALPY
--------

The enthalpy is H = U + kB*T
                kB is Boltzmann's constant
Total thermal energy              ...    -82.41891684 Eh 
Thermal Enthalpy correction       ...      0.00094421 Eh       0.59 kcal/mol
-----------------------------------------------------------------------
Total Enthalpy                    ...    -82.41797264 Eh


Note: Only C1 symmetry has been detected, increase convergence thresholds 
      if your molecule has a higher symmetry. Symmetry factor of 1.0 is   
      used for the rotational entropy correction. 
 

Note: Rotational entropy computed according to Herzberg 
Infrared and Raman Spectra, Chapter V,1, Van Nostrand Reinhold, 1945 
Point Group:  C1, Symmetry Number:   1  
Rotational constants in cm-1:     0.056991     0.034096     0.030924 

Vibrational entropy computed according to the QRRHO of S. Grimme
Chem.Eur.J. 2012 18 9955 using a reference frequency of 100.0 cm-1


-------
ENTROPY
-------

The entropy contributions are T*S = T*(S(el)+S(vib)+S(rot)+S(trans))
     S(el)   - electronic entropy
     S(vib)  - vibrational entropy
     S(rot)  - rotational entropy
     S(trans)- translational entropy
The entropies will be listed as multiplied by the temperature to get
units of energy

Electronic entropy                ...      0.00000000 Eh      0.00 kcal/mol
Vibrational entropy               ...      0.01224544 Eh      7.68 kcal/mol
Rotational entropy                ...      0.01409938 Eh      8.85 kcal/mol
Translational entropy             ...      0.01946646 Eh     12.22 kcal/mol
-----------------------------------------------------------------------
Final entropy term                ...      0.04581128 Eh     28.75 kcal/mol

In case the symmetry of your molecule has not been determined correctly
or in case you have a reason to use a different symmetry number we print 
out the resulting rotational entropy values for sn=1,12:

 non-linear molecules -----------------------------------
|  sn= 1 | S(rot)=       0.01409938 Eh      8.85 kcal/mol|
|  sn= 2 | S(rot)=       0.01344492 Eh      8.44 kcal/mol|
|  sn= 3 | S(rot)=       0.01306209 Eh      8.20 kcal/mol|
|  sn= 4 | S(rot)=       0.01279047 Eh      8.03 kcal/mol|
|  sn= 5 | S(rot)=       0.01257978 Eh      7.89 kcal/mol|
|  sn= 6 | S(rot)=       0.01240764 Eh      7.79 kcal/mol|
|  sn= 7 | S(rot)=       0.01226209 Eh      7.69 kcal/mol|
|  sn= 8 | S(rot)=       0.01213601 Eh      7.62 kcal/mol|
|  sn= 9 | S(rot)=       0.01202480 Eh      7.55 kcal/mol|
|  sn=10 | S(rot)=       0.01192532 Eh      7.48 kcal/mol|
|  sn=11 | S(rot)=       0.01183533 Eh      7.43 kcal/mol|
|  sn=12 | S(rot)=       0.01175318 Eh      7.38 kcal/mol|
 linear molecules ---------------------------------------
|  Dinfh | S(rot)=       0.00860799 Eh      5.40 kcal/mol|
|  Cinfv | S(rot)=       0.00926245 Eh      5.81 kcal/mol|
 --------------------------------------------------------


-------------------
GIBBS FREE ENERGY
-------------------

The Gibbs free energy is G = H - T*S

Total enthalpy                    ...    -82.41797264 Eh 
Total entropy correction          ...     -0.04581128 Eh    -28.75 kcal/mol
-----------------------------------------------------------------------
Final Gibbs free energy         ...    -82.46378391 Eh

For completeness - the Gibbs free energy minus the electronic energy
G-E(el)                           ...      0.21272586 Eh    133.49 kcal/mol


Maximum memory used throughout the entire PROP-calculation: 127.4 MB

--------------------------------
SUGGESTED CITATIONS FOR THIS RUN
--------------------------------

Below you find a list of papers that are relevant to this ORCA run
We neither can nor want to force you to cite these papers, but we appreciate if you do
You receive ORCA, which is the product of decades of hard work by many enthusiastic individuals, for free
The only thing we kindly ask in return is that you cite our papers,
We deeply appreciate it, if you show your appreciation for ORCA by not just citing the generic ORCA reference.

Please note that relegating all ORCA citations to the supporting information does *not* help us.
SI sections are not indexed - citations you put there will not count into any citation statistics
But we need these citations in order to attract the funding resources that allow us to do what we are doing

Therefore, if you are a happy ORCA user, please consider citing a few of the papers listed below in the main body of your paper

In addition to the list printed below, the program has created the file ./output/isopinocamphone/isopinocamphone.bibtex that contains the list in bibtex format
You can import this file easily into all common literature databanks and citation aid programs


List of essential papers. We consider these as the minimum necessary citations

  1. Neese,F.
     Software update: the ORCA program system, version 5.0
     WIRES Comput. Molec. Sci., 2022 12(1)e1606
     doi.org/10.1002/wcms.1606
  2. Mueller,M.; Hansen,A.; Grimme,S.
     wB97X-3c: A composite range-separated hybrid DFT method with a molecule-optimized polarized valence double-zeta basis set
     J. Chem. Phys., 2023 158 014103
     doi.org/10.1063/5.0133026

List of papers to cite with high priority. The work reported in these papers was absolutely
necessary for this run to complete.
Our perspective: the developers of density functionals and basis sets usually get cited in chemistry papers
Good! But without the algorithms to do something with them, the functionals or basis sets would not do anything.
Hence, in our opinion, the algorithm design and method developments papers are equally worthy of getting cited

  1. Neese,F.
     An improvement of the resolution of the identity approximation for the formation of the Coulomb matrix
     J. Comp. Chem., 2003 24(14)1740-1747
     doi.org/10.1002/jcc.10318
  2. Neese,F.; Wennmohs,F.; Hansen,A.; Becker,U.
     Efficient, approximate and parallel Hartree-Fock and hybrid DFT calculations. A 'chain-of-spheres' algorithm for the Hartree-Fock exchange
     Chem. Phys., 2009 356(1-3)98-109
     doi.org/10.1016/j.chemphys.2008.10.036
  3. Bykov,D.; Petrenko,T.; Izsak,R.; Kossmann,S.; Becker,U.; Valeev,E.; Neese,F.
     Efficient implementation of the analytic second derivatives of Hartree-Fock and hybrid DFT energies: a detailed analysis of different approximations
     Molec. Phys., 2015 113 1961-1977
     doi.org/10.1080/00268976.2015.1025114
  4. Helmich-Paris,B.; de Souza,B.; Neese,F.; Izsák,R.
     An improved chain of spheres for exchange algorithm
     J. Chem. Phys., 2021 155 104109
     doi.org/doi: 10.1063/5.0058766.
  5. Neese,F.
     The SHARK Integral Generation and Digestion System
     J. Comp. Chem., 2022  1-16
     doi.org/10.1002/jcc.26942
  6. Caldeweyher,E.; Bannwarth,C.; Grimme,S.
     Extension of the D3 dispersion coefficient model
     J. Chem. Phys., 2017 147 034112
     doi.org/10.1063/1.4993215
  7. Caldeweyher,E.; Ehlert,S.; Hansen,A.; Neugebauer,H.; Spicher,S.; Bannwarth,C.; Grimme,S.
     A generally applicable atomic-charge dependent London dispersion correction
     J. Chem. Phys., 2019 150 154122
     doi.org/10.1063/1.5090222
  8. Caldeweyher,E.; Mewes,J.; Ehlert,S.; Grimme,S.
     Extension and evaluation of the D4 London-dispersion model for periodic systems
     Phys. Chem. Chem. Phys., 2020 22(16)8499-8512
     doi.org/10.1039/D0CP00502A
  9. Wittmann,L.; Gordiy,I.; Friede,M.; Helmich-Paris,B.; Grimme,S.; Hansen,A.; Bursch,M.
     Extension of the D3 and D4 London Dispersion Corrections to the full Actinides Series
     Phys. Chem. Chem. Phys., 2024 26(32)21379-21394
     doi.org/https://doi.org/10.1039/D4CP01514B 

List of suggested additional citations. These are papers that are important in the 'surrounding' of 
of this run, or papers that preceded the highly important papers. If you like your results we are grateful for a citation.

  1. Izsak,R.; Neese,F.
     An overlap fitted chain of spheres exchange method
     J. Chem. Phys., 2011 135 144105
     doi.org/10.1063/1.3646921
  2. Izsak,R.; Hansen,A.; Neese,F.
     The resolution of identity and chain of spheres approximations for the LPNO-CCSD singles Fock term
     Molec. Phys., 2012 110 2413-2417
     doi.org/10.1080/00268976.2012.687466
  3. Neese,F.
     The ORCA program system
     WIRES Comput. Molec. Sci., 2012 2(1)73-78
     doi.org/10.1002/wcms.81
  4. Izsak,R.; Neese,F.; Klopper,W.
     Robust fitting techniques in the chain of spheres approximation to the Fock exchange: The role of the complementary space
     J. Chem. Phys., 2013 139 
     doi.org/10.1063/1.4819264
  5. Neese,F.
     Software update: the ORCA program system, version 4.0
     WIRES Comput. Molec. Sci., 2018 8(1)1-6
     doi.org/10.1002/wcms.1327
  6. Neese,F.; Wennmohs,F.; Becker,U.; Riplinger,C.
     The ORCA quantum chemistry program package
     J. Chem. Phys., 2020 152 Art. No. L224108
     doi.org/10.1063/5.0004608

List of optional additional citations

  1. Neese,F.
     Approximate second-order SCF convergence for spin unrestricted wavefunctions
     Chem. Phys. Lett., 2000 325(1-3)93-98
     doi.org/10.1016/s0009-2614(00)00662-x

Timings for individual modules:

Sum of individual times          ...      804.246 sec (=  13.404 min)
Startup calculation              ...       38.981 sec (=   0.650 min)   4.8 %
SCF iterations                   ...      466.697 sec (=   7.778 min)  58.0 %
Property integrals               ...       58.529 sec (=   0.975 min)   7.3 %
SCF Response                     ...       39.563 sec (=   0.659 min)   4.9 %
Property calculations            ...      101.860 sec (=   1.698 min)  12.7 %
SCF Gradient evaluation          ...       98.360 sec (=   1.639 min)  12.2 %
Geometry relaxation              ...        0.256 sec (=   0.004 min)   0.0 %
                             ****ORCA TERMINATED NORMALLY****
TOTAL RUN TIME: 0 days 0 hours 13 minutes 29 seconds 25 msec
