
                                 *****************
                                 * O   R   C   A *
                                 *****************

                                            #,                                       
                                            ###                                      
                                            ####                                     
                                            #####                                    
                                            ######                                   
                                           ########,                                 
                                     ,,################,,,,,                         
                               ,,#################################,,                 
                          ,,##########################################,,             
                       ,#########################################, ''#####,          
                    ,#############################################,,   '####,        
                  ,##################################################,,,,####,       
                ,###########''''           ''''###############################       
              ,#####''   ,,,,##########,,,,          '''####'''          '####       
            ,##' ,,,,###########################,,,                        '##       
           ' ,,###''''                  '''############,,,                           
         ,,##''                                '''############,,,,        ,,,,,,###''
      ,#''                                            '''#######################'''  
     '                                                          ''''####''''         
             ,#######,   #######,   ,#######,      ##                                
            ,#'     '#,  ##    ##  ,#'     '#,    #''#        ,####,   ,####,        
            ##       ##  ##   ,#'  ##            #'  '#       #'       #'  '#        
            ##       ##  #######   ##           ,######,      #####,   #    #        
            '#,     ,#'  ##    ##  '#,     ,#' ,#      #,     #,   #   #,  ,#        
             '#######'   ##     ##  '#######'  #'      '#     '####' # '####'        



                #########################################################
                #                        -***-                          #
                #          Department of theory and spectroscopy        #
                #                                                       #
                #                      Frank Neese                      #
                #                                                       #
                #     Directorship, Architecture, Infrastructure        #
                #                    SHARK, DRIVERS                     #
                #        Core code/Algorithms in most modules           #
                #                                                       #
                #        Max Planck Institute fuer Kohlenforschung      #
                #                Kaiser Wilhelm Platz 1                 #
                #                 D-45470 Muelheim/Ruhr                 #
                #                      Germany                          #
                #                                                       #
                #                  All rights reserved                  #
                #                        -***-                          #
                #########################################################


                         Program Version 6.0.1  -  RELEASE   -


 With contributions from (in alphabetic order):
[Max-Planck-Institut fuer Kohlenforschung]                               
  Daniel Aravena         : Magnetic Suceptibility                        
  Michael Atanasov       : Ab Initio Ligand Field Theory (pilot matlab implementation)
  Alexander A. Auer      : GIAO ZORA, VPT2 properties, NMR spectrum      
  Ute Becker             : All parallelization in ORCA, NUMFREQ, NUMCALC 
  Giovanni Bistoni       : ED, misc. LED, open-shell LED, HFLD           
  Martin Brehm           : Molecular dynamics                            
  Dmytro Bykov           : pre 5.0 version of the SCF Hessian            
  Marcos Casanova-Páez   : Triplet and SCS-CIS(D). UHF-(DLPNO)-IP/EA/STEOM-CCSD. UHF-CVS-IP/STEOM-CCSD   
  Vijay G. Chilkuri      : MRCI spin determinant printing, contributions to CSF-ICE 
  Pauline Colinet        : FMM embedding                                 
  Dipayan Datta          : RHF DLPNO-CCSD density                        
  Achintya Kumar Dutta   : EOM-CC, STEOM-CC                              
  Nicolas Foglia         : Exact transition moments, OPA infrastructure, MCD improvements    
  Dmitry Ganyushin       : Spin-Orbit,Spin-Spin,Magnetic field MRCI      
  Miquel Garcia-Rates    : C-PCM and meta-GGA Hessian, CCSD/C-PCM, Gaussian charge scheme 
  Tiago L. C. Gouveia    : GS-ROHF, GS-ROCIS                             
  Yang Guo               : DLPNO-NEVPT2, F12-NEVPT2, CIM, IAO-localization        
  Andreas Hansen         : Spin unrestricted coupled pair/coupled cluster methods 
  Ingolf Harden          : AUTO-CI MPn and infrastructure                
  Benjamin Helmich-Paris : MC-RPA, TRAH-(SCF,CASSCF), AVAS, COSX integrals, SCF dyn. polar. 
  Lee Huntington         : MR-EOM, pCC                                   
  Robert Izsak           : Overlap fitted RIJCOSX, COSX-SCS-MP3, EOM     
  Riya Kayal             : Wick's Theorem for AUTO-CI, AUTO-CI UHF-CCSDT 
  Emily Kempfer          : AUTO-CI, RHF CISDT and CCSDT                  
  Christian Kollmar      : KDIIS, OOCD, Brueckner-CCSD(T), CCSD density, CASPT2, CASPT2-K, improved NEVPT2 
  Axel Koslowski         : Symmetry handling                             
  Simone Kossmann        : meta-GGA functionals, TD-DFT gradient, OOMP2, (MP2 Hessian; deprecated post 5.0) 
  Lucas Lang             : DCDCAS                                        
  Marvin Lechner         : AUTO-CI (C++ implementation), FIC-MRCC        
  Spencer Leger          : CASSCF response                               
  Dagmar Lenk            : GEPOL surface, SMD, ORCA-2-JSON               
  Dimitrios Liakos       : Extrapolation schemes; Compound Job, initial MDCI parallelization 
  Dimitrios Manganas     : Further ROCIS development; embedding schemes. LFT, Crystal Embedding 
  Dimitrios Pantazis     : SARC Basis sets                               
  Anastasios Papadopoulos: AUTO-CI, single reference methods and gradients 
  Taras Petrenko         : pre 6.0 DFT Hessian and TD-DFT gradient, (ASA, deprecated), ECA, 1-Electron XAS/XES, NRVS 
  Peter Pinski           : DLPNO-MP2, DLPNO-MP2 Gradient                 
  Christoph Reimann      : Effective Core Potentials                     
  Marius Retegan         : Local ZFS, SOC                                
  Christoph Riplinger    : Optimizer, TS searches, QM/MM, DLPNO-CCSD(T), (RO)-DLPNO pert. Triples 
  Michael Roemelt        : Original ROCIS implementation                 
  Masaaki Saitow         : Open-shell DLPNO-CCSD energy and density      
  Barbara Sandhoefer     : DKH picture change effects                    
  Kantharuban Sivalingam : CASSCF convergence/infrastructure, NEVPT2 and variants, FIC-MRCI 
  Bernardo de Souza      : ESD, SOC TD-DFT                               
  Georgi L. Stoychev     : AutoAux, RI-MP2 NMR, DLPNO-MP2 response, X2C  
  Van Anh Tran           : RI-MP2 g-tensors                              
  Willem Van den Heuvel  : Paramagnetic NMR                              
  Zikuan Wang            : NOTCH, Electric field optimization            
  Frank Wennmohs         : Technical directorship and infrastructure     
  Hang Xu                : AUTO-CI-Response properties                   
                                                                         
[FACCTs GmbH]                                                            
  Markus Bursch, Miquel Garcia-Rates, Christoph Riplinger, Bernardo de Souza, Georgi L. Stoychev 
                                                                 
  APM, Basis sets (HGBS, AHGBS, def-TZVP (Ac-Lr), def2-XVPD (La-Lu)), CI-OPT, improved COSX, DLPNO-Multilevel,           
  DOCKER, DRACO, updates on ESD, GOAT, IRC, LR-CPCM, MBIS, meta-GGA TD-DFT gradient, ML-optimized integration grids, 
  MM, NACMEs, nearIR, NEB, NEB-TS, NL-DFT gradient (VV10), 2- and 3-layer-ONIOM, interface openCOSMO-RS, QMMM,   
  Crystal-QMMM, SF, symmetry and pop. for TD-DFT, r2SCAN hybrids, SOLVATOR                                   
                                                                         
[Other institutions]                                                     
  V. Asgeirsson          : NEB                                           
  Christoph Bannwarth    : sTDA-DFT, sTD-DFT, PBEh-3c, B97-3c, D3        
  Sebastian Ehlert       : rSCAN, r2SCAN, r2SCAN-3c, D4, dhf basis sets  
  Marvin Friede          : D4 for Fr, Ra, Ac-Lr                          
  Lars Goerigk           : TD-DFT with DH, B97 family of functionals     
  Stefan Grimme          : VdW corrections, initial TS optimization, DFT functionals, gCP, sTDA/sTD-DF 
  Waldemar Hujo          : DFT-NL                                        
  H. Jonsson             : NEB                                           
  Holger Kruse           : gCP                                           
  Marcel Mueller         : wB97X-3c, vDZP basis set                      
  Hagen Neugebauer       : wr2SCAN                                       
  Tobias Risthaus        : range-separated hybrid DFT                    
  Lukas Wittmann         : regularized MP2, r2SCAN double-hybrids, wr2SCAN        
                                                                         
We gratefully acknowledge several colleagues who have allowed us to      
interface, adapt or use parts of their codes:                            
  Ed Valeev, F. Pavosevic, A. Kumar             : LibInt (2-el integral package), F12 methods 
  Garnet Chan, S. Sharma, J. Yang, R. Olivares  : DMRG                   
  Ulf Ekstrom                                   : XCFun DFT Library      
  Mihaly Kallay                                 : mrcc  (arbitrary order and MRCC methods)
  Frank Weinhold                                : gennbo (NPA and NBO analysis)           
  Simon Mueller                                 : openCOSMO-RS                            
  Christopher J. Cramer and Donald G. Truhlar   : smd solvation model                     
  S Lehtola, MJT Oliveira, MAL Marques          : LibXC Library                           
  Liviu Ungur et al                             : ANISO software                          


 Your calculation uses the libint2 library for the computation of 2-el integrals
 For citations please refer to: http://libint.valeyev.net

 Your ORCA version has been built with support for libXC version: 6.2.2
 For citations please refer to: https://libxc.gitlab.io

 This ORCA versions uses:
   CBLAS   interface :  Fast vector & matrix operations
   LAPACKE interface :  Fast linear algebra routines
   SCALAPACK package :  Parallel linear algebra routines
   Shared memory     :  Shared parallel matrices
   BLAS/LAPACK       :  OpenBLAS 0.3.27  USE64BITINT DYNAMIC_ARCH NO_AFFINITY SkylakeX SINGLE_THREADED
        Core in use  :  SkylakeX
   Copyright (c) 2011-2014, The OpenBLAS Project


Your calculation utilizes the atom-pairwise dispersion correction
based on EEQ partial charges (D4)


================================================================================

cite the ECPs for C  [vDZP-ECP], O  [vDZP-ECP] as follows:
   B-Ne (ecp-2-mwb), Al-Ar (ecp-10-mwb), Ga-Kr (ecp-28-mwb), Y-Cd (ecp-28-mwb), In-Xe (ecp-46-mwb):
     A. Bergner, M. Dolg, W. Küchle, H. Stoll, and H. Preuß, Mol. Phys. 80, 1431 (1993)., T. Leininger, A. Berning, A. Nicklass, H. Stoll, H.-J. Werner, and H.-J.Flad, Chem. Phys. 217, 19 (1997).
   Na-Mg, K-Ca, Rb-Sr, Cs-Ba (CRENBL):
     L. Fernandez Pacios and P. A. Christiansen, J. Chem. Phys. 82, 2664 (1985)., M. M. Hurley, L. F. Pacios, P. A. Christiansen, R. B. Ross, and W. C. Ermler, J. Chem. Phys. 84, 6840 (1986)., L. A. LaJohn, P. A. Christiansen, R. B. Ross, T. Atashroo, and W. C. Ermler, J. Chem. Phys. 87, 2812 (1987)., R. B. Ross, J. M. Powers, T. Atashroo, W. C. Ermler, L. A. LaJohn, and P. A. Christiansen, J. Chem. Phys. 93, 6654 (1990). 
   Sc-Zn (ecp-10-mdf):
     M. Dolg, U. Wedig, H. Stoll, and H. Preuss, J. Chem. Phys. 86, 866 (1986). 
   Y-Cd (ecp-28-mwb), Hf-Hg (ecp-60-mwb):
     D. Andrae, U. Häußermann, M. Dolg, H. Stoll, and H. Preuß, Theor. Chim. Acta 77, 123 (1990). 
   La (ecp-46-mwb):
     M. Dolg, H. Stoll, and H. Preuss, J. Chem. Phys. 90, 1730 (1989)., M. Dolg, H. Stoll, and H. Preuss, Theor. Chim. Acta 85, 441 (1993).
   Ce-Lu (SBKJC-ecp):
     T. R. Cundari and W. J. Stevens, J. Chem. Phys. 98, 5555 (1993).
   Tl-Rn (ecp-78-mwb):
     W. Küchle, M. Dolg, H. Stoll, and H. Preuss, Mol. Phys. 74, 1245 (1991).

ECP parameters for C  [vDZP-ECP], O  [vDZP-ECP] have been obtained from:
MM, AH, SG, J. Chem. Phys. 158, 014103 (2023), 10.1063/5.0133026

----- Orbital basis set information -----
Your calculation utilizes the basis: vDZP
   Marcel Mueller, Andreas Hansen, Stefan Grimme 
   J. Chem. Phys. 158, 014103 (2023). DOI: 10.1063/5.0133026

----- AuxJ basis set information -----
Your calculation utilizes the auxiliary basis: def2/J
   F. Weigend, Phys. Chem. Chem. Phys. 8, 1057 (2006).

================================================================================
                                        WARNINGS
                       Please study these warnings very carefully!
================================================================================

WARNING: Frozen-Core approximation turned on, but there are no core electrons.
  ===> : Turning off frozen-core approximation


WARNING: Geometry Optimization
  ===> : Switching off AutoStart
         For restart on a previous wavefunction, please use MOREAD

================================================================================
                                       INPUT FILE
================================================================================
NAME = ./output/benzyl_acetate/benzyl_acetate.inp
|  1> ! wB97X-3c OPT FREQ TightSCF
|  2> %pal
|  3>   nprocs 40
|  4> end
|  5> * xyz 0 1
|  6> C      3.273321     0.238839     1.637380
|  7> C      2.270906     0.282258     0.534944
|  8> O      1.983245     1.385690    -0.003413
|  9> O      1.698634    -0.909721     0.077065
| 10> C      0.718270    -0.960726    -0.957366
| 11> C     -0.598196    -0.428513    -0.460320
| 12> C     -1.105810     0.790610    -0.940178
| 13> C     -2.321745     1.285031    -0.457566
| 14> C     -3.035799     0.569302     0.507496
| 15> C     -2.534337    -0.641601     0.992911
| 16> C     -1.318783    -1.139411     0.513107
| 17> H      4.295943     0.219809     1.206823
| 18> H      3.164787     1.132928     2.286966
| 19> H      3.119873    -0.671965     2.253277
| 20> H      0.584466    -2.018627    -1.267438
| 21> H      1.077127    -0.399995    -1.848364
| 22> H     -0.561478     1.358589    -1.684345
| 23> H     -2.709666     2.224097    -0.830606
| 24> H     -3.976346     0.953767     0.880337
| 25> H     -3.086654    -1.193752     1.742273
| 26> H     -0.937758    -2.076608     0.899856
| 27> *
| 28> 
| 29>                          ****END OF INPUT****
================================================================================

                       *****************************
                       * Geometry Optimization Run *
                       *****************************

Geometry optimization settings:
Update method            Update   .... BFGS
Choice of coordinates    CoordSys .... (2022) Redundant Internals
Initial Hessian          InHess   .... Almloef's Model
Max. no of cycles        MaxIter  .... 63

Convergence Tolerances:
Energy Change            TolE     ....  5.0000e-06 Eh
Max. Gradient            TolMAXG  ....  3.0000e-04 Eh/bohr
RMS Gradient             TolRMSG  ....  1.0000e-04 Eh/bohr
Max. Displacement        TolMAXD  ....  4.0000e-03 bohr
RMS Displacement         TolRMSD  ....  2.0000e-03 bohr
Strict Convergence                .... False

------------------------------------------------------------------------------
                        ORCA OPTIMIZATION COORDINATE SETUP
------------------------------------------------------------------------------

The optimization will be done in redundant internal coordinates (2022)
Making redundant internal coordinates   ...  (2022 redundants) done
Evaluating the initial hessian          ...  (Almloef) done
Evaluating the coordinates              ...  done
Calculating the B-matrix                .... done
Calculating the G-matrix                .... done
Diagonalizing the G-matrix              .... done
Small eigenvalue found = 9.008e-03
Small eigenvalue found = 1.749e-02
The first mode is                       ....   37
The number of degrees of freedom        ....   57

    -----------------------------------------------------------------
                    Redundant Internal Coordinates


    -----------------------------------------------------------------
         Definition                    Initial Value    Approx d2E/dq
    -----------------------------------------------------------------
      1. B(C   1,C   0)                  1.4907         0.431650   
      2. B(O   2,C   1)                  1.2610         0.898825   
      3. B(O   3,C   1)                  1.3993         0.540857   
      4. B(C   4,O   3)                  1.4261         0.490094   
      5. B(C   5,C   4)                  1.5045         0.410328   
      6. B(C   6,C   5)                  1.4051         0.591166   
      7. B(C   7,C   6)                  1.3985         0.605539   
      8. B(C   8,C   7)                  1.3977         0.607434   
      9. B(C   9,C   8)                  1.3976         0.607520   
     10. B(C  10,C   9)                  1.3984         0.605750   
     11. B(C  10,C   5)                  1.4043         0.592726   
     12. B(H  11,C   0)                  1.1097         0.334925   
     13. B(H  12,C   0)                  1.1105         0.334018   
     14. B(H  13,C   0)                  1.1102         0.334403   
     15. B(H  14,C   4)                  1.1105         0.333981   
     16. B(H  15,C   4)                  1.1122         0.331851   
     17. B(H  16,C   6)                  1.0829         0.369610   
     18. B(H  17,C   7)                  1.0824         0.370360   
     19. B(H  18,C   8)                  1.0823         0.370382   
     20. B(H  19,C   9)                  1.0823         0.370372   
     21. B(H  20,C  10)                  1.0831         0.369352   
     22. A(C   1,C   0,H  13)          109.9527         0.328102   
     23. A(H  11,C   0,H  12)          109.3192         0.284205   
     24. A(C   1,C   0,H  11)          109.4655         0.328186   
     25. A(H  12,C   0,H  13)          108.8158         0.284136   
     26. A(C   1,C   0,H  12)          110.0867         0.328039   
     27. A(H  11,C   0,H  13)          109.1809         0.284256   
     28. A(O   2,C   1,O   3)          120.8246         0.446937   
     29. A(C   0,C   1,O   3)          119.4862         0.394700   
     30. A(C   0,C   1,O   2)          119.6451         0.431945   
     31. A(C   1,O   3,C   4)          123.2965         0.401025   
     32. A(H  14,C   4,H  15)          107.1855         0.283793   
     33. A(C   5,C   4,H  15)          111.6322         0.324966   
     34. A(C   5,C   4,H  14)          108.8940         0.325308   
     35. A(O   3,C   4,H  15)          109.9525         0.332626   
     36. A(O   3,C   4,C   5)          110.4412         0.384548   
     37. A(O   3,C   4,H  14)          108.6288         0.332979   
     38. A(C   4,C   5,C   6)          120.6800         0.399919   
     39. A(C   6,C   5,C  10)          119.3784         0.426908   
     40. A(C   4,C   5,C  10)          119.9290         0.400105   
     41. A(C   5,C   6,C   7)          120.1987         0.428548   
     42. A(C   7,C   6,H  16)          119.2585         0.353056   
     43. A(C   5,C   6,H  16)          120.5427         0.351624   
     44. A(C   8,C   7,H  17)          119.9449         0.353364   
     45. A(C   6,C   7,H  17)          119.9607         0.353177   
     46. A(C   6,C   7,C   8)          120.0943         0.430641   
     47. A(C   9,C   8,H  18)          119.9939         0.353376   
     48. A(C   7,C   8,H  18)          119.9942         0.353368   
     49. A(C   7,C   8,C   9)          120.0118         0.430893   
     50. A(C   8,C   9,H  19)          119.9575         0.353375   
     51. A(C   8,C   9,C  10)          120.0747         0.430679   
     52. A(C  10,C   9,H  19)          119.9678         0.353200   
     53. A(C   5,C  10,C   9)          120.2408         0.428777   
     54. A(C   9,C  10,H  20)          119.4261         0.353035   
     55. A(C   5,C  10,H  20)          120.3330         0.351740   
     56. D(O   2,C   1,C   0,H  11)    -82.6204         0.013758   
     57. D(O   2,C   1,C   0,H  13)    157.4435         0.013758   
     58. D(O   3,C   1,C   0,H  11)     94.9828         0.013758   
     59. D(O   3,C   1,C   0,H  12)   -144.8279         0.013758   
     60. D(O   2,C   1,C   0,H  12)     37.5690         0.013758   
     61. D(C   4,O   3,C   1,O   2)     -3.4133         0.021126   
     62. D(C   4,O   3,C   1,C   0)    179.0125         0.021126   
     63. D(H  15,C   4,O   3,C   1)     51.7308         0.018967   
     64. D(H  14,C   4,O   3,C   1)    168.7371         0.018967   
     65. D(C   5,C   4,O   3,C   1)    -71.9009         0.018967   
     66. D(C  10,C   5,C   4,O   3)    -67.8490         0.012469   
     67. D(C   6,C   5,C   4,H  15)    -11.8034         0.012469   
     68. D(C   6,C   5,C   4,H  14)   -129.9472         0.012469   
     69. D(C  10,C   5,C   4,H  14)     51.3524         0.012469   
     70. D(C   6,C   5,C   4,O   3)    110.8514         0.012469   
     71. D(H  16,C   6,C   5,C   4)      0.7546         0.024055   
     72. D(C   7,C   6,C   5,C  10)     -0.4081         0.024055   
     73. D(C   7,C   6,C   5,C   4)   -179.1156         0.024055   
     74. D(H  16,C   6,C   5,C  10)    179.4622         0.024055   
     75. D(H  17,C   7,C   6,H  16)      0.1878         0.025303   
     76. D(H  17,C   7,C   6,C   5)   -179.9403         0.025303   
     77. D(C   8,C   7,C   6,H  16)   -179.7075         0.025303   
     78. D(C   8,C   7,C   6,C   5)      0.1644         0.025303   
     79. D(H  18,C   8,C   7,H  17)      0.0648         0.025471   
     80. D(H  18,C   8,C   7,C   6)    179.9601         0.025471   
     81. D(C   9,C   8,C   7,H  17)   -179.8209         0.025471   
     82. D(C   9,C   8,C   7,C   6)      0.0744         0.025471   
     83. D(H  19,C   9,C   8,H  18)     -0.0574         0.025479   
     84. D(H  19,C   9,C   8,C   7)    179.8284         0.025479   
     85. D(C  10,C   9,C   8,H  18)   -179.9515         0.025479   
     86. D(C  10,C   9,C   8,C   7)     -0.0658         0.025479   
     87. D(H  20,C  10,C   9,C   8)    179.7242         0.025322   
     88. D(C   5,C  10,C   9,H  19)    179.9240         0.025322   
     89. D(C   5,C  10,C   9,C   8)     -0.1818         0.025322   
     90. D(H  20,C  10,C   5,C   6)   -179.4884         0.024188   
     91. D(H  20,C  10,C   5,C   4)     -0.7709         0.024188   
     92. D(C   9,C  10,C   5,C   6)      0.4168         0.024188   
     93. D(H  20,C  10,C   9,H  19)     -0.1699         0.025322   
     94. D(C   9,C  10,C   5,C   4)    179.1343         0.024188   
    -----------------------------------------------------------------

Number of atoms                         .... 21
Number of degrees of freedom            .... 94


         *************************************************************
         *                GEOMETRY OPTIMIZATION CYCLE   1            *
         *************************************************************
---------------------------------
CARTESIAN COORDINATES (ANGSTROEM)
---------------------------------
  C      3.273321    0.238839    1.637380
  C      2.270906    0.282258    0.534944
  O      1.983245    1.385690   -0.003413
  O      1.698634   -0.909721    0.077065
  C      0.718270   -0.960726   -0.957366
  C     -0.598196   -0.428513   -0.460320
  C     -1.105810    0.790610   -0.940178
  C     -2.321745    1.285031   -0.457566
  C     -3.035799    0.569302    0.507496
  C     -2.534337   -0.641601    0.992911
  C     -1.318783   -1.139411    0.513107
  H      4.295943    0.219809    1.206823
  H      3.164787    1.132928    2.286966
  H      3.119873   -0.671965    2.253277
  H      0.584466   -2.018627   -1.267438
  H      1.077127   -0.399995   -1.848364
  H     -0.561478    1.358589   -1.684345
  H     -2.709666    2.224097   -0.830606
  H     -3.976346    0.953767    0.880337
  H     -3.086654   -1.193752    1.742273
  H     -0.937758   -2.076608    0.899856

----------------------------
CARTESIAN COORDINATES (A.U.)
----------------------------
  NO LB      ZA    FRAG     MASS         X           Y           Z
   0 C     4.0000*   0    12.011    6.185680    0.451340    3.094200
   1 C     4.0000*   0    12.011    4.291390    0.533390    1.010898
   2 O     6.0000*   0    15.999    3.747790    2.618575   -0.006450
   3 O     6.0000*   0    15.999    3.209953   -1.719124    0.145632
   4 C     4.0000*   0    12.011    1.357334   -1.815509   -1.809160
   5 C     4.0000*   0    12.011   -1.130427   -0.809772   -0.869879
   6 C     4.0000*   0    12.011   -2.089678    1.494036   -1.776679
   7 C     4.0000*   0    12.011   -4.387462    2.428357   -0.864674
   8 C     4.0000*   0    12.011   -5.736829    1.075825    0.959028
   9 C     4.0000*   0    12.011   -4.789203   -1.212450    1.876330
  10 C     4.0000*   0    12.011   -2.492139   -2.153175    0.969632
  11 H     1.0000    0     1.008    8.118156    0.415379    2.280565
  12 H     1.0000    0     1.008    5.980581    2.140924    4.321739
  13 H     1.0000    0     1.008    5.895706   -1.269830    4.258076
  14 H     1.0000    0     1.008    1.104481   -3.814652   -2.395111
  15 H     1.0000    0     1.008    2.035475   -0.755881   -3.492902
  16 H     1.0000    0     1.008   -1.061040    2.567361   -3.182951
  17 H     1.0000    0     1.008   -5.120527    4.202934   -1.569618
  18 H     1.0000    0     1.008   -7.514205    1.802358    1.663596
  19 H     1.0000    0     1.008   -5.832931   -2.255864    3.292419
  20 H     1.0000    0     1.008   -1.772106   -3.924220    1.700481
* core charge reduced due to ECP

--------------------------------
INTERNAL COORDINATES (ANGSTROEM)
--------------------------------
 C      0   0   0     0.000000000000     0.00000000     0.00000000
 C      1   0   0     1.490666352972     0.00000000     0.00000000
 O      2   1   0     1.261007251761   119.64512438     0.00000000
 O      2   1   3     1.399272081143   119.48615189   177.60314306
 C      4   2   1     1.426100479027   123.29654880   179.01252939
 C      5   4   2     1.504456091962   110.44124184   288.09914947
 C      6   5   4     1.405061052869   120.68000645   110.85144209
 C      7   6   5     1.398522217203   120.19870588   180.88438272
 C      8   7   6     1.397671556626   120.09430622     0.16438493
 C      9   8   7     1.397632975812   120.01175601     0.07441765
 C     10   9   8     1.398427045445   120.07469545   359.93421699
 H      1   2   3     1.109728446978   109.46551697   277.37963494
 H      1   2   3     1.110466902016   110.08666875    37.56897971
 H      1   2   3     1.110152840707   109.95272195   157.44349855
 H      5   4   2     1.110496592251   108.62876801   168.73711233
 H      5   4   2     1.112238749916   109.95254361    51.73075057
 H      7   6   5     1.082904425401   120.54269983     0.75459086
 H      8   7   6     1.082352297636   119.96068100   180.05969121
 H      9   8   7     1.082336549653   119.99421731   179.96012198
 H     10   9   8     1.082343846628   119.95746084   179.82835006
 H     11  10   9     1.083094204783   119.42614673   179.72421599

---------------------------
INTERNAL COORDINATES (A.U.)
---------------------------
 C      0   0   0     0.000000000000     0.00000000     0.00000000
 C      1   0   0     2.816951164168     0.00000000     0.00000000
 O      2   1   0     2.382958358717   119.64512438     0.00000000
 O      2   1   3     2.644241020202   119.48615189   177.60314306
 C      4   2   1     2.694939344816   123.29654880   179.01252939
 C      5   4   2     2.843009994317   110.44124184   288.09914947
 C      6   5   4     2.655180591361   120.68000645   110.85144209
 C      7   6   5     2.642823982718   120.19870588   180.88438272
 C      8   7   6     2.641216467194   120.09430622     0.16438493
 C      9   8   7     2.641143560023   120.01175601     0.07441765
 C     10   9   8     2.642644134160   120.07469545   359.93421699
 H      1   2   3     2.097082847811   109.46551697   277.37963494
 H      1   2   3     2.098478325594   110.08666875    37.56897971
 H      1   2   3     2.097884835730   109.95272195   157.44349855
 H      5   4   2     2.098534432007   108.62876801   168.73711233
 H      5   4   2     2.101826632876   109.95254361    51.73075057
 H      7   6   5     2.046392793220   120.54269983     0.75459086
 H      8   7   6     2.045349422952   119.96068100   180.05969121
 H      9   8   7     2.045319663578   119.99421731   179.96012198
 H     10   9   8     2.045333452862   119.95746084   179.82835006
 H     11  10   9     2.046751424278   119.42614673   179.72421599

---------------------
BASIS SET INFORMATION
---------------------
There are 3 groups of distinct atoms

 Group   1 Type C   : 6s6p2d contracted to 2s2p1d pattern {42/42/2}
 Group   2 Type O   : 6s6p2d contracted to 2s2p1d pattern {42/42/2}
 Group   3 Type H   : 8s2p contracted to 2s1p pattern {53/2}

Atom   0C    basis set group =>   1
Atom   1C    basis set group =>   1
Atom   2O    basis set group =>   2
Atom   3O    basis set group =>   2
Atom   4C    basis set group =>   1
Atom   5C    basis set group =>   1
Atom   6C    basis set group =>   1
Atom   7C    basis set group =>   1
Atom   8C    basis set group =>   1
Atom   9C    basis set group =>   1
Atom  10C    basis set group =>   1
Atom  11H    basis set group =>   3
Atom  12H    basis set group =>   3
Atom  13H    basis set group =>   3
Atom  14H    basis set group =>   3
Atom  15H    basis set group =>   3
Atom  16H    basis set group =>   3
Atom  17H    basis set group =>   3
Atom  18H    basis set group =>   3
Atom  19H    basis set group =>   3
Atom  20H    basis set group =>   3
---------------------------------
AUXILIARY/J BASIS SET INFORMATION
---------------------------------
There are 3 groups of distinct atoms

 Group   1 Type C   : 12s5p4d2f1g contracted to 6s4p3d1f1g pattern {711111/2111/211/2/1}
 Group   2 Type O   : 12s5p4d2f1g contracted to 6s4p3d1f1g pattern {711111/2111/211/2/1}
 Group   3 Type H   : 5s2p1d contracted to 3s1p1d pattern {311/2/1}

Atom   0C    basis set group =>   1
Atom   1C    basis set group =>   1
Atom   2O    basis set group =>   2
Atom   3O    basis set group =>   2
Atom   4C    basis set group =>   1
Atom   5C    basis set group =>   1
Atom   6C    basis set group =>   1
Atom   7C    basis set group =>   1
Atom   8C    basis set group =>   1
Atom   9C    basis set group =>   1
Atom  10C    basis set group =>   1
Atom  11H    basis set group =>   3
Atom  12H    basis set group =>   3
Atom  13H    basis set group =>   3
Atom  14H    basis set group =>   3
Atom  15H    basis set group =>   3
Atom  16H    basis set group =>   3
Atom  17H    basis set group =>   3
Atom  18H    basis set group =>   3
Atom  19H    basis set group =>   3
Atom  20H    basis set group =>   3
-------------------------
ECP PARAMETER INFORMATION
-------------------------

 Group 1, Type C  ECP vDZP-ECP (replacing 2 core electrons, lmax=3)
 Group 2, Type O  ECP vDZP-ECP (replacing 2 core electrons, lmax=3)

Atom   0C    ECP group =>   1
Atom   1C    ECP group =>   1
Atom   2O    ECP group =>   2
Atom   3O    ECP group =>   2
Atom   4C    ECP group =>   1
Atom   5C    ECP group =>   1
Atom   6C    ECP group =>   1
Atom   7C    ECP group =>   1
Atom   8C    ECP group =>   1
Atom   9C    ECP group =>   1
Atom  10C    ECP group =>   1



           ************************************************************
           *        Program running with 40 parallel MPI-processes    *
           *              working on a common directory               *
           ************************************************************
------------------------------------------------------------------------------
                             ORCA STARTUP CALCULATIONS
                           -- RI-GTO INTEGRALS CHOSEN --
------------------------------------------------------------------------------
------------------------------------------------------------------------------
                   ___                                                        
                  /   \      - P O W E R E D   B Y -                         
                 /     \                                                     
                 |  |  |   _    _      __       _____    __    __             
                 |  |  |  | |  | |    /  \     |  _  \  |  |  /  |          
                  \  \/   | |  | |   /    \    | | | |  |  | /  /          
                 / \  \   | |__| |  /  /\  \   | |_| |  |  |/  /          
                |  |  |   |  __  | /  /__\  \  |    /   |      \           
                |  |  |   | |  | | |   __   |  |    \   |  |\   \          
                \     /   | |  | | |  |  |  |  | |\  \  |  | \   \       
                 \___/    |_|  |_| |__|  |__|  |_| \__\ |__|  \__/        
                                                                              
                      - O R C A' S   B I G   F R I E N D -                    
                                      &                                       
                       - I N T E G R A L  F E E D E R -                       
                                                                              
 v1 FN, 2020, v2 2021, v3 2022-2024                                           
------------------------------------------------------------------------------


----------------------
SHARK INTEGRAL PACKAGE
----------------------

Number of atoms                             ...     21
Number of basis functions                   ...    193
Number of shells                            ...     85
Maximum angular momentum                    ...      2
Integral batch strategy                     ... SHARK/LIBINT Hybrid
RI-J (if used) integral strategy            ... SPLIT-RIJ (Revised 2003 algorithm where possible)
Printlevel                                  ...      1
Contraction scheme used                     ... SEGMENTED contraction
Prescreening option                         ... SCHWARTZ
   Thresh                                   ... 2.500e-11
   Tcut                                     ... 2.500e-12
   Tpresel                                  ... 2.500e-12 
Coulomb Range Separation                    ... NOT USED
Exchange Range Separation                   ... Long Range
   Mu parameter                             ... 3.000e-01
   Scaling (regular/separated)              ... 1.670e-01 8.330e-01
Multipole approximations                    ... NOT USED
Finite Nucleus Model                        ... NOT USED
CABS basis                                  ... NOT available
Auxiliary Coulomb fitting basis             ... AVAILABLE
   # of basis functions in Aux-J            ...    649
   # of shells in Aux-J                     ...    215
   Maximum angular momentum in Aux-J        ...      4
Auxiliary J/K fitting basis                 ... NOT available
Auxiliary Correlation fitting basis         ... NOT available
Auxiliary 'external' fitting basis          ... NOT available

Checking pre-screening integrals            ... done (  0.0 sec) Dimension = 85
Check shell pair data                       ... done (  0.0 sec)
Shell pair information
Shell pair cut-off parameter TPreSel        ...   2.5e-12
Total number of shell pairs                 ...      3655
Shell pairs after pre-screening             ...      3649
Total number of primitive shell pairs       ...     32690
Primitive shell pairs kept                  ...     26339
          la=0 lb=0:    902 shell pairs
          la=1 lb=0:   1342 shell pairs
          la=1 lb=1:    525 shell pairs
          la=2 lb=0:    462 shell pairs
          la=2 lb=1:    352 shell pairs
          la=2 lb=2:     66 shell pairs

Calculating one electron integrals          ... done (  0.0 sec)
Calculating ECP integrals                   ... done (  0.1 sec)
Calculating RI/J V-Matrix + Cholesky decomp.... done (  0.0 sec)
Calculating Nuclear repulsion               ... done (  0.0 sec) ENN=    299.909432770458 Eh

Diagonalization of the overlap matrix:
Smallest eigenvalue                        ... 4.638e-04
Time for diagonalization                   ...    0.005 sec
Threshold for overlap eigenvalues          ... 1.000e-07
Number of eigenvalues below threshold      ... 0
Time for construction of square roots      ...    0.004 sec
Total time needed                          ...    0.012 sec

-------------------
DFT GRID GENERATION
-------------------

General Integration Accuracy     IntAcc      ... 4.388
Radial Grid Type                 RadialGrid  ... OptM3 with GC (2021)
Angular Grid (max. ang.)         AngularGrid ... 4 (Lebedev-302)
Angular grid pruning method      GridPruning ... 4 (adaptive)
Weight generation scheme         WeightScheme... mBecke (2022)
Basis function cutoff            BFCut       ... 1.0000e-11
Integration weight cutoff        WCut        ... 1.0000e-14
Partially contracted basis set               ... off
Rotationally invariant grid construction     ... off
Angular grids for H and He will be reduced by one unit

Total number of grid points                  ...    98480
Total number of batches                      ...     1549
Average number of points per batch           ...       63
Average number of grid points per atom       ...     4690

--------------------
COSX GRID GENERATION
--------------------

GRIDX 1
-------
General Integration Accuracy     IntAcc      ... 3.816
Radial Grid Type                 RadialGrid  ... OptM3 with GC (2021)
Angular Grid (max. ang.)         AngularGrid ... 1 (Lebedev-50)
Angular grid pruning method      GridPruning ... 4 (adaptive)
Weight generation scheme         WeightScheme... mBecke (2022)
Basis function cutoff            BFCut       ... 1.0000e-11
Integration weight cutoff        WCut        ... 1.0000e-14
Partially contracted basis set               ... on
Rotationally invariant grid construction     ... off
Angular grids for H and He will be reduced by one unit

Total number of grid points                  ...    12510
Total number of batches                      ...      109
Average number of points per batch           ...      114
Average number of grid points per atom       ...      596
UseSFitting                                  ... on

GRIDX 2
-------
General Integration Accuracy     IntAcc      ... 4.020
Radial Grid Type                 RadialGrid  ... OptM3 with GC (2021)
Angular Grid (max. ang.)         AngularGrid ... 2 (Lebedev-110)
Angular grid pruning method      GridPruning ... 4 (adaptive)
Weight generation scheme         WeightScheme... mBecke (2022)
Basis function cutoff            BFCut       ... 1.0000e-11
Integration weight cutoff        WCut        ... 1.0000e-14
Partially contracted basis set               ... on
Rotationally invariant grid construction     ... off
Angular grids for H and He will be reduced by one unit

Total number of grid points                  ...    27291
Total number of batches                      ...      224
Average number of points per batch           ...      121
Average number of grid points per atom       ...     1300
UseSFitting                                  ... on

GRIDX 3
-------
General Integration Accuracy     IntAcc      ... 4.338
Radial Grid Type                 RadialGrid  ... OptM3 with GC (2021)
Angular Grid (max. ang.)         AngularGrid ... 3 (Lebedev-194)
Angular grid pruning method      GridPruning ... 4 (adaptive)
Weight generation scheme         WeightScheme... mBecke (2022)
Basis function cutoff            BFCut       ... 1.0000e-11
Integration weight cutoff        WCut        ... 1.0000e-14
Partially contracted basis set               ... on
Rotationally invariant grid construction     ... off
Angular grids for H and He will be reduced by one unit

Total number of grid points                  ...    59950
Total number of batches                      ...      479
Average number of points per batch           ...      125
Average number of grid points per atom       ...     2855
UseSFitting                                  ... on
Initializing property integral containers    ... done (  0.0 sec)

SHARK setup successfully completed in   3.3 seconds

Maximum memory used throughout the entire STARTUP-calculation: 28.2 MB


           ************************************************************
           *        Program running with 40 parallel MPI-processes    *
           *              working on a common directory               *
           ************************************************************
-------------------------------------------------------------------------------
                                 ORCA GUESS
                   Start orbitals & Density for SCF / CASSCF
-------------------------------------------------------------------------------

------------
SCF SETTINGS
------------
Hamiltonian:
 Density Functional     Method          .... DFT(GTOs)
 Exchange Functional    Exchange        .... WB97X-V
 Correlation Functional Correlation     .... WB97X-V
 Gradients option       PostSCFGGA      .... off
 Hybrid DFT is turned on
   Fraction HF Exchange ScalHFX         ....  0.167000
   Scaling of DF-GGA-X  ScalDFX         ....  0.000000
   Scaling of DF-GGA-C  ScalDFC         ....  1.000000
   Scaling of DF-LDA-C  ScalLDAC        ....  1.000000
   Perturbative correction              ....  0.000000
 Long-range corrected/Screened/Range-Separated Hybrid DFT is turned on
   Amount of maximum screened exact exchange              ....  0.833000
   Range separation parameter mu (erf(mu*r12)/r12)        ....  0.300000
   NL short-range parameter             ....  6.000000
   NL long-range parameter              ....  0.010000
 RI-approximation to the Coulomb term is turned on
   Number of AuxJ basis functions       .... 649
   RIJ-COSX (HFX calculated with COS-X)).... on


General Settings:
 Integral files         IntName         .... ./output/benzyl_acetate/benzyl_acetate
 Hartree-Fock type      HFTyp           .... RHF
 Total Charge           Charge          ....    0
 Multiplicity           Mult            ....    1
 Number of Electrons    NEL             ....   58
 Basis Dimension        Dim             ....  193
 Nuclear Repulsion      ENuc            ....    299.9094327705 Eh

Convergence Acceleration:
 AO-DIIS                CNVDIIS         .... on
   Start iteration      DIISMaxIt       ....    12
   Startup error        DIISStart       ....  0.200000
   # of expansion vecs  DIISMaxEq       ....     5
   Bias factor          DIISBfac        ....   1.050
   Max. coefficient     DIISMaxC        ....  10.000
 MO-DIIS                CNVKDIIS        .... off
 Trust-Rad. Augm. Hess. CNVTRAH         .... auto
   Auto Start mean grad. ratio tolernc. ....  1.125000
   Auto Start start iteration           ....    50
   Auto Start num. interpolation iter.  ....    10
   Max. Number of Micro iterations      ....    24
   Max. Number of Macro iterations      .... Maxiter - #DIIS iter
   Number of Davidson start vectors     ....     2
   Converg. threshold    (grad. norm)   ....   1.000e-05
   Grad. Scal. Fac. for Micro threshold ....   0.100
   Minimum threshold for Micro iter.    ....   1.000e-02
   NR start threshold (gradient norm)   ....   1.000e-04
   Initial trust radius                 ....   0.400
   Minimum AH scaling param. (alpha)    ....   1.000
   Maximum AH scaling param. (alpha)    .... 1000.000
   Quad. conv. algorithm                .... NR
   White noise on init. David. guess    .... on
   Maximum white noise                  ....   0.010
   Pseudo random numbers                .... off
   Inactive MOs                         .... canonical
   Orbital update algorithm             .... Taylor
   Preconditioner                       .... Diag
   Full preconditioner red. dimension   ....   250
 SOSCF                  CNVSOSCF        .... on
   Start iteration      SOSCFMaxIt      ....   150
   Startup grad/error   SOSCFStart      ....  0.003300
   Hessian update       SOSCFHessUp     .... L-BFGS
 Level Shifting         CNVShift        .... on
   Level shift para.    LevelShift      ....    0.2500
   Turn off err/grad.   ShiftErr        ....    0.0010
 Zerner damping         CNVZerner       .... off
 Static damping         CNVDamp         .... on
   Fraction old density DampFac         ....    0.7000
   Max. Damping (<1)    DampMax         ....    0.9800
   Min. Damping (>=0)   DampMin         ....    0.0000
   Turn off err/grad.   DampErr         ....    0.1000

SCF Procedure:
 Maximum # iterations   MaxIter         ....   125
 SCF integral mode      SCFMode         .... Direct
   Integral package                     .... SHARK and LIBINT hybrid scheme
 Reset frequency        DirectResetFreq ....    20
 Integral Threshold     Thresh          ....  2.500e-11 Eh
 Primitive CutOff       TCut            ....  2.500e-12 Eh

Convergence Tolerance:
 Convergence Check Mode ConvCheckMode   .... Total+1el-Energy
 Convergence forced     ConvForced      .... 0
 Energy Change          TolE            ....  1.000e-08 Eh
 1-El. energy change                    ....  1.000e-05 Eh
 Orbital Gradient       TolG            ....  1.000e-05
 Orbital Rotation angle TolX            ....  1.000e-05
 DIIS Error             TolErr          ....  5.000e-07

------------------------------
INITIAL GUESS: MODEL POTENTIAL
------------------------------
Loading Hartree-Fock densities                     ... done
Atomic calculation to generate a density for atom 0 (C  with ECP)
  Multiplicity assumed   :    1
  Atomic configuration   : 1s2 2s2 2p2 
  Number of open shells  : 1
  Command: /home/aspe232/Project/Software/ORCA/6_0_1/build/orca ./output/benzyl_acetate/benzyl_acetate_atom6.inp "" > ./output/benzyl_acetate/benzyl_acetate_atom6.out
Returned from the atomic calculation with res=0
Atomic calculation to generate a density for atom 2 (O  with ECP)
  Multiplicity assumed   :    3
  Atomic configuration   : 1s2 2s2 2p4 
  Number of open shells  : 1
  Command: /home/aspe232/Project/Software/ORCA/6_0_1/build/orca ./output/benzyl_acetate/benzyl_acetate_atom8.inp "" > ./output/benzyl_acetate/benzyl_acetate_atom8.out
Returned from the atomic calculation with res=0
Calculating cut-offs                               ... done
Initializing the effective Hamiltonian             ... done
Setting up the integral package (SHARK)            ... done
Starting the Coulomb interaction                   ... done (   0.0 sec)
Making the grid                                    ... done (   0.6 sec)
Mapping shells                                     ... done
Starting the XC term evaluation                    ... done (   0.1 sec)
  promolecular density results
     # of electrons  =     80.001709463
     EX              =    -44.055257894
     EC              =     -3.297605655
     EX+EC           =    -47.352863548
Transforming the Hamiltonian                       ... done (   0.0 sec)
Diagonalizing the Hamiltonian                      ... done (   0.0 sec)
Back transforming the eigenvectors                 ... done (   0.0 sec)
Now organizing SCF variables                       ... done
                      ------------------
                      INITIAL GUESS DONE (   1.9 sec)
                      ------------------
             **** ENERGY FILE WAS UPDATED (./output/benzyl_acetate/benzyl_acetate.en.tmp) ****
Finished Guess after   2.4 sec
Maximum memory used throughout the entire GUESS-calculation: 17.2 MB


           ************************************************************
           *        Program running with 40 parallel MPI-processes    *
           *              working on a common directory               *
           ************************************************************

-------------------------------------------------------------------------------------------
                                      ORCA LEAN-SCF
                              memory conserving SCF solver
-------------------------------------------------------------------------------------------

----------------------------------------D-I-I-S--------------------------------------------
Iteration    Energy (Eh)           Delta-E    RMSDP     MaxDP     DIISErr   Damp  Time(sec)
-------------------------------------------------------------------------------------------
               ***  Starting incremental Fock matrix formation  ***
    1    -89.0292940329388784     0.00e+00  4.08e-03  8.68e-02  1.95e-01  0.700   3.5
    2    -89.1679224691898753    -1.39e-01  2.99e-03  5.46e-02  9.37e-02  0.700   3.2
                               ***Turning on AO-DIIS***
    3    -89.2389372078001770    -7.10e-02  1.67e-03  2.85e-02  5.29e-02  0.700   2.7
    4    -89.2814603534458797    -4.25e-02  3.58e-03  5.91e-02  3.30e-02  0.000   2.6
    5    -89.3725417862394238    -9.11e-02  2.69e-04  8.59e-03  6.07e-03  0.000   2.8
    6    -89.3728181347687496    -2.76e-04  1.20e-04  5.47e-03  4.52e-03  0.000   2.5
                              *** Initializing SOSCF ***
---------------------------------------S-O-S-C-F--------------------------------------
Iteration    Energy (Eh)           Delta-E    RMSDP     MaxDP     MaxGrad    Time(sec)
--------------------------------------------------------------------------------------
    7    -89.3728840521400230    -6.59e-05  6.35e-05  1.37e-03  1.02e-03     2.6
               *** Restarting incremental Fock matrix formation ***
    8    -89.3729251670400231    -4.11e-05  3.73e-05  9.40e-04  3.27e-04     3.2
    9    -89.3729284620878843    -3.30e-06  3.19e-05  8.49e-04  3.55e-04     3.0
   10    -89.3729293623494527    -9.00e-07  1.16e-05  2.74e-04  1.65e-04     3.0
   11    -89.3729296322246682    -2.70e-07  4.13e-06  9.52e-05  2.71e-05     3.3
   12    -89.3729296380060418    -5.78e-09  1.82e-06  5.55e-05  1.41e-05     2.8
                 **** Energy Check signals convergence ****

               *****************************************************
               *                     SUCCESS                       *
               *           SCF CONVERGED AFTER  12 CYCLES          *
               *****************************************************

Recomputing exchange energy using gridx3       ... done (    2.533 sec)
Old exchange energy                            :    -11.342204386 Eh
New exchange energy                            :    -11.342190276 Eh
Exchange energy change after final integration :      0.000014111 Eh
Total energy after final integration           :    -89.372915527 Eh
             **** ENERGY FILE WAS UPDATED (./output/benzyl_acetate/benzyl_acetate.en.tmp) ****

----------------
TOTAL SCF ENERGY
----------------

Total Energy       :        -89.37291552740011 Eh           -2431.96067 eV

Components:
Nuclear Repulsion  :        299.90943277045835 Eh            8160.95056 eV
Electronic Energy  :       -389.28236240846439 Eh          -10592.91161 eV
One Electron Energy:       -732.68037949480424 Eh          -19937.24672 eV
Two Electron Energy:        343.39801708633985 Eh            9344.33510 eV

Virial components:
Potential Energy   :       -158.10061962238578 Eh           -4302.13658 eV
Kinetic Energy     :         68.72770409498567 Eh            1870.17591 eV
Virial Ratio       :          2.30039140262683

DFT components:
N(Alpha)           :       29.000035350466 electrons
N(Beta)            :       29.000035350466 electrons
N(Total)           :       58.000070700933 electrons
E(X)               :      -12.749521845673 Eh       
E(C)               :       -2.229354033607 Eh       
E(XC)              :      -14.978875879280 Eh       

---------------
SCF CONVERGENCE
---------------

  Last Energy change         ...    5.7814e-09  Tolerance :   1.0000e-08
  Last MAX-Density change    ...    5.5501e-05  Tolerance :   1.0000e-07
  Last RMS-Density change    ...    1.8241e-06  Tolerance :   5.0000e-09
  Last DIIS Error            ...    1.0161e-03  Tolerance :   5.0000e-07
  Last Orbital Gradient      ...    1.4090e-05  Tolerance :   1.0000e-05
  Last Orbital Rotation      ...    3.7438e-05  Tolerance :   1.0000e-05


----------------
ORBITAL ENERGIES
----------------

  NO   OCC          E(Eh)            E(eV) 
   0   2.0000      -1.214023       -33.0352 
   1   2.0000      -1.121794       -30.5256 
   2   2.0000      -1.002158       -27.2701 
   3   2.0000      -0.924300       -25.1515 
   4   2.0000      -0.890816       -24.2403 
   5   2.0000      -0.886795       -24.1309 
   6   2.0000      -0.829633       -22.5755 
   7   2.0000      -0.740263       -20.1436 
   8   2.0000      -0.731536       -19.9061 
   9   2.0000      -0.683513       -18.5993 
  10   2.0000      -0.639396       -17.3988 
  11   2.0000      -0.619304       -16.8521 
  12   2.0000      -0.601597       -16.3703 
  13   2.0000      -0.594284       -16.1713 
  14   2.0000      -0.573276       -15.5996 
  15   2.0000      -0.567430       -15.4406 
  16   2.0000      -0.542695       -14.7675 
  17   2.0000      -0.537631       -14.6297 
  18   2.0000      -0.527539       -14.3551 
  19   2.0000      -0.521729       -14.1970 
  20   2.0000      -0.492282       -13.3957 
  21   2.0000      -0.479965       -13.0605 
  22   2.0000      -0.466811       -12.7026 
  23   2.0000      -0.454196       -12.3593 
  24   2.0000      -0.443075       -12.0567 
  25   2.0000      -0.409251       -11.1363 
  26   2.0000      -0.385505       -10.4901 
  27   2.0000      -0.349358        -9.5065 
  28   2.0000      -0.345303        -9.3962 
  29   0.0000       0.055237         1.5031 
  30   0.0000       0.064945         1.7672 
  31   0.0000       0.069922         1.9027 
  32   0.0000       0.084130         2.2893 
  33   0.0000       0.095523         2.5993 
  34   0.0000       0.103608         2.8193 
  35   0.0000       0.106588         2.9004 
  36   0.0000       0.126875         3.4525 
  37   0.0000       0.130805         3.5594 
  38   0.0000       0.145684         3.9643 
  39   0.0000       0.152061         4.1378 
*Only the first 10 virtual orbitals were printed.

                    ********************************
                    * MULLIKEN POPULATION ANALYSIS *
                    ********************************

-----------------------
MULLIKEN ATOMIC CHARGES
-----------------------
   0 C :   -0.083785
   1 C :    0.294272
   2 O :   -0.358628
   3 O :   -0.316629
   4 C :    0.099261
   5 C :   -0.083356
   6 C :    0.027482
   7 C :   -0.008630
   8 C :   -0.014498
   9 C :   -0.011531
  10 C :    0.015759
  11 H :    0.077248
  12 H :    0.080478
  13 H :    0.062257
  14 H :    0.068349
  15 H :    0.051552
  16 H :    0.024175
  17 H :    0.019309
  18 H :    0.019570
  19 H :    0.018639
  20 H :    0.018705
Sum of atomic charges:   -0.0000000

--------------------------------
MULLIKEN REDUCED ORBITAL CHARGES
--------------------------------
  0 C s       :     0.962451  s :     0.962451
      pz      :     0.979746  p :     3.058175
      px      :     0.995664
      py      :     1.082765
      dz2     :     0.007556  d :     0.063159
      dxz     :     0.016484
      dyz     :     0.018227
      dx2y2   :     0.017619
      dxy     :     0.003273

  1 C s       :     1.150226  s :     1.150226
      pz      :     0.807766  p :     2.310291
      px      :     0.769268
      py      :     0.733257
      dz2     :     0.042384  d :     0.245211
      dxz     :     0.022378
      dyz     :     0.061346
      dx2y2   :     0.055386
      dxy     :     0.063718

  2 O s       :     1.794541  s :     1.794541
      pz      :     1.560862  p :     4.530458
      px      :     1.573906
      py      :     1.395690
      dz2     :     0.005203  d :     0.033630
      dxz     :     0.001849
      dyz     :     0.009985
      dx2y2   :     0.007669
      dxy     :     0.008924

  3 O s       :     1.698699  s :     1.698699
      pz      :     1.547249  p :     4.582005
      px      :     1.527179
      py      :     1.507577
      dz2     :     0.006504  d :     0.035925
      dxz     :     0.006834
      dyz     :     0.006728
      dx2y2   :     0.008600
      dxy     :     0.007260

  4 C s       :     1.024671  s :     1.024671
      pz      :     0.850860  p :     2.736624
      px      :     0.811175
      py      :     1.074588
      dz2     :     0.030568  d :     0.139444
      dxz     :     0.033022
      dyz     :     0.023296
      dx2y2   :     0.033101
      dxy     :     0.019456

  5 C s       :     1.048630  s :     1.048630
      pz      :     1.008968  p :     2.920065
      px      :     0.921931
      py      :     0.989165
      dz2     :     0.020991  d :     0.114661
      dxz     :     0.019338
      dyz     :     0.019350
      dx2y2   :     0.027914
      dxy     :     0.027068

  6 C s       :     1.015742  s :     1.015742
      pz      :     0.964995  p :     2.863886
      px      :     0.949254
      py      :     0.949637
      dz2     :     0.011587  d :     0.092890
      dxz     :     0.017715
      dyz     :     0.017357
      dx2y2   :     0.023003
      dxy     :     0.023227

  7 C s       :     1.010302  s :     1.010302
      pz      :     0.962210  p :     2.904971
      px      :     0.967215
      py      :     0.975546
      dz2     :     0.018417  d :     0.093358
      dxz     :     0.017765
      dyz     :     0.013762
      dx2y2   :     0.022393
      dxy     :     0.021021

  8 C s       :     1.010945  s :     1.010945
      pz      :     0.965803  p :     2.909723
      px      :     0.974398
      py      :     0.969522
      dz2     :     0.018686  d :     0.093830
      dxz     :     0.013807
      dyz     :     0.017795
      dx2y2   :     0.022608
      dxy     :     0.020934

  9 C s       :     1.009208  s :     1.009208
      pz      :     0.968596  p :     2.908648
      px      :     0.967015
      py      :     0.973037
      dz2     :     0.011623  d :     0.093674
      dxz     :     0.017847
      dyz     :     0.017735
      dx2y2   :     0.022987
      dxy     :     0.023482

 10 C s       :     1.008277  s :     1.008277
      pz      :     0.960798  p :     2.883150
      px      :     0.945147
      py      :     0.977205
      dz2     :     0.018430  d :     0.092814
      dxz     :     0.018091
      dyz     :     0.013543
      dx2y2   :     0.021942
      dxy     :     0.020807

 11 H s       :     0.876973  s :     0.876973
      pz      :     0.012100  p :     0.045779
      px      :     0.022939
      py      :     0.010740

 12 H s       :     0.875403  s :     0.875403
      pz      :     0.014428  p :     0.044119
      px      :     0.009637
      py      :     0.020055

 13 H s       :     0.893509  s :     0.893509
      pz      :     0.014136  p :     0.044234
      px      :     0.010219
      py      :     0.019880

 14 H s       :     0.891125  s :     0.891125
      pz      :     0.008348  p :     0.040526
      px      :     0.008475
      py      :     0.023703

 15 H s       :     0.907335  s :     0.907335
      pz      :     0.017149  p :     0.041112
      px      :     0.009736
      py      :     0.014228

 16 H s       :     0.926242  s :     0.926242
      pz      :     0.019215  p :     0.049583
      px      :     0.015085
      py      :     0.015283

 17 H s       :     0.931078  s :     0.931078
      pz      :     0.013865  p :     0.049613
      px      :     0.012709
      py      :     0.023038

 18 H s       :     0.930995  s :     0.930995
      pz      :     0.013848  p :     0.049435
      px      :     0.022959
      py      :     0.012629

 19 H s       :     0.931689  s :     0.931689
      pz      :     0.019866  p :     0.049672
      px      :     0.014898
      py      :     0.014907

 20 H s       :     0.931479  s :     0.931479
      pz      :     0.014112  p :     0.049816
      px      :     0.012905
      py      :     0.022799



                     *******************************
                     * LOEWDIN POPULATION ANALYSIS *
                     *******************************

----------------------
LOEWDIN ATOMIC CHARGES
----------------------
   0 C :   -0.091440
   1 C :    0.027001
   2 O :   -0.195847
   3 O :   -0.055728
   4 C :   -0.029965
   5 C :   -0.046065
   6 C :   -0.020373
   7 C :   -0.040817
   8 C :   -0.043306
   9 C :   -0.045137
  10 C :   -0.031407
  11 H :    0.073028
  12 H :    0.077092
  13 H :    0.063203
  14 H :    0.068709
  15 H :    0.060134
  16 H :    0.049154
  17 H :    0.046073
  18 H :    0.045078
  19 H :    0.044811
  20 H :    0.045803

-------------------------------
LOEWDIN REDUCED ORBITAL CHARGES
-------------------------------
  0 C s       :     0.783722  s :     0.783722
      pz      :     1.004135  p :     3.096242
      px      :     1.016033
      py      :     1.076074
      dz2     :     0.023473  d :     0.211475
      dxz     :     0.052988
      dyz     :     0.066118
      dx2y2   :     0.058306
      dxy     :     0.010590

  1 C s       :     0.786862  s :     0.786862
      pz      :     0.847361  p :     2.517872
      px      :     0.801608
      py      :     0.868903
      dz2     :     0.114325  d :     0.668264
      dxz     :     0.060601
      dyz     :     0.166089
      dx2y2   :     0.165259
      dxy     :     0.161990

  2 O s       :     1.561663  s :     1.561663
      pz      :     1.537581  p :     4.566808
      px      :     1.520903
      py      :     1.508324
      dz2     :     0.009027  d :     0.067376
      dxz     :     0.004365
      dyz     :     0.021056
      dx2y2   :     0.017677
      dxy     :     0.015251

  3 O s       :     1.401491  s :     1.401491
      pz      :     1.515692  p :     4.556086
      px      :     1.503398
      py      :     1.536996
      dz2     :     0.018615  d :     0.098151
      dxz     :     0.018302
      dyz     :     0.019613
      dx2y2   :     0.021011
      dxy     :     0.020609

  4 C s       :     0.765193  s :     0.765193
      pz      :     0.901461  p :     2.852568
      px      :     0.875665
      py      :     1.075442
      dz2     :     0.086708  d :     0.412204
      dxz     :     0.104215
      dyz     :     0.069153
      dx2y2   :     0.097006
      dxy     :     0.055124

  5 C s       :     0.786179  s :     0.786179
      pz      :     0.951471  p :     2.894438
      px      :     0.951467
      py      :     0.991500
      dz2     :     0.060450  d :     0.365448
      dxz     :     0.063905
      dyz     :     0.065698
      dx2y2   :     0.088993
      dxy     :     0.086403

  6 C s       :     0.800571  s :     0.800571
      pz      :     0.950616  p :     2.921002
      px      :     0.989667
      py      :     0.980719
      dz2     :     0.034829  d :     0.298799
      dxz     :     0.056705
      dyz     :     0.055876
      dx2y2   :     0.069834
      dxy     :     0.081556

  7 C s       :     0.802239  s :     0.802239
      pz      :     0.950198  p :     2.939221
      px      :     0.988829
      py      :     1.000194
      dz2     :     0.052426  d :     0.299357
      dxz     :     0.063122
      dyz     :     0.044467
      dx2y2   :     0.072152
      dxy     :     0.067190

  8 C s       :     0.802674  s :     0.802674
      pz      :     0.950140  p :     2.939676
      px      :     1.000445
      py      :     0.989091
      dz2     :     0.053049  d :     0.300956
      dxz     :     0.044777
      dyz     :     0.062890
      dx2y2   :     0.072775
      dxy     :     0.067465

  9 C s       :     0.801858  s :     0.801858
      pz      :     0.957572  p :     2.942542
      px      :     0.992214
      py      :     0.992756
      dz2     :     0.034361  d :     0.300738
      dxz     :     0.056981
      dyz     :     0.056878
      dx2y2   :     0.070051
      dxy     :     0.082467

 10 C s       :     0.799442  s :     0.799442
      pz      :     0.949110  p :     2.932741
      px      :     0.984789
      py      :     0.998843
      dz2     :     0.053712  d :     0.299225
      dxz     :     0.063984
      dyz     :     0.043943
      dx2y2   :     0.069989
      dxy     :     0.067596

 11 H s       :     0.781191  s :     0.781191
      pz      :     0.042082  p :     0.145781
      px      :     0.062747
      py      :     0.040952

 12 H s       :     0.782256  s :     0.782256
      pz      :     0.044756  p :     0.140652
      px      :     0.037166
      py      :     0.058731

 13 H s       :     0.792205  s :     0.792205
      pz      :     0.046289  p :     0.144592
      px      :     0.038864
      py      :     0.059439

 14 H s       :     0.796587  s :     0.796587
      pz      :     0.033257  p :     0.134704
      px      :     0.032080
      py      :     0.069368

 15 H s       :     0.803981  s :     0.803981
      pz      :     0.054582  p :     0.135885
      px      :     0.032520
      py      :     0.048783

 16 H s       :     0.802562  s :     0.802562
      pz      :     0.056092  p :     0.148284
      px      :     0.046290
      py      :     0.045902

 17 H s       :     0.804445  s :     0.804445
      pz      :     0.043893  p :     0.149482
      px      :     0.041427
      py      :     0.064162

 18 H s       :     0.805101  s :     0.805101
      pz      :     0.044008  p :     0.149821
      px      :     0.064184
      py      :     0.041629

 19 H s       :     0.805307  s :     0.805307
      pz      :     0.056951  p :     0.149883
      px      :     0.046383
      py      :     0.046549

 20 H s       :     0.804897  s :     0.804897
      pz      :     0.043598  p :     0.149300
      px      :     0.041502
      py      :     0.064200



                      *****************************
                      * MAYER POPULATION ANALYSIS *
                      *****************************

  NA   - Mulliken gross atomic population
  ZA   - Total nuclear charge
  QA   - Mulliken gross atomic charge
  VA   - Mayer's total valence
  BVA  - Mayer's bonded valence
  FA   - Mayer's free valence

  ATOM       NA         ZA         QA         VA         BVA        FA
  0 C      4.0838     4.0000    -0.0838     3.9548     3.9548    -0.0000
  1 C      3.7057     4.0000     0.2943     4.0555     4.0555     0.0000
  2 O      6.3586     6.0000    -0.3586     2.0003     2.0003     0.0000
  3 O      6.3166     6.0000    -0.3166     2.0016     2.0016    -0.0000
  4 C      3.9007     4.0000     0.0993     3.9281     3.9281    -0.0000
  5 C      4.0834     4.0000    -0.0834     4.1127     4.1127    -0.0000
  6 C      3.9725     4.0000     0.0275     4.0639     4.0639     0.0000
  7 C      4.0086     4.0000    -0.0086     4.0767     4.0767    -0.0000
  8 C      4.0145     4.0000    -0.0145     4.0715     4.0715    -0.0000
  9 C      4.0115     4.0000    -0.0115     4.0767     4.0767    -0.0000
 10 C      3.9842     4.0000     0.0158     4.0551     4.0551    -0.0000
 11 H      0.9228     1.0000     0.0772     1.0338     1.0338    -0.0000
 12 H      0.9195     1.0000     0.0805     1.0329     1.0329    -0.0000
 13 H      0.9377     1.0000     0.0623     1.0347     1.0347    -0.0000
 14 H      0.9317     1.0000     0.0683     1.0142     1.0142    -0.0000
 15 H      0.9484     1.0000     0.0516     1.0280     1.0280    -0.0000
 16 H      0.9758     1.0000     0.0242     1.0438     1.0438     0.0000
 17 H      0.9807     1.0000     0.0193     1.0459     1.0459    -0.0000
 18 H      0.9804     1.0000     0.0196     1.0458     1.0458    -0.0000
 19 H      0.9814     1.0000     0.0186     1.0461     1.0461    -0.0000
 20 H      0.9813     1.0000     0.0187     1.0457     1.0457    -0.0000

  Mayer bond orders larger than 0.100000
B(  0-C ,  1-C ) :   1.0223 B(  0-C , 11-H ) :   0.9691 B(  0-C , 12-H ) :   0.9816 
B(  0-C , 13-H ) :   0.9837 B(  1-C ,  2-O ) :   1.9024 B(  1-C ,  3-O ) :   1.0891 
B(  3-O ,  4-C ) :   0.8787 B(  4-C ,  5-C ) :   1.0183 B(  4-C , 14-H ) :   1.0029 
B(  4-C , 15-H ) :   0.9989 B(  5-C ,  6-C ) :   1.4492 B(  5-C , 10-C ) :   1.4406 
B(  6-C ,  7-C ) :   1.4469 B(  6-C , 16-H ) :   0.9894 B(  7-C ,  8-C ) :   1.4464 
B(  7-C , 17-H ) :   0.9944 B(  8-C ,  9-C ) :   1.4436 B(  8-C , 18-H ) :   0.9953 
B(  9-C , 10-C ) :   1.4556 B(  9-C , 19-H ) :   0.9940 B( 10-C , 20-H ) :   0.9884 


-------
TIMINGS
-------

Total SCF time: 0 days 0 hours 0 min 41 sec 

Total time                  ....      41.312 sec
Sum of individual times     ....      39.621 sec  ( 95.9%)

SCF preparation             ....       1.950 sec  (  4.7%)
Fock matrix formation       ....      36.134 sec  ( 87.5%)
  Startup                   ....       0.230 sec  (  0.6% of F)
  Split-RI-J                ....       1.290 sec  (  3.6% of F)
  Chain of spheres X        ....      15.169 sec  ( 42.0% of F)
  XC integration            ....      18.911 sec  ( 52.3% of F)
    XC Preparation          ....       0.000 sec  (  0.0% of XC)
    Basis function eval.    ....       0.372 sec  (  2.0% of XC)
    Density eval.           ....       0.141 sec  (  0.7% of XC)
    XC-Functional eval.     ....       0.145 sec  (  0.8% of XC)
    XC-Potential eval.      ....       0.218 sec  (  1.2% of XC)
Diagonalization             ....       0.000 sec  (  0.0%)
Density matrix formation    ....       0.439 sec  (  1.1%)
Total Energy calculation    ....       0.326 sec  (  0.8%)
Population analysis         ....       0.050 sec  (  0.1%)
Orbital Transformation      ....       0.059 sec  (  0.1%)
Orbital Orthonormalization  ....       0.000 sec  (  0.0%)
DIIS solution               ....       0.517 sec  (  1.3%)
SOSCF solution              ....       0.144 sec  (  0.3%)
Finished LeanSCF after  41.4 sec

Maximum memory used throughout the entire LEANSCF-calculation: 30.8 MB


           ************************************************************
           *        Program running with 40 parallel MPI-processes    *
           *              working on a common directory               *
           ************************************************************

------------------------------------------------------------------------------
                         ORCA PROPERTY INTEGRAL CALCULATIONS
------------------------------------------------------------------------------

GBWName                                   ... ./output/benzyl_acetate/benzyl_acetate.gbw
Number of atoms                           ...     21
Number of basis functions                 ...    193
Max core memory                           ...   1024 MB

Dipole integrals                          ... YES
Quadrupole integrals                      ...  NO
Linear momentum integrals                 ...  NO
Angular momentum integrals                ...  NO
Higher moments length integrals           ...  NO
Higher moments velocity integrals         ...  NO
Kinetic energy integrals                  ...  NO
GIAO right hand sides                     ...  NO
GIAO dipole derivative integrals          ...  NO
SOC integrals                             ...  NO
EPR diamagnetic integrals (GIAO)          ...  NO
EPR gauge integrals                       ...  NO
Field gradient integrals                  ...  NO (   0 nuclei)
Spin-dipole/Fermi contact integrals       ...  NO (   0 nuclei)
Contact density integrals                 ...  NO (   0 nuclei)
Nucleus-orbit integrals                   ...  NO (   0 nuclei)
Geometric perturbations                   ...  NO (  21 nuclei)

Choice of electric origin   ... Center of mass
Position of electric origin ... (  0.0504,  0.0892,  0.2681) 
Choice of magnetic origin   ... GIAO
Position of magnetic origin ... (  0.0000,  0.0000,  0.0000) 

Calculating integrals                     ... Electric Dipole (Length)     done (  0.0 sec)

Property integrals calculated in   0.0 sec

Maximum memory used throughout the entire PROPINT-calculation: 14.0 MB


-------------------------------------------------------------------------------
                          DFT DISPERSION CORRECTION                            
                                                                               
                                DFTD4 V3.4.0                                   
-------------------------------------------------------------------------------
The wB97X-3c composite method is recognized
Using three-body term ABC
Active option DFTDOPT                   ...         5   

-------------------------   ----------------
Dispersion correction           -0.024877556
-------------------------   ----------------


-------------------------   --------------------
FINAL SINGLE POINT ENERGY       -89.397793083080
-------------------------   --------------------



           ************************************************************
           *        Program running with 40 parallel MPI-processes    *
           *              working on a common directory               *
           ************************************************************
------------------------------------------------------------------------------
                         ORCA SCF GRADIENT CALCULATION
------------------------------------------------------------------------------

Nuc. rep. gradient        (SHARK) ... done (  0.0 sec)
HCore & Overlap gradient  (SHARK) ... done (  0.0 sec)
ECP gradient              (SHARK) ... done (  0.3 sec)
Split-RIJ-J gradient      (SHARK) ... done (  0.4 sec)
COSX-gradient                     ... done (  4.0 sec)
XC gradient                       ... done (  1.3 sec)
Dispersion correction             ... done (  0.1 sec)

-------------------
DISPERSION GRADIENT
-------------------

   1   C   :    0.000325003    0.000036834    0.000328894
   2   C   :    0.000464345    0.000147187    0.000174806
   3   O   :    0.000361701    0.000532286   -0.000030700
   4   O   :    0.000329338   -0.000302378   -0.000091653
   5   C   :    0.000203121   -0.000392641   -0.000433953
   6   C   :   -0.000056492   -0.000240605   -0.000242218
   7   C   :   -0.000226831    0.000403156   -0.000444740
   8   C   :   -0.000330777    0.000473592   -0.000166291
   9   C   :   -0.000471848    0.000183362    0.000177278
  10   C   :   -0.000385744   -0.000243267    0.000384377
  11   C   :   -0.000260868   -0.000502789    0.000281429
  12   H   :    0.000091776    0.000002265    0.000045853
  13   H   :    0.000044616    0.000021289    0.000071179
  14   H   :    0.000068374   -0.000013980    0.000092940
  15   H   :    0.000077560   -0.000128303   -0.000092854
  16   H   :    0.000083055   -0.000067704   -0.000124894
  17   H   :   -0.000021198    0.000145426   -0.000151097
  18   H   :   -0.000058184    0.000131410   -0.000044585
  19   H   :   -0.000122563    0.000054538    0.000054557
  20   H   :   -0.000076854   -0.000069143    0.000107115
  21   H   :   -0.000037532   -0.000170535    0.000104556

Difference to translation invariance:
           :   -0.0000000000    0.0000000000   -0.0000000000

Difference to rotation invariance:
           :    0.0000000000    0.0000000000    0.0000000000

Norm of the Dispersion gradient    ...    0.0019151588
RMS gradient                       ...    0.0002412873
MAX gradient                       ...    0.0005322860

------------------
CARTESIAN GRADIENT
------------------

   1   C   :   -0.000549932    0.021408662   -0.015252910
   2   C   :    0.045599632   -0.061840850    0.069482318
   3   O   :   -0.015439307    0.078290709   -0.032501416
   4   O   :   -0.034848920   -0.017197156   -0.031565560
   5   C   :    0.003635216   -0.012976312    0.012838839
   6   C   :    0.010960019   -0.009054740   -0.000754489
   7   C   :    0.008684258    0.009489836   -0.010590534
   8   C   :   -0.004530963    0.012492244   -0.004285454
   9   C   :   -0.010642546    0.003523194    0.004449264
  10   C   :   -0.008147711   -0.006001654    0.008731610
  11   C   :    0.006282873   -0.013635568    0.005870738
  12   H   :    0.013981587   -0.000197532   -0.004739084
  13   H   :   -0.000185835    0.011663868    0.014163540
  14   H   :   -0.005625342   -0.011176866    0.007851669
  15   H   :   -0.009946055   -0.011643368   -0.010479235
  16   H   :    0.005027612    0.004724252   -0.013226093
  17   H   :   -0.001433113    0.001958567   -0.001971397
  18   H   :   -0.000660219    0.000810963   -0.000273127
  19   H   :   -0.000716093    0.000347792    0.000269049
  20   H   :   -0.000565082   -0.000217405    0.000757645
  21   H   :   -0.000880080   -0.000768634    0.001224627

Difference to translation invariance:
           :   -0.0000000000    0.0000000000    0.0000000000

Difference to rotation invariance:
           :   -0.0000221107   -0.0000063922   -0.0000753966

Norm of the Cartesian gradient     ...    0.1559303544
RMS gradient                       ...    0.0196453781
MAX gradient                       ...    0.0782907089

-------
TIMINGS
-------

Total SCF gradient time     ....        6.142 sec

Densities                   ....       0.001 sec  (  0.0%)
One electron gradient       ....       0.037 sec  (  0.6%)
RI-J Coulomb gradient       ....       0.352 sec  (  5.7%)
COSX gradient               ....       4.043 sec  ( 65.8%)
XC gradient                 ....       1.343 sec  ( 21.9%)

Maximum memory used throughout the entire SCFGRAD-calculation: 35.1 MB
------------------------------------------------------------------------------
                         ORCA GEOMETRY RELAXATION STEP
------------------------------------------------------------------------------

Reading the OPT-File                    .... done
Getting information on internals        .... done
Copying old internal coords+grads       .... done
Making the new internal coordinates     .... (2022 redundants) done
Validating the new internal coordinates .... (2022 redundants) done
Calculating the B-matrix                .... done
Calculating the G,G- and P matrices     .... done
Transforming gradient to internals      .... done
Projecting the internal gradient        .... done
Number of atoms                         ....  21
Number of internal coordinates          ....  94
Current Energy                          ....   -89.397793083 Eh
Current gradient norm                   ....     0.155930354 Eh/bohr
Maximum allowed component of the step   ....  0.300
Current trust radius                    ....  0.300
Evaluating the initial hessian          ....  (Almloef) done
Projecting the Hessian                  .... done
Forming the augmented Hessian           .... done
Diagonalizing the augmented Hessian     .... done
Last element of RFO vector              ....  0.971068910
Lowest eigenvalues of augmented Hessian:
 -0.028230990  0.012481383  0.013758273  0.016075249  0.019172732
[...]
     52      -0.005736  -0.153697  -0.524427
     53       0.001444   0.036631   0.132576
     54       0.001640  -0.373040   0.437178
     55      -0.000560   0.140354  -0.159695
     56      -0.000599   0.128640  -0.152706
     57      -0.002765  -0.345578   0.204055
     58      -0.002777  -0.352892   0.210465
     59       0.002536   0.319598  -0.189657
     60       0.000379   0.066033  -0.036725
     61      -0.001002  -0.195389   0.109296
     62       0.000235   0.047467  -0.026605


-----------
IR SPECTRUM
-----------

 Mode   freq       eps      Int      T**2         TX        TY        TZ
       cm**-1   L/(mol*cm) km/mol    a.u.
----------------------------------------------------------------------------
  6:     25.56   0.000117    0.59  0.001434  ( 0.017676 -0.014116 -0.030375)
  7:     54.83   0.000413    2.09  0.002353  (-0.033977  0.017502  0.029867)
  8:     69.94   0.000146    0.74  0.000650  ( 0.024521  0.006623  0.002109)
  9:     86.58   0.000624    3.15  0.002248  (-0.040135  0.001287  0.025208)
 10:    172.00   0.000297    1.50  0.000538  (-0.022345  0.006191  0.000785)
 11:    238.60   0.001230    6.21  0.001608  (-0.032083 -0.023940 -0.002380)
 12:    312.51   0.000728    3.68  0.000727  ( 0.011311 -0.023903 -0.005247)
 13:    375.12   0.001019    5.15  0.000848  (-0.017299 -0.023124  0.003736)
 14:    419.98   0.000001    0.00  0.000000  ( 0.000022  0.000609  0.000349)
 15:    446.07   0.000481    2.43  0.000337  (-0.016366 -0.005660 -0.006060)
 16:    514.23   0.003283   16.59  0.001992  ( 0.035058  0.011419  0.025152)
 17:    601.67   0.001241    6.27  0.000644  ( 0.009975  0.011707  0.020174)
 18:    634.58   0.003136   15.85  0.001542  ( 0.011446 -0.016513 -0.033741)
 19:    646.10   0.000058    0.29  0.000028  ( 0.003976  0.003069  0.001647)
 20:    681.07   0.001667    8.42  0.000764  ( 0.021465 -0.013337 -0.011185)
 21:    725.78   0.011545   58.34  0.004964  ( 0.028678  0.023541  0.059894)
 22:    787.37   0.006461   32.65  0.002561  ( 0.026402  0.009164  0.042186)
 23:    861.86   0.001589    8.03  0.000575  ( 0.022664 -0.007248 -0.002999)
 24:    880.02   0.000669    3.38  0.000237  (-0.000456 -0.013564  0.007276)
 25:    882.76   0.001274    6.44  0.000450  ( 0.000072  0.019353 -0.008699)
 26:    966.58   0.001233    6.23  0.000398  ( 0.018113  0.001360  0.008247)
 27:   1007.57   0.001327    6.71  0.000411  ( 0.010672 -0.011526  0.012819)
 28:   1016.83   0.000044    0.22  0.000014  (-0.000068 -0.003048  0.002084)
 29:   1034.12   0.000032    0.16  0.000010  (-0.002722 -0.000613 -0.001342)
 30:   1043.60   0.000545    2.75  0.000163  ( 0.008362  0.009337 -0.002409)
 31:   1043.80   0.000239    1.21  0.000071  (-0.000133 -0.007610  0.003674)
 32:   1080.53   0.002531   12.79  0.000731  ( 0.026886  0.002190  0.001861)
 33:   1095.86   0.002857   14.44  0.000814  (-0.001174  0.014007  0.024819)
 34:   1099.62   0.020600  104.10  0.005846  (-0.065971 -0.025005 -0.029473)
 35:   1137.22   0.000942    4.76  0.000259  (-0.000127 -0.014493  0.006967)
 36:   1195.69   0.000046    0.23  0.000012  (-0.000144  0.003263 -0.001127)
 37:   1226.38   0.000201    1.02  0.000051  ( 0.006639  0.002160  0.001569)
 38:   1273.48   0.002144   10.84  0.000525  (-0.006938  0.020094  0.008572)
 39:   1300.58   0.023064  116.55  0.005534  ( 0.062009  0.034500  0.022329)
 40:   1329.80   0.052498  265.30  0.012320  (-0.091605 -0.056783 -0.026529)
 41:   1364.00   0.003560   17.99  0.000815  (-0.018276 -0.021856 -0.001692)
 42:   1391.77   0.001073    5.42  0.000241  (-0.012979 -0.007271 -0.004380)
 43:   1428.29   0.007183   36.30  0.001569  (-0.037322 -0.004437 -0.012522)
 44:   1456.84   0.019339   97.73  0.004143  ( 0.037987  0.034934  0.038460)
 45:   1502.45   0.003623   18.31  0.000752  (-0.006897  0.019740 -0.017755)
 46:   1508.87   0.002740   13.85  0.000567  ( 0.019237 -0.005718 -0.012807)
 47:   1523.64   0.004023   20.33  0.000824  (-0.013776 -0.012718 -0.021736)
 48:   1528.32   0.001721    8.70  0.000351  (-0.004111  0.008488 -0.016202)
 49:   1575.59   0.000757    3.82  0.000150  (-0.011849  0.002877  0.001083)
 50:   1701.03   0.000117    0.59  0.000022  (-0.000733  0.004114 -0.002011)
 51:   1723.32   0.000007    0.03  0.000001  (-0.000005 -0.000334 -0.001052)
 52:   1875.08   0.051029  257.88  0.008493  (-0.001285 -0.076331  0.051618)
 53:   3137.05   0.000344    1.74  0.000034  (-0.004155  0.000752 -0.004045)
 54:   3155.21   0.004695   23.73  0.000464  (-0.000890  0.013845  0.016489)
 55:   3224.99   0.000279    1.41  0.000027  (-0.000914 -0.004561  0.002319)
 56:   3232.36   0.000092    0.46  0.000009  (-0.002796  0.000926 -0.000457)
 57:   3242.96   0.000498    2.52  0.000048  (-0.004227  0.005478  0.000287)
 58:   3251.38   0.000183    0.92  0.000018  ( 0.003606 -0.001864 -0.001025)
 59:   3261.72   0.001742    8.80  0.000167  (-0.003234  0.012350 -0.001919)
 60:   3266.17   0.000204    1.03  0.000020  (-0.003378 -0.001611 -0.002348)
 61:   3270.79   0.001707    8.63  0.000163  ( 0.007391  0.006849 -0.007833)
 62:   3277.71   0.001228    6.21  0.000117  (-0.009841  0.004449  0.000525)

* The epsilon (eps) is given for a Dirac delta lineshape.
** The dipole moment derivative (T) already includes vibrational overlap.

The first frequency considered to be a vibration is 6
The total number of vibrations considered is 57


--------------------------
THERMOCHEMISTRY AT 298.15K
--------------------------

Temperature         ...   298.15 K
Pressure            ...     1.00 atm
Total Mass          ...   150.18 AMU
Quasi RRHO          ...     True
Cut-Off Frequency   ...     1.00 cm^-1

Throughout the following assumptions are being made:
  (1) The electronic state is orbitally nondegenerate
  (2) There are no thermally accessible electronically excited states
  (3) Hindered rotations indicated by low frequency modes are not
      treated as such but are treated as vibrations and this may
      cause some error
  (4) All equations used are the standard statistical mechanics
      equations for an ideal gas
  (5) All vibrations are strictly harmonic

freq.      25.56  E(vib)   ...       0.56 
freq.      54.83  E(vib)   ...       0.52 
freq.      69.94  E(vib)   ...       0.50 
freq.      86.58  E(vib)   ...       0.48 
freq.     172.00  E(vib)   ...       0.38 
freq.     238.60  E(vib)   ...       0.32 
freq.     312.51  E(vib)   ...       0.25 
freq.     375.12  E(vib)   ...       0.21 
freq.     419.98  E(vib)   ...       0.18 
freq.     446.07  E(vib)   ...       0.17 
freq.     514.23  E(vib)   ...       0.13 
freq.     601.67  E(vib)   ...       0.10 
freq.     634.58  E(vib)   ...       0.09 
freq.     646.10  E(vib)   ...       0.09 
freq.     681.07  E(vib)   ...       0.08 
freq.     725.78  E(vib)   ...       0.06 
freq.     787.37  E(vib)   ...       0.05 
freq.     861.86  E(vib)   ...       0.04 
freq.     880.02  E(vib)   ...       0.04 
freq.     882.76  E(vib)   ...       0.04 
freq.     966.58  E(vib)   ...       0.03 
freq.    1007.57  E(vib)   ...       0.02 
freq.    1016.83  E(vib)   ...       0.02 
freq.    1034.12  E(vib)   ...       0.02 
freq.    1043.60  E(vib)   ...       0.02 
freq.    1043.80  E(vib)   ...       0.02 
freq.    1080.53  E(vib)   ...       0.02 
freq.    1095.86  E(vib)   ...       0.02 
freq.    1099.62  E(vib)   ...       0.02 
freq.    1137.22  E(vib)   ...       0.01 
freq.    1195.69  E(vib)   ...       0.01 
freq.    1226.38  E(vib)   ...       0.01 
freq.    1273.48  E(vib)   ...       0.01 
freq.    1300.58  E(vib)   ...       0.01 
freq.    1329.80  E(vib)   ...       0.01 
freq.    1364.00  E(vib)   ...       0.01 
freq.    1391.77  E(vib)   ...       0.00 
freq.    1428.29  E(vib)   ...       0.00 
freq.    1456.84  E(vib)   ...       0.00 
freq.    1502.45  E(vib)   ...       0.00 
freq.    1508.87  E(vib)   ...       0.00 
freq.    1523.64  E(vib)   ...       0.00 
freq.    1528.32  E(vib)   ...       0.00 
freq.    1575.59  E(vib)   ...       0.00 
freq.    1701.03  E(vib)   ...       0.00 
freq.    1723.32  E(vib)   ...       0.00 
freq.    1875.08  E(vib)   ...       0.00 
freq.    3137.05  E(vib)   ...       0.00 
freq.    3155.21  E(vib)   ...       0.00 
freq.    3224.99  E(vib)   ...       0.00 
freq.    3232.36  E(vib)   ...       0.00 
freq.    3242.96  E(vib)   ...       0.00 
freq.    3251.38  E(vib)   ...       0.00 
freq.    3261.72  E(vib)   ...       0.00 
freq.    3266.17  E(vib)   ...       0.00 
freq.    3270.79  E(vib)   ...       0.00 
freq.    3277.71  E(vib)   ...       0.00 

------------
INNER ENERGY
------------

The inner energy is: U= E(el) + E(ZPE) + E(vib) + E(rot) + E(trans)
    E(el)   - is the total energy from the electronic structure calculation
              = E(kin-el) + E(nuc-el) + E(el-el) + E(nuc-nuc)
    E(ZPE)  - the the zero temperature vibrational energy from the frequency calculation
    E(vib)  - the the finite temperature correction to E(ZPE) due to population
              of excited vibrational states
    E(rot)  - is the rotational thermal energy
    E(trans)- is the translational thermal energy

Summary of contributions to the inner energy U:
Electronic energy                ...    -89.41784329 Eh
Zero point energy                ...      0.17580134 Eh     110.32 kcal/mol
Thermal vibrational correction   ...      0.00723353 Eh       4.54 kcal/mol
Thermal rotational correction    ...      0.00141627 Eh       0.89 kcal/mol
Thermal translational correction ...      0.00141627 Eh       0.89 kcal/mol
-----------------------------------------------------------------------
Total thermal energy                    -89.23197588 Eh


Summary of corrections to the electronic energy:
(perhaps to be used in another calculation)
Total thermal correction                  0.01006608 Eh       6.32 kcal/mol
Non-thermal (ZPE) correction              0.17580134 Eh     110.32 kcal/mol
-----------------------------------------------------------------------
Total correction                          0.18586741 Eh     116.63 kcal/mol


--------
ENTHALPY
--------

The enthalpy is H = U + kB*T
                kB is Boltzmann's constant
Total thermal energy              ...    -89.23197588 Eh 
Thermal Enthalpy correction       ...      0.00094421 Eh       0.59 kcal/mol
-----------------------------------------------------------------------
Total Enthalpy                    ...    -89.23103167 Eh


Note: Only C1 symmetry has been detected, increase convergence thresholds 
      if your molecule has a higher symmetry. Symmetry factor of 1.0 is   
      used for the rotational entropy correction. 
 

Note: Rotational entropy computed according to Herzberg 
Infrared and Raman Spectra, Chapter V,1, Van Nostrand Reinhold, 1945 
Point Group:  C1, Symmetry Number:   1  
Rotational constants in cm-1:     0.080739     0.021760     0.020100 

Vibrational entropy computed according to the QRRHO of S. Grimme
Chem.Eur.J. 2012 18 9955 using a reference frequency of 100.0 cm-1


-------
ENTROPY
-------

The entropy contributions are T*S = T*(S(el)+S(vib)+S(rot)+S(trans))
     S(el)   - electronic entropy
     S(vib)  - vibrational entropy
     S(rot)  - rotational entropy
     S(trans)- translational entropy
The entropies will be listed as multiplied by the temperature to get
units of energy

Electronic entropy                ...      0.00000000 Eh      0.00 kcal/mol
Vibrational entropy               ...      0.01280977 Eh      8.04 kcal/mol
Rotational entropy                ...      0.01435034 Eh      9.00 kcal/mol
Translational entropy             ...      0.01944716 Eh     12.20 kcal/mol
-----------------------------------------------------------------------
Final entropy term                ...      0.04660727 Eh     29.25 kcal/mol

In case the symmetry of your molecule has not been determined correctly
or in case you have a reason to use a different symmetry number we print 
out the resulting rotational entropy values for sn=1,12:

 non-linear molecules -----------------------------------
|  sn= 1 | S(rot)=       0.01435034 Eh      9.00 kcal/mol|
|  sn= 2 | S(rot)=       0.01369588 Eh      8.59 kcal/mol|
|  sn= 3 | S(rot)=       0.01331305 Eh      8.35 kcal/mol|
|  sn= 4 | S(rot)=       0.01304143 Eh      8.18 kcal/mol|
|  sn= 5 | S(rot)=       0.01283074 Eh      8.05 kcal/mol|
|  sn= 6 | S(rot)=       0.01265859 Eh      7.94 kcal/mol|
|  sn= 7 | S(rot)=       0.01251305 Eh      7.85 kcal/mol|
|  sn= 8 | S(rot)=       0.01238697 Eh      7.77 kcal/mol|
|  sn= 9 | S(rot)=       0.01227576 Eh      7.70 kcal/mol|
|  sn=10 | S(rot)=       0.01217628 Eh      7.64 kcal/mol|
|  sn=11 | S(rot)=       0.01208629 Eh      7.58 kcal/mol|
|  sn=12 | S(rot)=       0.01200414 Eh      7.53 kcal/mol|
 linear molecules ---------------------------------------
|  Dinfh | S(rot)=       0.00901476 Eh      5.66 kcal/mol|
|  Cinfv | S(rot)=       0.00966922 Eh      6.07 kcal/mol|
 --------------------------------------------------------


-------------------
GIBBS FREE ENERGY
-------------------

The Gibbs free energy is G = H - T*S

Total enthalpy                    ...    -89.23103167 Eh 
Total entropy correction          ...     -0.04660727 Eh    -29.25 kcal/mol
-----------------------------------------------------------------------
Final Gibbs free energy         ...    -89.27763894 Eh

For completeness - the Gibbs free energy minus the electronic energy
G-E(el)                           ...      0.14020435 Eh     87.98 kcal/mol


Maximum memory used throughout the entire PROP-calculation: 89.0 MB

--------------------------------
SUGGESTED CITATIONS FOR THIS RUN
--------------------------------

Below you find a list of papers that are relevant to this ORCA run
We neither can nor want to force you to cite these papers, but we appreciate if you do
You receive ORCA, which is the product of decades of hard work by many enthusiastic individuals, for free
The only thing we kindly ask in return is that you cite our papers,
We deeply appreciate it, if you show your appreciation for ORCA by not just citing the generic ORCA reference.

Please note that relegating all ORCA citations to the supporting information does *not* help us.
SI sections are not indexed - citations you put there will not count into any citation statistics
But we need these citations in order to attract the funding resources that allow us to do what we are doing

Therefore, if you are a happy ORCA user, please consider citing a few of the papers listed below in the main body of your paper

In addition to the list printed below, the program has created the file ./output/benzyl_acetate/benzyl_acetate.bibtex that contains the list in bibtex format
You can import this file easily into all common literature databanks and citation aid programs


List of essential papers. We consider these as the minimum necessary citations

  1. Neese,F.
     Software update: the ORCA program system, version 5.0
     WIRES Comput. Molec. Sci., 2022 12(1)e1606
     doi.org/10.1002/wcms.1606
  2. Mueller,M.; Hansen,A.; Grimme,S.
     wB97X-3c: A composite range-separated hybrid DFT method with a molecule-optimized polarized valence double-zeta basis set
     J. Chem. Phys., 2023 158 014103
     doi.org/10.1063/5.0133026

List of papers to cite with high priority. The work reported in these papers was absolutely
necessary for this run to complete.
Our perspective: the developers of density functionals and basis sets usually get cited in chemistry papers
Good! But without the algorithms to do something with them, the functionals or basis sets would not do anything.
Hence, in our opinion, the algorithm design and method developments papers are equally worthy of getting cited

  1. Neese,F.
     An improvement of the resolution of the identity approximation for the formation of the Coulomb matrix
     J. Comp. Chem., 2003 24(14)1740-1747
     doi.org/10.1002/jcc.10318
  2. Neese,F.; Wennmohs,F.; Hansen,A.; Becker,U.
     Efficient, approximate and parallel Hartree-Fock and hybrid DFT calculations. A 'chain-of-spheres' algorithm for the Hartree-Fock exchange
     Chem. Phys., 2009 356(1-3)98-109
     doi.org/10.1016/j.chemphys.2008.10.036
  3. Bykov,D.; Petrenko,T.; Izsak,R.; Kossmann,S.; Becker,U.; Valeev,E.; Neese,F.
     Efficient implementation of the analytic second derivatives of Hartree-Fock and hybrid DFT energies: a detailed analysis of different approximations
     Molec. Phys., 2015 113 1961-1977
     doi.org/10.1080/00268976.2015.1025114
  4. Helmich-Paris,B.; de Souza,B.; Neese,F.; Izsák,R.
     An improved chain of spheres for exchange algorithm
     J. Chem. Phys., 2021 155 104109
     doi.org/doi: 10.1063/5.0058766.
  5. Neese,F.
     The SHARK Integral Generation and Digestion System
     J. Comp. Chem., 2022  1-16
     doi.org/10.1002/jcc.26942
  6. Caldeweyher,E.; Bannwarth,C.; Grimme,S.
     Extension of the D3 dispersion coefficient model
     J. Chem. Phys., 2017 147 034112
     doi.org/10.1063/1.4993215
  7. Caldeweyher,E.; Ehlert,S.; Hansen,A.; Neugebauer,H.; Spicher,S.; Bannwarth,C.; Grimme,S.
     A generally applicable atomic-charge dependent London dispersion correction
     J. Chem. Phys., 2019 150 154122
     doi.org/10.1063/1.5090222
  8. Caldeweyher,E.; Mewes,J.; Ehlert,S.; Grimme,S.
     Extension and evaluation of the D4 London-dispersion model for periodic systems
     Phys. Chem. Chem. Phys., 2020 22(16)8499-8512
     doi.org/10.1039/D0CP00502A
  9. Wittmann,L.; Gordiy,I.; Friede,M.; Helmich-Paris,B.; Grimme,S.; Hansen,A.; Bursch,M.
     Extension of the D3 and D4 London Dispersion Corrections to the full Actinides Series
     Phys. Chem. Chem. Phys., 2024 26(32)21379-21394
     doi.org/https://doi.org/10.1039/D4CP01514B 

List of suggested additional citations. These are papers that are important in the 'surrounding' of 
of this run, or papers that preceded the highly important papers. If you like your results we are grateful for a citation.

  1. Izsak,R.; Neese,F.
     An overlap fitted chain of spheres exchange method
     J. Chem. Phys., 2011 135 144105
     doi.org/10.1063/1.3646921
  2. Izsak,R.; Hansen,A.; Neese,F.
     The resolution of identity and chain of spheres approximations for the LPNO-CCSD singles Fock term
     Molec. Phys., 2012 110 2413-2417
     doi.org/10.1080/00268976.2012.687466
  3. Neese,F.
     The ORCA program system
     WIRES Comput. Molec. Sci., 2012 2(1)73-78
     doi.org/10.1002/wcms.81
  4. Izsak,R.; Neese,F.; Klopper,W.
     Robust fitting techniques in the chain of spheres approximation to the Fock exchange: The role of the complementary space
     J. Chem. Phys., 2013 139 
     doi.org/10.1063/1.4819264
  5. Neese,F.
     Software update: the ORCA program system, version 4.0
     WIRES Comput. Molec. Sci., 2018 8(1)1-6
     doi.org/10.1002/wcms.1327
  6. Neese,F.; Wennmohs,F.; Becker,U.; Riplinger,C.
     The ORCA quantum chemistry program package
     J. Chem. Phys., 2020 152 Art. No. L224108
     doi.org/10.1063/5.0004608

List of optional additional citations

  1. Neese,F.
     Approximate second-order SCF convergence for spin unrestricted wavefunctions
     Chem. Phys. Lett., 2000 325(1-3)93-98
     doi.org/10.1016/s0009-2614(00)00662-x

Timings for individual modules:

Sum of individual times          ...     1062.860 sec (=  17.714 min)
Startup calculation              ...       70.945 sec (=   1.182 min)   6.7 %
SCF iterations                   ...      723.782 sec (=  12.063 min)  68.1 %
Property integrals               ...       41.734 sec (=   0.696 min)   3.9 %
SCF Response                     ...       30.406 sec (=   0.507 min)   2.9 %
Property calculations            ...       57.403 sec (=   0.957 min)   5.4 %
SCF Gradient evaluation          ...      138.281 sec (=   2.305 min)  13.0 %
Geometry relaxation              ...        0.309 sec (=   0.005 min)   0.0 %
                             ****ORCA TERMINATED NORMALLY****
TOTAL RUN TIME: 0 days 0 hours 17 minutes 53 seconds 138 msec
