
                                 *****************
                                 * O   R   C   A *
                                 *****************

                                            #,                                       
                                            ###                                      
                                            ####                                     
                                            #####                                    
                                            ######                                   
                                           ########,                                 
                                     ,,################,,,,,                         
                               ,,#################################,,                 
                          ,,##########################################,,             
                       ,#########################################, ''#####,          
                    ,#############################################,,   '####,        
                  ,##################################################,,,,####,       
                ,###########''''           ''''###############################       
              ,#####''   ,,,,##########,,,,          '''####'''          '####       
            ,##' ,,,,###########################,,,                        '##       
           ' ,,###''''                  '''############,,,                           
         ,,##''                                '''############,,,,        ,,,,,,###''
      ,#''                                            '''#######################'''  
     '                                                          ''''####''''         
             ,#######,   #######,   ,#######,      ##                                
            ,#'     '#,  ##    ##  ,#'     '#,    #''#        ,####,   ,####,        
            ##       ##  ##   ,#'  ##            #'  '#       #'       #'  '#        
            ##       ##  #######   ##           ,######,      #####,   #    #        
            '#,     ,#'  ##    ##  '#,     ,#' ,#      #,     #,   #   #,  ,#        
             '#######'   ##     ##  '#######'  #'      '#     '####' # '####'        



                #########################################################
                #                        -***-                          #
                #          Department of theory and spectroscopy        #
                #                                                       #
                #                      Frank Neese                      #
                #                                                       #
                #     Directorship, Architecture, Infrastructure        #
                #                    SHARK, DRIVERS                     #
                #        Core code/Algorithms in most modules           #
                #                                                       #
                #        Max Planck Institute fuer Kohlenforschung      #
                #                Kaiser Wilhelm Platz 1                 #
                #                 D-45470 Muelheim/Ruhr                 #
                #                      Germany                          #
                #                                                       #
                #                  All rights reserved                  #
                #                        -***-                          #
                #########################################################


                         Program Version 6.0.1  -  RELEASE   -


 With contributions from (in alphabetic order):
[Max-Planck-Institut fuer Kohlenforschung]                               
  Daniel Aravena         : Magnetic Suceptibility                        
  Michael Atanasov       : Ab Initio Ligand Field Theory (pilot matlab implementation)
  Alexander A. Auer      : GIAO ZORA, VPT2 properties, NMR spectrum      
  Ute Becker             : All parallelization in ORCA, NUMFREQ, NUMCALC 
  Giovanni Bistoni       : ED, misc. LED, open-shell LED, HFLD           
  Martin Brehm           : Molecular dynamics                            
  Dmytro Bykov           : pre 5.0 version of the SCF Hessian            
  Marcos Casanova-Páez   : Triplet and SCS-CIS(D). UHF-(DLPNO)-IP/EA/STEOM-CCSD. UHF-CVS-IP/STEOM-CCSD   
  Vijay G. Chilkuri      : MRCI spin determinant printing, contributions to CSF-ICE 
  Pauline Colinet        : FMM embedding                                 
  Dipayan Datta          : RHF DLPNO-CCSD density                        
  Achintya Kumar Dutta   : EOM-CC, STEOM-CC                              
  Nicolas Foglia         : Exact transition moments, OPA infrastructure, MCD improvements    
  Dmitry Ganyushin       : Spin-Orbit,Spin-Spin,Magnetic field MRCI      
  Miquel Garcia-Rates    : C-PCM and meta-GGA Hessian, CCSD/C-PCM, Gaussian charge scheme 
  Tiago L. C. Gouveia    : GS-ROHF, GS-ROCIS                             
  Yang Guo               : DLPNO-NEVPT2, F12-NEVPT2, CIM, IAO-localization        
  Andreas Hansen         : Spin unrestricted coupled pair/coupled cluster methods 
  Ingolf Harden          : AUTO-CI MPn and infrastructure                
  Benjamin Helmich-Paris : MC-RPA, TRAH-(SCF,CASSCF), AVAS, COSX integrals, SCF dyn. polar. 
  Lee Huntington         : MR-EOM, pCC                                   
  Robert Izsak           : Overlap fitted RIJCOSX, COSX-SCS-MP3, EOM     
  Riya Kayal             : Wick's Theorem for AUTO-CI, AUTO-CI UHF-CCSDT 
  Emily Kempfer          : AUTO-CI, RHF CISDT and CCSDT                  
  Christian Kollmar      : KDIIS, OOCD, Brueckner-CCSD(T), CCSD density, CASPT2, CASPT2-K, improved NEVPT2 
  Axel Koslowski         : Symmetry handling                             
  Simone Kossmann        : meta-GGA functionals, TD-DFT gradient, OOMP2, (MP2 Hessian; deprecated post 5.0) 
  Lucas Lang             : DCDCAS                                        
  Marvin Lechner         : AUTO-CI (C++ implementation), FIC-MRCC        
  Spencer Leger          : CASSCF response                               
  Dagmar Lenk            : GEPOL surface, SMD, ORCA-2-JSON               
  Dimitrios Liakos       : Extrapolation schemes; Compound Job, initial MDCI parallelization 
  Dimitrios Manganas     : Further ROCIS development; embedding schemes. LFT, Crystal Embedding 
  Dimitrios Pantazis     : SARC Basis sets                               
  Anastasios Papadopoulos: AUTO-CI, single reference methods and gradients 
  Taras Petrenko         : pre 6.0 DFT Hessian and TD-DFT gradient, (ASA, deprecated), ECA, 1-Electron XAS/XES, NRVS 
  Peter Pinski           : DLPNO-MP2, DLPNO-MP2 Gradient                 
  Christoph Reimann      : Effective Core Potentials                     
  Marius Retegan         : Local ZFS, SOC                                
  Christoph Riplinger    : Optimizer, TS searches, QM/MM, DLPNO-CCSD(T), (RO)-DLPNO pert. Triples 
  Michael Roemelt        : Original ROCIS implementation                 
  Masaaki Saitow         : Open-shell DLPNO-CCSD energy and density      
  Barbara Sandhoefer     : DKH picture change effects                    
  Kantharuban Sivalingam : CASSCF convergence/infrastructure, NEVPT2 and variants, FIC-MRCI 
  Bernardo de Souza      : ESD, SOC TD-DFT                               
  Georgi L. Stoychev     : AutoAux, RI-MP2 NMR, DLPNO-MP2 response, X2C  
  Van Anh Tran           : RI-MP2 g-tensors                              
  Willem Van den Heuvel  : Paramagnetic NMR                              
  Zikuan Wang            : NOTCH, Electric field optimization            
  Frank Wennmohs         : Technical directorship and infrastructure     
  Hang Xu                : AUTO-CI-Response properties                   
                                                                         
[FACCTs GmbH]                                                            
  Markus Bursch, Miquel Garcia-Rates, Christoph Riplinger, Bernardo de Souza, Georgi L. Stoychev 
                                                                 
  APM, Basis sets (HGBS, AHGBS, def-TZVP (Ac-Lr), def2-XVPD (La-Lu)), CI-OPT, improved COSX, DLPNO-Multilevel,           
  DOCKER, DRACO, updates on ESD, GOAT, IRC, LR-CPCM, MBIS, meta-GGA TD-DFT gradient, ML-optimized integration grids, 
  MM, NACMEs, nearIR, NEB, NEB-TS, NL-DFT gradient (VV10), 2- and 3-layer-ONIOM, interface openCOSMO-RS, QMMM,   
  Crystal-QMMM, SF, symmetry and pop. for TD-DFT, r2SCAN hybrids, SOLVATOR                                   
                                                                         
[Other institutions]                                                     
  V. Asgeirsson          : NEB                                           
  Christoph Bannwarth    : sTDA-DFT, sTD-DFT, PBEh-3c, B97-3c, D3        
  Sebastian Ehlert       : rSCAN, r2SCAN, r2SCAN-3c, D4, dhf basis sets  
  Marvin Friede          : D4 for Fr, Ra, Ac-Lr                          
  Lars Goerigk           : TD-DFT with DH, B97 family of functionals     
  Stefan Grimme          : VdW corrections, initial TS optimization, DFT functionals, gCP, sTDA/sTD-DF 
  Waldemar Hujo          : DFT-NL                                        
  H. Jonsson             : NEB                                           
  Holger Kruse           : gCP                                           
  Marcel Mueller         : wB97X-3c, vDZP basis set                      
  Hagen Neugebauer       : wr2SCAN                                       
  Tobias Risthaus        : range-separated hybrid DFT                    
  Lukas Wittmann         : regularized MP2, r2SCAN double-hybrids, wr2SCAN        
                                                                         
We gratefully acknowledge several colleagues who have allowed us to      
interface, adapt or use parts of their codes:                            
  Ed Valeev, F. Pavosevic, A. Kumar             : LibInt (2-el integral package), F12 methods 
  Garnet Chan, S. Sharma, J. Yang, R. Olivares  : DMRG                   
  Ulf Ekstrom                                   : XCFun DFT Library      
  Mihaly Kallay                                 : mrcc  (arbitrary order and MRCC methods)
  Frank Weinhold                                : gennbo (NPA and NBO analysis)           
  Simon Mueller                                 : openCOSMO-RS                            
  Christopher J. Cramer and Donald G. Truhlar   : smd solvation model                     
  S Lehtola, MJT Oliveira, MAL Marques          : LibXC Library                           
  Liviu Ungur et al                             : ANISO software                          


 Your calculation uses the libint2 library for the computation of 2-el integrals
 For citations please refer to: http://libint.valeyev.net

 Your ORCA version has been built with support for libXC version: 6.2.2
 For citations please refer to: https://libxc.gitlab.io

 This ORCA versions uses:
   CBLAS   interface :  Fast vector & matrix operations
   LAPACKE interface :  Fast linear algebra routines
   SCALAPACK package :  Parallel linear algebra routines
   Shared memory     :  Shared parallel matrices
   BLAS/LAPACK       :  OpenBLAS 0.3.27  USE64BITINT DYNAMIC_ARCH NO_AFFINITY SkylakeX SINGLE_THREADED
        Core in use  :  SkylakeX
   Copyright (c) 2011-2014, The OpenBLAS Project


Your calculation utilizes the atom-pairwise dispersion correction
based on EEQ partial charges (D4)


================================================================================

cite the ECPs for C  [vDZP-ECP], O  [vDZP-ECP] as follows:
   B-Ne (ecp-2-mwb), Al-Ar (ecp-10-mwb), Ga-Kr (ecp-28-mwb), Y-Cd (ecp-28-mwb), In-Xe (ecp-46-mwb):
     A. Bergner, M. Dolg, W. Küchle, H. Stoll, and H. Preuß, Mol. Phys. 80, 1431 (1993)., T. Leininger, A. Berning, A. Nicklass, H. Stoll, H.-J. Werner, and H.-J.Flad, Chem. Phys. 217, 19 (1997).
   Na-Mg, K-Ca, Rb-Sr, Cs-Ba (CRENBL):
     L. Fernandez Pacios and P. A. Christiansen, J. Chem. Phys. 82, 2664 (1985)., M. M. Hurley, L. F. Pacios, P. A. Christiansen, R. B. Ross, and W. C. Ermler, J. Chem. Phys. 84, 6840 (1986)., L. A. LaJohn, P. A. Christiansen, R. B. Ross, T. Atashroo, and W. C. Ermler, J. Chem. Phys. 87, 2812 (1987)., R. B. Ross, J. M. Powers, T. Atashroo, W. C. Ermler, L. A. LaJohn, and P. A. Christiansen, J. Chem. Phys. 93, 6654 (1990). 
   Sc-Zn (ecp-10-mdf):
     M. Dolg, U. Wedig, H. Stoll, and H. Preuss, J. Chem. Phys. 86, 866 (1986). 
   Y-Cd (ecp-28-mwb), Hf-Hg (ecp-60-mwb):
     D. Andrae, U. Häußermann, M. Dolg, H. Stoll, and H. Preuß, Theor. Chim. Acta 77, 123 (1990). 
   La (ecp-46-mwb):
     M. Dolg, H. Stoll, and H. Preuss, J. Chem. Phys. 90, 1730 (1989)., M. Dolg, H. Stoll, and H. Preuss, Theor. Chim. Acta 85, 441 (1993).
   Ce-Lu (SBKJC-ecp):
     T. R. Cundari and W. J. Stevens, J. Chem. Phys. 98, 5555 (1993).
   Tl-Rn (ecp-78-mwb):
     W. Küchle, M. Dolg, H. Stoll, and H. Preuss, Mol. Phys. 74, 1245 (1991).

ECP parameters for C  [vDZP-ECP], O  [vDZP-ECP] have been obtained from:
MM, AH, SG, J. Chem. Phys. 158, 014103 (2023), 10.1063/5.0133026

----- Orbital basis set information -----
Your calculation utilizes the basis: vDZP
   Marcel Mueller, Andreas Hansen, Stefan Grimme 
   J. Chem. Phys. 158, 014103 (2023). DOI: 10.1063/5.0133026

----- AuxJ basis set information -----
Your calculation utilizes the auxiliary basis: def2/J
   F. Weigend, Phys. Chem. Chem. Phys. 8, 1057 (2006).

================================================================================
                                        WARNINGS
                       Please study these warnings very carefully!
================================================================================

WARNING: Frozen-Core approximation turned on, but there are no core electrons.
  ===> : Turning off frozen-core approximation


WARNING: Geometry Optimization
  ===> : Switching off AutoStart
         For restart on a previous wavefunction, please use MOREAD

================================================================================
                                       INPUT FILE
================================================================================
NAME = ./output/2_butenoic_acid__3_methyl__2_methylpropyl_ester/2_butenoic_acid__3_methyl__2_methylpropyl_ester.inp
|  1> ! wB97X-3c OPT FREQ TightSCF
|  2> %pal
|  3>   nprocs 40
|  4> end
|  5> * xyz 0 1
|  6> C     -2.035516    -0.829959    -1.027208
|  7> C     -2.316164     0.384875    -0.133194
|  8> C     -3.825321     0.556607     0.072965
|  9> C     -1.603122     0.249301     1.225143
| 10> O     -0.189551     0.148402     1.057082
| 11> C      0.632102     1.234027     0.732701
| 12> O      0.141391     2.392848     0.652030
| 13> C      2.081873     1.065182     0.493137
| 14> C      2.756046    -0.104176     0.483547
| 15> C      2.091090    -1.436687     0.702265
| 16> C      4.237082    -0.104772     0.212616
| 17> H     -2.559040    -0.718400    -2.000678
| 18> H     -2.382561    -1.765796    -0.538632
| 19> H     -0.947666    -0.914062    -1.233725
| 20> H     -1.937546     1.293085    -0.650678
| 21> H     -4.333659     0.688652    -0.906044
| 22> H     -4.255523    -0.331704     0.583883
| 23> H     -4.027298     1.458253     0.689797
| 24> H     -1.841264     1.117214     1.878880
| 25> H     -1.960650    -0.666947     1.742504
| 26> H      2.633051     1.979399     0.303783
| 27> H      1.648129    -1.480109     1.719276
| 28> H      2.827168    -2.264586     0.620062
| 29> H      1.308783    -1.604995    -0.067197
| 30> H      4.653528     0.921653     0.124049
| 31> H      4.765799    -0.620066     1.041946
| 32> H      4.438839    -0.647238    -0.734811
| 33> *
| 34> 
| 35>                          ****END OF INPUT****
================================================================================

                       *****************************
                       * Geometry Optimization Run *
                       *****************************

Geometry optimization settings:
Update method            Update   .... BFGS
Choice of coordinates    CoordSys .... (2022) Redundant Internals
Initial Hessian          InHess   .... Almloef's Model
Max. no of cycles        MaxIter  .... 81

Convergence Tolerances:
Energy Change            TolE     ....  5.0000e-06 Eh
Max. Gradient            TolMAXG  ....  3.0000e-04 Eh/bohr
RMS Gradient             TolRMSG  ....  1.0000e-04 Eh/bohr
Max. Displacement        TolMAXD  ....  4.0000e-03 bohr
RMS Displacement         TolRMSD  ....  2.0000e-03 bohr
Strict Convergence                .... False

------------------------------------------------------------------------------
                        ORCA OPTIMIZATION COORDINATE SETUP
------------------------------------------------------------------------------

The optimization will be done in redundant internal coordinates (2022)
Making redundant internal coordinates   ...  (2022 redundants) done
Evaluating the initial hessian          ...  (Almloef) done
Evaluating the coordinates              ...  done
Calculating the B-matrix                .... done
Calculating the G-matrix                .... done
Diagonalizing the G-matrix              .... done
Small eigenvalue found = 4.297e-03
Small eigenvalue found = 7.245e-03
Small eigenvalue found = 1.762e-02
Small eigenvalue found = 2.443e-02
The first mode is                       ....   38
The number of degrees of freedom        ....   75

    -----------------------------------------------------------------
                    Redundant Internal Coordinates


    -----------------------------------------------------------------
         Definition                    Initial Value    Approx d2E/dq
    -----------------------------------------------------------------
      1. B(C   1,C   0)                  1.5342         0.367821   
      2. B(C   2,C   1)                  1.5328         0.369720   
      3. B(C   3,C   1)                  1.5401         0.359976   
      4. B(O   4,C   3)                  1.4271         0.488302   
      5. B(C   5,O   4)                  1.3996         0.540179   
      6. B(O   6,C   5)                  1.2610         0.898783   
      7. B(C   7,C   5)                  1.4791         0.450387   
      8. B(C   8,C   7)                  1.3498         0.724189   
      9. B(C   9,C   8)                  1.5052         0.409227   
     10. B(C  10,C   8)                  1.5056         0.408587   
     11. B(H  11,C   0)                  1.1109         0.333449   
     12. B(H  12,C   0)                  1.1113         0.333025   
     13. B(H  13,C   0)                  1.1105         0.334016   
     14. B(H  14,C   1)                  1.1117         0.332448   
     15. B(H  15,C   2)                  1.1110         0.333375   
     16. B(H  16,C   2)                  1.1114         0.332876   
     17. B(H  17,C   2)                  1.1110         0.333408   
     18. B(H  18,C   3)                  1.1124         0.331696   
     19. B(H  19,C   3)                  1.1113         0.332991   
     20. B(H  20,C   7)                  1.0842         0.367883   
     21. B(H  21,C   9)                  1.1101         0.334419   
     22. B(H  22,C   9)                  1.1108         0.333550   
     23. B(H  23,C   9)                  1.1101         0.334423   
     24. B(H  24,C  10)                  1.1112         0.333090   
     25. B(H  25,C  10)                  1.1103         0.334172   
     26. B(H  26,C  10)                  1.1102         0.334318   
     27. A(C   1,C   0,H  11)          110.1754         0.319448   
     28. A(C   1,C   0,H  13)          110.3368         0.319537   
     29. A(H  11,C   0,H  13)          107.8360         0.284010   
     30. A(H  12,C   0,H  13)          108.8999         0.283954   
     31. A(H  11,C   0,H  12)          108.8233         0.283879   
     32. A(C   1,C   0,H  12)          110.7014         0.319381   
     33. A(C   3,C   1,H  14)          108.9519         0.318170   
     34. A(C   0,C   1,C   3)          111.0725         0.360105   
     35. A(C   0,C   1,C   2)          110.3153         0.361748   
     36. A(C   2,C   1,H  14)          107.8413         0.319560   
     37. A(C   0,C   1,H  14)          108.2597         0.319291   
     38. A(C   2,C   1,C   3)          110.3086         0.360421   
     39. A(H  16,C   2,H  17)          108.8486         0.283854   
     40. A(H  15,C   2,H  17)          108.0363         0.283920   
     41. A(C   1,C   2,H  17)          110.1573         0.319710   
     42. A(H  15,C   2,H  16)          108.8433         0.283849   
     43. A(C   1,C   2,H  15)          110.1993         0.319705   
     44. A(C   1,C   2,H  16)          110.6946         0.319627   
     45. A(C   1,C   3,H  19)          109.5257         0.318255   
     46. A(C   1,C   3,H  18)          110.5202         0.318053   
     47. A(O   4,C   3,H  18)          109.6596         0.332398   
     48. A(H  18,C   3,H  19)          107.5067         0.283642   
     49. A(C   1,C   3,O   4)          111.1589         0.375681   
     50. A(O   4,C   3,H  19)          108.3730         0.332613   
     51. A(C   3,O   4,C   5)          123.6381         0.400678   
     52. A(O   4,C   5,C   7)          121.6285         0.397567   
     53. A(O   4,C   5,O   6)          119.9456         0.446831   
     54. A(O   6,C   5,C   7)          118.4221         0.435256   
     55. A(C   5,C   7,C   8)          126.1283         0.421471   
     56. A(C   8,C   7,H  20)          118.3819         0.363679   
     57. A(C   5,C   7,H  20)          115.4886         0.335683   
     58. A(C   9,C   8,C  10)          117.4105         0.374807   
     59. A(C   7,C   8,C  10)          119.5330         0.414222   
     60. A(C   7,C   8,C   9)          123.0415         0.414337   
     61. A(H  22,C   9,H  23)          107.6177         0.284077   
     62. A(H  21,C   9,H  23)          110.3568         0.284192   
     63. A(C   8,C   9,H  23)          110.1706         0.325235   
     64. A(H  21,C   9,H  22)          107.6402         0.284076   
     65. A(C   8,C   9,H  22)          110.8731         0.325096   
     66. A(C   8,C   9,H  21)          110.1220         0.325235   
     67. A(H  25,C  10,H  26)          108.9111         0.284145   
     68. A(H  24,C  10,H  26)          108.3731         0.284002   
     69. A(C   8,C  10,H  26)          109.4215         0.325135   
     70. A(H  24,C  10,H  25)          108.0441         0.283983   
     71. A(C   8,C  10,H  25)          109.5227         0.325112   
     72. A(C   8,C  10,H  24)          112.4962         0.324938   
     73. D(C   2,C   1,C   0,H  13)    176.1390         0.010823   
     74. D(C   2,C   1,C   0,H  11)     57.1791         0.010823   
     75. D(C   3,C   1,C   0,H  11)    179.8131         0.010823   
     76. D(C   3,C   1,C   0,H  12)     59.3940         0.010823   
     77. D(C   3,C   1,C   0,H  13)    -61.2270         0.010823   
     78. D(C   2,C   1,C   0,H  12)    -63.2400         0.010823   
     79. D(H  16,C   2,C   1,C   0)     61.6275         0.010928   
     80. D(H  16,C   2,C   1,H  14)    179.6711         0.010928   
     81. D(H  15,C   2,C   1,C   0)    -58.8279         0.010928   
     82. D(H  15,C   2,C   1,C   3)    178.0914         0.010928   
     83. D(H  16,C   2,C   1,C   3)    -61.4532         0.010928   
     84. D(H  15,C   2,C   1,H  14)     59.2157         0.010928   
     85. D(O   4,C   3,C   1,H  14)    -59.2014         0.010396   
     86. D(O   4,C   3,C   1,C   2)   -177.3978         0.010396   
     87. D(O   4,C   3,C   1,C   0)     59.9643         0.010396   
     88. D(H  18,C   3,C   1,H  14)     62.8082         0.010396   
     89. D(H  18,C   3,C   1,C   2)    -55.3882         0.010396   
     90. D(H  18,C   3,C   1,C   0)   -178.0261         0.010396   
     91. D(C   5,O   4,C   3,H  19)   -164.5811         0.018825   
     92. D(C   5,O   4,C   3,H  18)    -47.4999         0.018825   
     93. D(C   5,O   4,C   3,C   1)     75.0084         0.018825   
     94. D(C   7,C   5,O   4,C   3)   -176.4510         0.021071   
     95. D(O   6,C   5,O   4,C   3)      4.2691         0.021071   
     96. D(H  20,C   7,C   5,O   6)      2.5879         0.013827   
     97. D(H  20,C   7,C   5,O   4)   -176.7025         0.013827   
     98. D(C   8,C   7,C   5,O   6)   -177.0126         0.013827   
     99. D(C   8,C   7,C   5,O   4)      3.6969         0.013827   
    100. D(C  10,C   8,C   7,H  20)     -0.0258         0.037157   
    101. D(C  10,C   8,C   7,C   5)    179.5643         0.037157   
    102. D(C   9,C   8,C   7,H  20)   -178.5766         0.037157   
    103. D(C   9,C   8,C   7,C   5)      1.0135         0.037157   
    104. D(H  23,C   9,C   8,C   7)     59.1322         0.012405   
    105. D(H  22,C   9,C   8,C  10)     -0.4241         0.012405   
    106. D(H  22,C   9,C   8,C   7)    178.1556         0.012405   
    107. D(H  21,C   9,C   8,C  10)    118.5961         0.012405   
    108. D(H  21,C   9,C   8,C   7)    -62.8243         0.012405   
    109. D(H  26,C  10,C   8,C   7)   -115.7284         0.012368   
    110. D(H  25,C  10,C   8,C   9)    -56.4131         0.012368   
    111. D(H  25,C  10,C   8,C   7)    124.9554         0.012368   
    112. D(H  24,C  10,C   8,C   9)   -176.5818         0.012368   
    113. D(H  24,C  10,C   8,C   7)      4.7866         0.012368   
    -----------------------------------------------------------------

Number of atoms                         .... 27
Number of degrees of freedom            .... 113


         *************************************************************
         *                GEOMETRY OPTIMIZATION CYCLE   1            *
         *************************************************************
---------------------------------
CARTESIAN COORDINATES (ANGSTROEM)
---------------------------------
  C     -2.035516   -0.829959   -1.027208
  C     -2.316164    0.384875   -0.133194
  C     -3.825321    0.556607    0.072965
  C     -1.603122    0.249301    1.225143
  O     -0.189551    0.148402    1.057082
  C      0.632102    1.234027    0.732701
  O      0.141391    2.392848    0.652030
  C      2.081873    1.065182    0.493137
  C      2.756046   -0.104176    0.483547
  C      2.091090   -1.436687    0.702265
  C      4.237082   -0.104772    0.212616
  H     -2.559040   -0.718400   -2.000678
  H     -2.382561   -1.765796   -0.538632
  H     -0.947666   -0.914062   -1.233725
  H     -1.937546    1.293085   -0.650678
  H     -4.333659    0.688652   -0.906044
  H     -4.255523   -0.331704    0.583883
  H     -4.027298    1.458253    0.689797
  H     -1.841264    1.117214    1.878880
  H     -1.960650   -0.666947    1.742504
  H      2.633051    1.979399    0.303783
  H      1.648129   -1.480109    1.719276
  H      2.827168   -2.264586    0.620062
  H      1.308783   -1.604995   -0.067197
  H      4.653528    0.921653    0.124049
  H      4.765799   -0.620066    1.041946
  H      4.438839   -0.647238   -0.734811

----------------------------
CARTESIAN COORDINATES (A.U.)
----------------------------
  NO LB      ZA    FRAG     MASS         X           Y           Z
   0 C     4.0000*   0    12.011   -3.846568   -1.568395   -1.941142
   1 C     4.0000*   0    12.011   -4.376916    0.727308   -0.251700
   2 C     4.0000*   0    12.011   -7.228809    1.051835    0.137884
   3 C     4.0000*   0    12.011   -3.029462    0.471111    2.315185
   4 O     6.0000*   0    15.999   -0.358199    0.280439    1.997595
   5 C     4.0000*   0    12.011    1.194500    2.331973    1.384604
   6 O     6.0000*   0    15.999    0.267190    4.521827    1.232158
   7 C     4.0000*   0    12.011    3.934170    2.012902    0.931894
   8 C     4.0000*   0    12.011    5.208172   -0.196864    0.913771
   9 C     4.0000*   0    12.011    3.951587   -2.714945    1.327089
  10 C     4.0000*   0    12.011    8.006925   -0.197990    0.401786
  11 H     1.0000    0     1.008   -4.835885   -1.357579   -3.780734
  12 H     1.0000    0     1.008   -4.502388   -3.336871   -1.017867
  13 H     1.0000    0     1.008   -1.790829   -1.727327   -2.331402
  14 H     1.0000    0     1.008   -3.661431    2.443577   -1.229603
  15 H     1.0000    0     1.008   -8.189429    1.301364   -1.712175
  16 H     1.0000    0     1.008   -8.041773   -0.626830    1.103379
  17 H     1.0000    0     1.008   -7.610490    2.755699    1.303527
  18 H     1.0000    0     1.008   -3.479485    2.111228    3.550569
  19 H     1.0000    0     1.008   -3.705092   -1.260347    3.292855
  20 H     1.0000    0     1.008    4.975745    3.740522    0.574067
  21 H     1.0000    0     1.008    3.114512   -2.797001    3.248961
  22 H     1.0000    0     1.008    5.342573   -4.279447    1.171747
  23 H     1.0000    0     1.008    2.473241   -3.033001   -0.126984
  24 H     1.0000    0     1.008    8.793893    1.741672    0.234419
  25 H     1.0000    0     1.008    9.006055   -1.171755    1.968993
  26 H     1.0000    0     1.008    8.388190   -1.223103   -1.388592
* core charge reduced due to ECP

--------------------------------
INTERNAL COORDINATES (ANGSTROEM)
--------------------------------
 C      0   0   0     0.000000000000     0.00000000     0.00000000
 C      1   0   0     1.534224879102     0.00000000     0.00000000
 C      2   1   0     1.532823624477   110.31531595     0.00000000
 C      2   1   3     1.540093701308   111.07245433   122.63405814
 O      4   2   1     1.427097782201   111.15889066    59.96430012
 C      5   4   2     1.399613634613   123.63809531    75.00836127
 O      6   5   4     1.261019906981   119.94561217     4.26914975
 C      6   5   4     1.479099556001   121.62852013   183.54897293
 C      8   6   5     1.349814555483   126.12833585     3.69692671
 C      9   8   6     1.505187566578   123.04147870     1.01350298
 C      9   8   6     1.505613361814   119.53297475   179.56429959
 H      1   2   3     1.110930524361   110.17535736    57.17908448
 H      1   2   3     1.111277476767   110.70138527   296.75997088
 H      1   2   3     1.110468463486   110.33679510   176.13896233
 H      2   1   3     1.111749380157   108.25965066   242.21375001
 H      3   2   1     1.110991460971   110.19927411   301.17211890
 H      3   2   1     1.111398846611   110.69457711    61.62748975
 H      3   2   1     1.110964416203   110.15731905   182.06203289
 H      4   2   1     1.112365341469   110.52023933   181.97389793
 H      4   2   1     1.111305121292   109.52565698   300.23736588
 H      8   6   5     1.084179343139   115.48859056   183.29745232
 H     10   9   8     1.110140212643   110.12204428   297.17574364
 H     10   9   8     1.110848733849   110.87311908   178.15556519
 H     10   9   8     1.110136745882   110.17062525    59.13218453
 H     11   9   8     1.111224399044   112.49620056     4.78663072
 H     11   9   8     1.110341308529   109.52272453   124.95538868
 H     11   9   8     1.110222125763   109.42147922   244.27162762

---------------------------
INTERNAL COORDINATES (A.U.)
---------------------------
 C      0   0   0     0.000000000000     0.00000000     0.00000000
 C      1   0   0     2.899264849352     0.00000000     0.00000000
 C      2   1   0     2.896616861866   110.31531595     0.00000000
 C      2   1   3     2.910355316049   111.07245433   122.63405814
 O      4   2   1     2.696823974686   111.15889066    59.96430012
 C      5   4   2     2.644886462721   123.63809531    75.00836127
 O      6   5   4     2.382982273617   119.94561217     4.26914975
 C      6   5   4     2.795093085646   121.62852013   183.54897293
 C      8   6   5     2.550779841443   126.12833585     3.69692671
 C      9   8   6     2.844392281016   123.04147870     1.01350298
 C      9   8   6     2.845196917401   119.53297475   179.56429959
 H      1   2   3     2.099354444856   110.17535736    57.17908448
 H      1   2   3     2.100010089885   110.70138527   296.75997088
 H      1   2   3     2.098481276346   110.33679510   176.13896233
 H      2   1   3     2.100901858054   108.25965066   242.21375001
 H      3   2   1     2.099469598360   110.19927411   301.17211890
 H      3   2   1     2.100239445651   110.69457711    61.62748975
 H      3   2   1     2.099418491155   110.15731905   182.06203289
 H      4   2   1     2.102065856243   110.52023933   181.97389793
 H      4   2   1     2.100062330465   109.52565698   300.23736588
 H      8   6   5     2.048802038587   115.48859056   183.29745232
 H     10   9   8     2.097860972147   110.12204428   297.17574364
 H     10   9   8     2.099199883188   110.87311908   178.15556519
 H     10   9   8     2.097854420919   110.17062525    59.13218453
 H     11   9   8     2.099909787524   112.49620056     4.78663072
 H     11   9   8     2.098240988299   109.52272453   124.95538868
 H     11   9   8     2.098015765512   109.42147922   244.27162762

---------------------
BASIS SET INFORMATION
---------------------
There are 3 groups of distinct atoms

 Group   1 Type C   : 6s6p2d contracted to 2s2p1d pattern {42/42/2}
 Group   2 Type O   : 6s6p2d contracted to 2s2p1d pattern {42/42/2}
 Group   3 Type H   : 8s2p contracted to 2s1p pattern {53/2}

Atom   0C    basis set group =>   1
Atom   1C    basis set group =>   1
Atom   2C    basis set group =>   1
Atom   3C    basis set group =>   1
Atom   4O    basis set group =>   2
Atom   5C    basis set group =>   1
Atom   6O    basis set group =>   2
Atom   7C    basis set group =>   1
Atom   8C    basis set group =>   1
Atom   9C    basis set group =>   1
Atom  10C    basis set group =>   1
Atom  11H    basis set group =>   3
Atom  12H    basis set group =>   3
Atom  13H    basis set group =>   3
Atom  14H    basis set group =>   3
Atom  15H    basis set group =>   3
Atom  16H    basis set group =>   3
Atom  17H    basis set group =>   3
Atom  18H    basis set group =>   3
Atom  19H    basis set group =>   3
Atom  20H    basis set group =>   3
Atom  21H    basis set group =>   3
Atom  22H    basis set group =>   3
Atom  23H    basis set group =>   3
Atom  24H    basis set group =>   3
Atom  25H    basis set group =>   3
Atom  26H    basis set group =>   3
---------------------------------
AUXILIARY/J BASIS SET INFORMATION
---------------------------------
There are 3 groups of distinct atoms

 Group   1 Type C   : 12s5p4d2f1g contracted to 6s4p3d1f1g pattern {711111/2111/211/2/1}
 Group   2 Type O   : 12s5p4d2f1g contracted to 6s4p3d1f1g pattern {711111/2111/211/2/1}
 Group   3 Type H   : 5s2p1d contracted to 3s1p1d pattern {311/2/1}

Atom   0C    basis set group =>   1
Atom   1C    basis set group =>   1
Atom   2C    basis set group =>   1
Atom   3C    basis set group =>   1
Atom   4O    basis set group =>   2
Atom   5C    basis set group =>   1
Atom   6O    basis set group =>   2
Atom   7C    basis set group =>   1
Atom   8C    basis set group =>   1
Atom   9C    basis set group =>   1
Atom  10C    basis set group =>   1
Atom  11H    basis set group =>   3
Atom  12H    basis set group =>   3
Atom  13H    basis set group =>   3
Atom  14H    basis set group =>   3
Atom  15H    basis set group =>   3
Atom  16H    basis set group =>   3
Atom  17H    basis set group =>   3
Atom  18H    basis set group =>   3
Atom  19H    basis set group =>   3
Atom  20H    basis set group =>   3
Atom  21H    basis set group =>   3
Atom  22H    basis set group =>   3
Atom  23H    basis set group =>   3
Atom  24H    basis set group =>   3
Atom  25H    basis set group =>   3
Atom  26H    basis set group =>   3
-------------------------
ECP PARAMETER INFORMATION
-------------------------

 Group 1, Type C  ECP vDZP-ECP (replacing 2 core electrons, lmax=3)
 Group 2, Type O  ECP vDZP-ECP (replacing 2 core electrons, lmax=3)

Atom   0C    ECP group =>   1
Atom   1C    ECP group =>   1
Atom   2C    ECP group =>   1
Atom   3C    ECP group =>   1
Atom   4O    ECP group =>   2
Atom   5C    ECP group =>   1
Atom   6O    ECP group =>   2
Atom   7C    ECP group =>   1
Atom   8C    ECP group =>   1
Atom   9C    ECP group =>   1
Atom  10C    ECP group =>   1



           ************************************************************
           *        Program running with 40 parallel MPI-processes    *
           *              working on a common directory               *
           ************************************************************
------------------------------------------------------------------------------
                             ORCA STARTUP CALCULATIONS
                           -- RI-GTO INTEGRALS CHOSEN --
------------------------------------------------------------------------------
------------------------------------------------------------------------------
                   ___                                                        
                  /   \      - P O W E R E D   B Y -                         
                 /     \                                                     
                 |  |  |   _    _      __       _____    __    __             
                 |  |  |  | |  | |    /  \     |  _  \  |  |  /  |          
                  \  \/   | |  | |   /    \    | | | |  |  | /  /          
                 / \  \   | |__| |  /  /\  \   | |_| |  |  |/  /          
                |  |  |   |  __  | /  /__\  \  |    /   |      \           
                |  |  |   | |  | | |   __   |  |    \   |  |\   \          
                \     /   | |  | | |  |  |  |  | |\  \  |  | \   \       
                 \___/    |_|  |_| |__|  |__|  |_| \__\ |__|  \__/        
                                                                              
                      - O R C A' S   B I G   F R I E N D -                    
                                      &                                       
                       - I N T E G R A L  F E E D E R -                       
                                                                              
 v1 FN, 2020, v2 2021, v3 2022-2024                                           
------------------------------------------------------------------------------


----------------------
SHARK INTEGRAL PACKAGE
----------------------

Number of atoms                             ...     27
Number of basis functions                   ...    223
Number of shells                            ...    103
Maximum angular momentum                    ...      2
Integral batch strategy                     ... SHARK/LIBINT Hybrid
RI-J (if used) integral strategy            ... SPLIT-RIJ (Revised 2003 algorithm where possible)
Printlevel                                  ...      1
Contraction scheme used                     ... SEGMENTED contraction
Prescreening option                         ... SCHWARTZ
   Thresh                                   ... 2.500e-11
   Tcut                                     ... 2.500e-12
   Tpresel                                  ... 2.500e-12 
Coulomb Range Separation                    ... NOT USED
Exchange Range Separation                   ... Long Range
   Mu parameter                             ... 3.000e-01
   Scaling (regular/separated)              ... 1.670e-01 8.330e-01
Multipole approximations                    ... NOT USED
Finite Nucleus Model                        ... NOT USED
CABS basis                                  ... NOT available
Auxiliary Coulomb fitting basis             ... AVAILABLE
   # of basis functions in Aux-J            ...    715
   # of shells in Aux-J                     ...    245
   Maximum angular momentum in Aux-J        ...      4
Auxiliary J/K fitting basis                 ... NOT available
Auxiliary Correlation fitting basis         ... NOT available
Auxiliary 'external' fitting basis          ... NOT available

Checking pre-screening integrals            ... done (  0.0 sec) Dimension = 103
Check shell pair data                       ... done (  0.0 sec)
Shell pair information
Shell pair cut-off parameter TPreSel        ...   2.5e-12
Total number of shell pairs                 ...      5356
Shell pairs after pre-screening             ...      5268
Total number of primitive shell pairs       ...     49844
Primitive shell pairs kept                  ...     37914
          la=0 lb=0:   1472 shell pairs
          la=1 lb=0:   2014 shell pairs
          la=1 lb=1:    718 shell pairs
          la=2 lb=0:    588 shell pairs
          la=2 lb=1:    410 shell pairs
          la=2 lb=2:     66 shell pairs

Calculating one electron integrals          ... done (  0.0 sec)
Calculating ECP integrals                   ... done (  0.1 sec)
Calculating RI/J V-Matrix + Cholesky decomp.... done (  0.0 sec)
Calculating Nuclear repulsion               ... done (  0.0 sec) ENN=    346.291922546123 Eh

Diagonalization of the overlap matrix:
Smallest eigenvalue                        ... 1.041e-03
Time for diagonalization                   ...    0.007 sec
Threshold for overlap eigenvalues          ... 1.000e-07
Number of eigenvalues below threshold      ... 0
Time for construction of square roots      ...    0.005 sec
Total time needed                          ...    0.014 sec

-------------------
DFT GRID GENERATION
-------------------

General Integration Accuracy     IntAcc      ... 4.388
Radial Grid Type                 RadialGrid  ... OptM3 with GC (2021)
Angular Grid (max. ang.)         AngularGrid ... 4 (Lebedev-302)
Angular grid pruning method      GridPruning ... 4 (adaptive)
Weight generation scheme         WeightScheme... mBecke (2022)
Basis function cutoff            BFCut       ... 1.0000e-11
Integration weight cutoff        WCut        ... 1.0000e-14
Partially contracted basis set               ... off
Rotationally invariant grid construction     ... off
Angular grids for H and He will be reduced by one unit

Total number of grid points                  ...   117284
Total number of batches                      ...     1850
Average number of points per batch           ...       63
Average number of grid points per atom       ...     4344

--------------------
COSX GRID GENERATION
--------------------

GRIDX 1
-------
General Integration Accuracy     IntAcc      ... 3.816
Radial Grid Type                 RadialGrid  ... OptM3 with GC (2021)
Angular Grid (max. ang.)         AngularGrid ... 1 (Lebedev-50)
Angular grid pruning method      GridPruning ... 4 (adaptive)
Weight generation scheme         WeightScheme... mBecke (2022)
Basis function cutoff            BFCut       ... 1.0000e-11
Integration weight cutoff        WCut        ... 1.0000e-14
Partially contracted basis set               ... on
Rotationally invariant grid construction     ... off
Angular grids for H and He will be reduced by one unit

Total number of grid points                  ...    15020
Total number of batches                      ...      135
Average number of points per batch           ...      111
Average number of grid points per atom       ...      556
UseSFitting                                  ... on

GRIDX 2
-------
General Integration Accuracy     IntAcc      ... 4.020
Radial Grid Type                 RadialGrid  ... OptM3 with GC (2021)
Angular Grid (max. ang.)         AngularGrid ... 2 (Lebedev-110)
Angular grid pruning method      GridPruning ... 4 (adaptive)
Weight generation scheme         WeightScheme... mBecke (2022)
Basis function cutoff            BFCut       ... 1.0000e-11
Integration weight cutoff        WCut        ... 1.0000e-14
Partially contracted basis set               ... on
Rotationally invariant grid construction     ... off
Angular grids for H and He will be reduced by one unit

Total number of grid points                  ...    31606
Total number of batches                      ...      263
Average number of points per batch           ...      120
Average number of grid points per atom       ...     1171
UseSFitting                                  ... on

GRIDX 3
-------
General Integration Accuracy     IntAcc      ... 4.338
Radial Grid Type                 RadialGrid  ... OptM3 with GC (2021)
Angular Grid (max. ang.)         AngularGrid ... 3 (Lebedev-194)
Angular grid pruning method      GridPruning ... 4 (adaptive)
Weight generation scheme         WeightScheme... mBecke (2022)
Basis function cutoff            BFCut       ... 1.0000e-11
Integration weight cutoff        WCut        ... 1.0000e-14
Partially contracted basis set               ... on
Rotationally invariant grid construction     ... off
Angular grids for H and He will be reduced by one unit

Total number of grid points                  ...    68839
Total number of batches                      ...      552
Average number of points per batch           ...      124
Average number of grid points per atom       ...     2550
UseSFitting                                  ... on
Initializing property integral containers    ... done (  0.0 sec)

SHARK setup successfully completed in   3.8 seconds

Maximum memory used throughout the entire STARTUP-calculation: 35.0 MB


           ************************************************************
           *        Program running with 40 parallel MPI-processes    *
           *              working on a common directory               *
           ************************************************************
-------------------------------------------------------------------------------
                                 ORCA GUESS
                   Start orbitals & Density for SCF / CASSCF
-------------------------------------------------------------------------------

------------
SCF SETTINGS
------------
Hamiltonian:
 Density Functional     Method          .... DFT(GTOs)
 Exchange Functional    Exchange        .... WB97X-V
 Correlation Functional Correlation     .... WB97X-V
 Gradients option       PostSCFGGA      .... off
 Hybrid DFT is turned on
   Fraction HF Exchange ScalHFX         ....  0.167000
   Scaling of DF-GGA-X  ScalDFX         ....  0.000000
   Scaling of DF-GGA-C  ScalDFC         ....  1.000000
   Scaling of DF-LDA-C  ScalLDAC        ....  1.000000
   Perturbative correction              ....  0.000000
 Long-range corrected/Screened/Range-Separated Hybrid DFT is turned on
   Amount of maximum screened exact exchange              ....  0.833000
   Range separation parameter mu (erf(mu*r12)/r12)        ....  0.300000
   NL short-range parameter             ....  6.000000
   NL long-range parameter              ....  0.010000
 RI-approximation to the Coulomb term is turned on
   Number of AuxJ basis functions       .... 715
   RIJ-COSX (HFX calculated with COS-X)).... on


General Settings:
 Integral files         IntName         .... ./output/2_butenoic_acid__3_methyl__2_methylpropyl_ester/2_butenoic_acid__3_methyl__2_methylpropyl_ester
 Hartree-Fock type      HFTyp           .... RHF
 Total Charge           Charge          ....    0
 Multiplicity           Mult            ....    1
 Number of Electrons    NEL             ....   64
 Basis Dimension        Dim             ....  223
 Nuclear Repulsion      ENuc            ....    346.2919225461 Eh

Convergence Acceleration:
 AO-DIIS                CNVDIIS         .... on
   Start iteration      DIISMaxIt       ....    12
   Startup error        DIISStart       ....  0.200000
   # of expansion vecs  DIISMaxEq       ....     5
   Bias factor          DIISBfac        ....   1.050
   Max. coefficient     DIISMaxC        ....  10.000
 MO-DIIS                CNVKDIIS        .... off
 Trust-Rad. Augm. Hess. CNVTRAH         .... auto
   Auto Start mean grad. ratio tolernc. ....  1.125000
   Auto Start start iteration           ....    50
   Auto Start num. interpolation iter.  ....    10
   Max. Number of Micro iterations      ....    24
   Max. Number of Macro iterations      .... Maxiter - #DIIS iter
   Number of Davidson start vectors     ....     2
   Converg. threshold    (grad. norm)   ....   1.000e-05
   Grad. Scal. Fac. for Micro threshold ....   0.100
   Minimum threshold for Micro iter.    ....   1.000e-02
   NR start threshold (gradient norm)   ....   1.000e-04
   Initial trust radius                 ....   0.400
   Minimum AH scaling param. (alpha)    ....   1.000
   Maximum AH scaling param. (alpha)    .... 1000.000
   Quad. conv. algorithm                .... NR
   White noise on init. David. guess    .... on
   Maximum white noise                  ....   0.010
   Pseudo random numbers                .... off
   Inactive MOs                         .... canonical
   Orbital update algorithm             .... Taylor
   Preconditioner                       .... Diag
   Full preconditioner red. dimension   ....   250
 SOSCF                  CNVSOSCF        .... on
   Start iteration      SOSCFMaxIt      ....   150
   Startup grad/error   SOSCFStart      ....  0.003300
   Hessian update       SOSCFHessUp     .... L-BFGS
 Level Shifting         CNVShift        .... on
   Level shift para.    LevelShift      ....    0.2500
   Turn off err/grad.   ShiftErr        ....    0.0010
 Zerner damping         CNVZerner       .... off
 Static damping         CNVDamp         .... on
   Fraction old density DampFac         ....    0.7000
   Max. Damping (<1)    DampMax         ....    0.9800
   Min. Damping (>=0)   DampMin         ....    0.0000
   Turn off err/grad.   DampErr         ....    0.1000

SCF Procedure:
 Maximum # iterations   MaxIter         ....   125
 SCF integral mode      SCFMode         .... Direct
   Integral package                     .... SHARK and LIBINT hybrid scheme
 Reset frequency        DirectResetFreq ....    20
 Integral Threshold     Thresh          ....  2.500e-11 Eh
 Primitive CutOff       TCut            ....  2.500e-12 Eh

Convergence Tolerance:
 Convergence Check Mode ConvCheckMode   .... Total+1el-Energy
 Convergence forced     ConvForced      .... 0
 Energy Change          TolE            ....  1.000e-08 Eh
 1-El. energy change                    ....  1.000e-05 Eh
 Orbital Gradient       TolG            ....  1.000e-05
 Orbital Rotation angle TolX            ....  1.000e-05
 DIIS Error             TolErr          ....  5.000e-07

------------------------------
INITIAL GUESS: MODEL POTENTIAL
------------------------------
Loading Hartree-Fock densities                     ... done
Atomic calculation to generate a density for atom 0 (C  with ECP)
  Multiplicity assumed   :    1
  Atomic configuration   : 1s2 2s2 2p2 
  Number of open shells  : 1
  Command: /home/aspe232/Project/Software/ORCA/6_0_1/build/orca ./output/2_butenoic_acid__3_methyl__2_methylpropyl_ester/2_butenoic_acid__3_methyl__2_methylpropyl_ester_atom6.inp "" > ./output/2_butenoic_acid__3_methyl__2_methylpropyl_ester/2_butenoic_acid__3_methyl__2_methylpropyl_ester_atom6.out
Returned from the atomic calculation with res=0
Atomic calculation to generate a density for atom 4 (O  with ECP)
  Multiplicity assumed   :    3
  Atomic configuration   : 1s2 2s2 2p4 
  Number of open shells  : 1
  Command: /home/aspe232/Project/Software/ORCA/6_0_1/build/orca ./output/2_butenoic_acid__3_methyl__2_methylpropyl_ester/2_butenoic_acid__3_methyl__2_methylpropyl_ester_atom8.inp "" > ./output/2_butenoic_acid__3_methyl__2_methylpropyl_ester/2_butenoic_acid__3_methyl__2_methylpropyl_ester_atom8.out
Returned from the atomic calculation with res=0
Calculating cut-offs                               ... done
Initializing the effective Hamiltonian             ... done
Setting up the integral package (SHARK)            ... done
Starting the Coulomb interaction                   ... done (   0.0 sec)
Making the grid                                    ... done (   0.7 sec)
Mapping shells                                     ... done
Starting the XC term evaluation                    ... done (   0.0 sec)
  promolecular density results
     # of electrons  =     85.992520088
     EX              =    -44.806549088
     EC              =     -3.479967066
     EX+EC           =    -48.286516154
Transforming the Hamiltonian                       ... done (   0.0 sec)
Diagonalizing the Hamiltonian                      ... done (   0.0 sec)
Back transforming the eigenvectors                 ... done (   0.0 sec)
Now organizing SCF variables                       ... done
                      ------------------
                      INITIAL GUESS DONE (   2.0 sec)
                      ------------------
             **** ENERGY FILE WAS UPDATED (./output/2_butenoic_acid__3_methyl__2_methylpropyl_ester/2_butenoic_acid__3_methyl__2_methylpropyl_ester.en.tmp) ****
Finished Guess after   2.6 sec
Maximum memory used throughout the entire GUESS-calculation: 21.5 MB


           ************************************************************
           *        Program running with 40 parallel MPI-processes    *
           *              working on a common directory               *
           ************************************************************

-------------------------------------------------------------------------------------------
                                      ORCA LEAN-SCF
                              memory conserving SCF solver
-------------------------------------------------------------------------------------------

----------------------------------------D-I-I-S--------------------------------------------
Iteration    Energy (Eh)           Delta-E    RMSDP     MaxDP     DIISErr   Damp  Time(sec)
-------------------------------------------------------------------------------------------
               ***  Starting incremental Fock matrix formation  ***
    1    -92.5721595887742410     0.00e+00  3.48e-03  8.91e-02  2.05e-01  0.700   4.8
    2    -92.7500638709751684    -1.78e-01  2.52e-03  5.92e-02  1.10e-01  0.700   4.1
                               ***Turning on AO-DIIS***
    3    -92.8410299222354070    -9.10e-02  1.33e-03  3.04e-02  5.67e-02  0.700   3.6
    4    -92.8948501094328662    -5.38e-02  2.78e-03  5.95e-02  3.57e-02  0.000   3.4
    5    -93.0089840966145971    -1.14e-01  2.79e-04  1.04e-02  9.23e-03  0.000   3.3
    6    -93.0093635058814243    -3.79e-04  1.21e-04  6.12e-03  5.38e-03  0.000   3.2
                              *** Initializing SOSCF ***
---------------------------------------S-O-S-C-F--------------------------------------
Iteration    Energy (Eh)           Delta-E    RMSDP     MaxDP     MaxGrad    Time(sec)
--------------------------------------------------------------------------------------
    7    -93.0094674760915154    -1.04e-04  7.08e-05  3.14e-03  2.10e-03     3.5
               *** Restarting incremental Fock matrix formation ***
    8    -93.0094390851835442     2.84e-05  4.35e-05  1.47e-03  5.61e-04     4.1
    9    -93.0094469844035530    -7.90e-06  4.38e-05  2.10e-03  4.35e-04     4.2
   10    -93.0094491710756301    -2.19e-06  1.49e-05  6.64e-04  1.88e-04     4.1
   11    -93.0094499745689518    -8.03e-07  4.47e-06  1.14e-04  3.27e-05     3.8
   12    -93.0094500074324060    -3.29e-08  1.87e-06  6.89e-05  2.16e-05     4.1
   13    -93.0094500364631926    -2.90e-08  5.03e-07  1.99e-05  3.27e-06     3.8
   14    -93.0094500365759700    -1.13e-10  2.38e-07  7.81e-06  2.23e-06     3.4
                 **** Energy Check signals convergence ****

               *****************************************************
               *                     SUCCESS                       *
               *           SCF CONVERGED AFTER  14 CYCLES          *
               *****************************************************

Recomputing exchange energy using gridx3       ... done (    3.801 sec)
Old exchange energy                            :    -12.456529633 Eh
New exchange energy                            :    -12.456562959 Eh
Exchange energy change after final integration :     -0.000033327 Eh
Total energy after final integration           :    -93.009483363 Eh
             **** ENERGY FILE WAS UPDATED (./output/2_butenoic_acid__3_methyl__2_methylpropyl_ester/2_butenoic_acid__3_methyl__2_methylpropyl_ester.en.tmp) ****

----------------
TOTAL SCF ENERGY
----------------

Total Energy       :        -93.00948336319121 Eh           -2530.91671 eV

Components:
Nuclear Repulsion  :        346.29192254612275 Eh            9423.08227 eV
Electronic Energy  :       -439.30137258269872 Eh          -11953.99808 eV
One Electron Energy:       -829.07999588691996 Eh          -22560.41364 eV
Two Electron Energy:        389.77862330422124 Eh           10606.41556 eV

Virial components:
Potential Energy   :       -165.33357692114487 Eh           -4498.95535 eV
Kinetic Energy     :         72.32409355795366 Eh            1968.03864 eV
Virial Ratio       :          2.28600966548806

DFT components:
N(Alpha)           :       31.999973024110 electrons
N(Beta)            :       31.999973024110 electrons
N(Total)           :       63.999946048220 electrons
E(X)               :      -13.707784221992 Eh       
E(C)               :       -2.417451603849 Eh       
E(XC)              :      -16.125235825841 Eh       

---------------
SCF CONVERGENCE
---------------

  Last Energy change         ...    1.1278e-10  Tolerance :   1.0000e-08
  Last MAX-Density change    ...    7.8097e-06  Tolerance :   1.0000e-07
  Last RMS-Density change    ...    2.3835e-07  Tolerance :   5.0000e-09
  Last DIIS Error            ...    2.0983e-03  Tolerance :   5.0000e-07
  Last Orbital Gradient      ...    2.2297e-06  Tolerance :   1.0000e-05
  Last Orbital Rotation      ...    2.9265e-06  Tolerance :   1.0000e-05


----------------
ORBITAL ENERGIES
----------------

  NO   OCC          E(Eh)            E(eV) 
   0   2.0000      -1.204535       -32.7771 
   1   2.0000      -1.111759       -30.2525 
   2   2.0000      -0.974546       -26.5188 
   3   2.0000      -0.944110       -25.6905 
   4   2.0000      -0.866620       -23.5819 
   5   2.0000      -0.839988       -22.8572 
   6   2.0000      -0.822405       -22.3788 
   7   2.0000      -0.815101       -22.1800 
   8   2.0000      -0.721172       -19.6241 
   9   2.0000      -0.695413       -18.9232 
  10   2.0000      -0.657381       -17.8882 
  11   2.0000      -0.610736       -16.6190 
  12   2.0000      -0.599362       -16.3095 
  13   2.0000      -0.585900       -15.9432 
  14   2.0000      -0.577460       -15.7135 
  15   2.0000      -0.560472       -15.2512 
  16   2.0000      -0.552740       -15.0408 
  17   2.0000      -0.531745       -14.4695 
  18   2.0000      -0.524813       -14.2809 
  19   2.0000      -0.513951       -13.9853 
  20   2.0000      -0.509687       -13.8693 
  21   2.0000      -0.497517       -13.5381 
  22   2.0000      -0.495111       -13.4727 
  23   2.0000      -0.488697       -13.2981 
  24   2.0000      -0.470881       -12.8133 
  25   2.0000      -0.461917       -12.5694 
  26   2.0000      -0.445906       -12.1337 
  27   2.0000      -0.436267       -11.8714 
  28   2.0000      -0.425797       -11.5865 
  29   2.0000      -0.394853       -10.7445 
  30   2.0000      -0.375642       -10.2217 
  31   2.0000      -0.359823        -9.7913 
  32   0.0000       0.029564         0.8045 
  33   0.0000       0.077582         2.1111 
  34   0.0000       0.090853         2.4722 
  35   0.0000       0.105429         2.8689 
  36   0.0000       0.113281         3.0825 
  37   0.0000       0.116766         3.1774 
  38   0.0000       0.123292         3.3550 
  39   0.0000       0.129503         3.5239 
  40   0.0000       0.141939         3.8624 
  41   0.0000       0.145089         3.9481 
  42   0.0000       0.154571         4.2061 
*Only the first 10 virtual orbitals were printed.

                    ********************************
                    * MULLIKEN POPULATION ANALYSIS *
                    ********************************

-----------------------
MULLIKEN ATOMIC CHARGES
-----------------------
   0 C :   -0.065501
   1 C :   -0.093793
   2 C :   -0.091650
   3 C :    0.123511
   4 O :   -0.344353
   5 C :    0.244784
   6 O :   -0.371964
   7 C :    0.034325
   8 C :   -0.052868
   9 C :   -0.076175
  10 C :   -0.080772
  11 H :    0.039307
  12 H :    0.032575
  13 H :    0.032731
  14 H :    0.068254
  15 H :    0.041974
  16 H :    0.031668
  17 H :    0.042953
  18 H :    0.056421
  19 H :    0.050164
  20 H :    0.037228
  21 H :    0.077575
  22 H :    0.036900
  23 H :    0.062099
  24 H :    0.044231
  25 H :    0.059082
  26 H :    0.061298
Sum of atomic charges:    0.0000000

--------------------------------
MULLIKEN REDUCED ORBITAL CHARGES
--------------------------------
  0 C s       :     0.965930  s :     0.965930
      pz      :     1.007757  p :     3.026223
      px      :     1.037078
      py      :     0.981388
      dz2     :     0.015687  d :     0.073348
      dxz     :     0.012571
      dyz     :     0.014981
      dx2y2   :     0.021169
      dxy     :     0.008939

  1 C s       :     1.060664  s :     1.060664
      pz      :     0.941475  p :     2.911910
      px      :     0.954256
      py      :     1.016178
      dz2     :     0.021890  d :     0.121218
      dxz     :     0.025270
      dyz     :     0.027866
      dx2y2   :     0.025189
      dxy     :     0.021004

  2 C s       :     0.969001  s :     0.969001
      pz      :     1.052293  p :     3.048512
      px      :     0.955845
      py      :     1.040373
      dz2     :     0.009124  d :     0.074138
      dxz     :     0.018252
      dyz     :     0.015566
      dx2y2   :     0.016318
      dxy     :     0.014878

  3 C s       :     1.027658  s :     1.027658
      pz      :     0.992953  p :     2.711985
      px      :     0.649742
      py      :     1.069290
      dz2     :     0.017820  d :     0.136846
      dxz     :     0.035551
      dyz     :     0.027428
      dx2y2   :     0.031540
      dxy     :     0.024507

  4 O s       :     1.695068  s :     1.695068
      pz      :     1.763093  p :     4.613430
      px      :     1.275038
      py      :     1.575298
      dz2     :     0.004505  d :     0.035855
      dxz     :     0.005342
      dyz     :     0.005041
      dx2y2   :     0.009797
      dxy     :     0.011171

  5 C s       :     1.132979  s :     1.132979
      pz      :     0.727385  p :     2.375952
      px      :     0.897967
      py      :     0.750600
      dz2     :     0.013156  d :     0.246285
      dxz     :     0.028089
      dyz     :     0.055524
      dx2y2   :     0.075458
      dxy     :     0.074059

  6 O s       :     1.796553  s :     1.796553
      pz      :     1.455438  p :     4.542117
      px      :     1.736154
      py      :     1.350526
      dz2     :     0.003240  d :     0.033294
      dxz     :     0.002002
      dyz     :     0.010271
      dx2y2   :     0.009243
      dxy     :     0.008538

  7 C s       :     1.002911  s :     1.002911
      pz      :     1.042871  p :     2.881879
      px      :     0.860993
      py      :     0.978015
      dz2     :     0.004763  d :     0.080886
      dxz     :     0.009214
      dyz     :     0.012026
      dx2y2   :     0.030684
      dxy     :     0.024199

  8 C s       :     1.129871  s :     1.129871
      pz      :     0.854917  p :     2.796935
      px      :     0.946153
      py      :     0.995864
      dz2     :     0.006451  d :     0.126062
      dxz     :     0.019121
      dyz     :     0.026847
      dx2y2   :     0.038299
      dxy     :     0.035344

  9 C s       :     0.952513  s :     0.952513
      pz      :     1.070557  p :     3.053099
      px      :     1.021085
      py      :     0.961457
      dz2     :     0.014813  d :     0.070564
      dxz     :     0.013881
      dyz     :     0.008576
      dx2y2   :     0.011859
      dxy     :     0.021435

 10 C s       :     0.959077  s :     0.959077
      pz      :     1.042939  p :     3.048939
      px      :     0.946798
      py      :     1.059201
      dz2     :     0.012120  d :     0.072756
      dxz     :     0.015218
      dyz     :     0.012920
      dx2y2   :     0.016301
      dxy     :     0.016198

 11 H s       :     0.917305  s :     0.917305
      pz      :     0.020478  p :     0.043388
      px      :     0.012949
      py      :     0.009961

 12 H s       :     0.924352  s :     0.924352
      pz      :     0.011871  p :     0.043074
      px      :     0.011470
      py      :     0.019733

 13 H s       :     0.923335  s :     0.923335
      pz      :     0.010534  p :     0.043935
      px      :     0.023297
      py      :     0.010103

 14 H s       :     0.890640  s :     0.890640
      pz      :     0.011407  p :     0.041106
      px      :     0.010730
      py      :     0.018968

 15 H s       :     0.914675  s :     0.914675
      pz      :     0.020084  p :     0.043351
      px      :     0.013137
      py      :     0.010130

 16 H s       :     0.925277  s :     0.925277
      pz      :     0.012761  p :     0.043055
      px      :     0.012003
      py      :     0.018291

 17 H s       :     0.913809  s :     0.913809
      pz      :     0.013990  p :     0.043238
      px      :     0.010472
      py      :     0.018776

 18 H s       :     0.902505  s :     0.902505
      pz      :     0.014473  p :     0.041073
      px      :     0.006446
      py      :     0.020154

 19 H s       :     0.910392  s :     0.910392
      pz      :     0.012884  p :     0.039444
      px      :     0.006461
      py      :     0.020098

 20 H s       :     0.912171  s :     0.912171
      pz      :     0.015258  p :     0.050601
      px      :     0.013148
      py      :     0.022195

 21 H s       :     0.877839  s :     0.877839
      pz      :     0.021885  p :     0.044586
      px      :     0.013031
      py      :     0.009670

 22 H s       :     0.919139  s :     0.919139
      pz      :     0.010350  p :     0.043961
      px      :     0.015643
      py      :     0.017967

 23 H s       :     0.893092  s :     0.893092
      pz      :     0.016549  p :     0.044810
      px      :     0.018176
      py      :     0.010084

 24 H s       :     0.912359  s :     0.912359
      pz      :     0.009914  p :     0.043410
      px      :     0.011803
      py      :     0.021693

 25 H s       :     0.896839  s :     0.896839
      pz      :     0.017689  p :     0.044079
      px      :     0.013441
      py      :     0.012949

 26 H s       :     0.894589  s :     0.894589
      pz      :     0.020301  p :     0.044113
      px      :     0.010576
      py      :     0.013236



                     *******************************
                     * LOEWDIN POPULATION ANALYSIS *
                     *******************************

----------------------
LOEWDIN ATOMIC CHARGES
----------------------
   0 C :   -0.116233
   1 C :   -0.087007
   2 C :   -0.115069
   3 C :   -0.025769
   4 O :   -0.050876
   5 C :    0.015688
   6 O :   -0.205007
   7 C :   -0.058550
   8 C :   -0.007105
   9 C :   -0.106331
  10 C :   -0.106787
  11 H :    0.049150
  12 H :    0.043696
  13 H :    0.043619
  14 H :    0.056095
  15 H :    0.051735
  16 H :    0.044077
  17 H :    0.049738
  18 H :    0.055282
  19 H :    0.059107
  20 H :    0.057819
  21 H :    0.063877
  22 H :    0.050937
  23 H :    0.059991
  24 H :    0.058542
  25 H :    0.059338
  26 H :    0.060044

-------------------------------
LOEWDIN REDUCED ORBITAL CHARGES
-------------------------------
  0 C s       :     0.779689  s :     0.779689
      pz      :     1.031155  p :     3.093756
      px      :     1.059790
      py      :     1.002811
      dz2     :     0.053955  d :     0.242788
      dxz     :     0.041616
      dyz     :     0.048328
      dx2y2   :     0.069364
      dxy     :     0.029525

  1 C s       :     0.761871  s :     0.761871
      pz      :     0.966303  p :     2.945100
      px      :     0.963571
      py      :     1.015227
      dz2     :     0.068754  d :     0.380035
      dxz     :     0.079891
      dyz     :     0.087144
      dx2y2   :     0.077031
      dxy     :     0.067215

  2 C s       :     0.778857  s :     0.778857
      pz      :     1.062265  p :     3.094286
      px      :     0.971311
      py      :     1.060710
      dz2     :     0.028759  d :     0.241925
      dxz     :     0.061155
      dyz     :     0.049677
      dx2y2   :     0.051235
      dxy     :     0.051100

  3 C s       :     0.768972  s :     0.768972
      pz      :     1.017142  p :     2.844195
      px      :     0.741539
      py      :     1.085515
      dz2     :     0.054719  d :     0.412602
      dxz     :     0.100848
      dyz     :     0.086580
      dx2y2   :     0.097713
      dxy     :     0.072742

  4 O s       :     1.393314  s :     1.393314
      pz      :     1.659389  p :     4.560146
      px      :     1.327861
      py      :     1.572896
      dz2     :     0.010532  d :     0.097416
      dxz     :     0.018137
      dyz     :     0.009017
      dx2y2   :     0.026520
      dxy     :     0.033211

  5 C s       :     0.783168  s :     0.783168
      pz      :     0.724462  p :     2.532684
      px      :     0.934781
      py      :     0.873441
      dz2     :     0.052287  d :     0.668460
      dxz     :     0.071003
      dyz     :     0.133372
      dx2y2   :     0.206343
      dxy     :     0.205455

  6 O s       :     1.559530  s :     1.559530
      pz      :     1.409617  p :     4.578103
      px      :     1.683467
      py      :     1.485018
      dz2     :     0.008330  d :     0.067374
      dxz     :     0.002902
      dyz     :     0.014399
      dx2y2   :     0.020597
      dxy     :     0.021145

  7 C s       :     0.807489  s :     0.807489
      pz      :     0.963895  p :     2.980740
      px      :     0.962265
      py      :     1.054580
      dz2     :     0.021463  d :     0.270321
      dxz     :     0.028753
      dyz     :     0.028077
      dx2y2   :     0.099561
      dxy     :     0.092467

  8 C s       :     0.809667  s :     0.809667
      pz      :     0.786191  p :     2.811085
      px      :     0.988662
      py      :     1.036232
      dz2     :     0.024909  d :     0.386352
      dxz     :     0.056124
      dyz     :     0.071980
      dx2y2   :     0.121460
      dxy     :     0.111879

  9 C s       :     0.775929  s :     0.775929
      pz      :     1.069896  p :     3.100025
      px      :     1.048721
      py      :     0.981408
      dz2     :     0.048308  d :     0.230377
      dxz     :     0.047557
      dyz     :     0.024908
      dx2y2   :     0.038850
      dxy     :     0.070754

 10 C s       :     0.778084  s :     0.778084
      pz      :     1.059660  p :     3.094496
      px      :     0.968880
      py      :     1.065956
      dz2     :     0.040082  d :     0.234207
      dxz     :     0.048221
      dyz     :     0.039371
      dx2y2   :     0.049998
      dxy     :     0.056535

 11 H s       :     0.805823  s :     0.805823
      pz      :     0.059859  p :     0.145027
      px      :     0.046264
      py      :     0.038904

 12 H s       :     0.811311  s :     0.811311
      pz      :     0.043393  p :     0.144993
      px      :     0.042547
      py      :     0.059053

 13 H s       :     0.808239  s :     0.808239
      pz      :     0.041816  p :     0.148142
      px      :     0.066518
      py      :     0.039809

 14 H s       :     0.794815  s :     0.794815
      pz      :     0.044404  p :     0.149090
      px      :     0.042701
      py      :     0.061984

 15 H s       :     0.803740  s :     0.803740
      pz      :     0.060067  p :     0.144525
      px      :     0.044223
      py      :     0.040234

 16 H s       :     0.810269  s :     0.810269
      pz      :     0.045923  p :     0.145654
      px      :     0.042855
      py      :     0.056876

 17 H s       :     0.804538  s :     0.804538
      pz      :     0.048779  p :     0.145724
      px      :     0.039681
      py      :     0.057265

 18 H s       :     0.805322  s :     0.805322
      pz      :     0.050558  p :     0.139397
      px      :     0.026621
      py      :     0.062217

 19 H s       :     0.806297  s :     0.806297
      pz      :     0.046704  p :     0.134596
      px      :     0.025856
      py      :     0.062035

 20 H s       :     0.791365  s :     0.791365
      pz      :     0.049271  p :     0.150816
      px      :     0.040364
      py      :     0.061182

 21 H s       :     0.788284  s :     0.788284
      pz      :     0.062186  p :     0.147840
      px      :     0.046661
      py      :     0.038993

 22 H s       :     0.804068  s :     0.804068
      pz      :     0.042090  p :     0.144995
      px      :     0.051206
      py      :     0.051700

 23 H s       :     0.792452  s :     0.792452
      pz      :     0.051455  p :     0.147557
      px      :     0.056771
      py      :     0.039331

 24 H s       :     0.800011  s :     0.800011
      pz      :     0.039455  p :     0.141447
      px      :     0.038819
      py      :     0.063173

 25 H s       :     0.794790  s :     0.794790
      pz      :     0.054675  p :     0.145872
      px      :     0.044533
      py      :     0.046664

 26 H s       :     0.793681  s :     0.793681
      pz      :     0.059434  p :     0.146275
      px      :     0.039637
      py      :     0.047204



                      *****************************
                      * MAYER POPULATION ANALYSIS *
                      *****************************

  NA   - Mulliken gross atomic population
  ZA   - Total nuclear charge
  QA   - Mulliken gross atomic charge
  VA   - Mayer's total valence
  BVA  - Mayer's bonded valence
  FA   - Mayer's free valence

  ATOM       NA         ZA         QA         VA         BVA        FA
  0 C      4.0655     4.0000    -0.0655     3.9527     3.9527    -0.0000
  1 C      4.0938     4.0000    -0.0938     4.0079     4.0079    -0.0000
  2 C      4.0917     4.0000    -0.0917     3.9826     3.9826    -0.0000
  3 C      3.8765     4.0000     0.1235     3.8983     3.8983    -0.0000
  4 O      6.3444     6.0000    -0.3444     2.0003     2.0003     0.0000
  5 C      3.7552     4.0000     0.2448     4.1477     4.1477     0.0000
  6 O      6.3720     6.0000    -0.3720     1.9711     1.9711     0.0000
  7 C      3.9657     4.0000     0.0343     3.9517     3.9517     0.0000
  8 C      4.0529     4.0000    -0.0529     4.0657     4.0657     0.0000
  9 C      4.0762     4.0000    -0.0762     3.9785     3.9785     0.0000
 10 C      4.0808     4.0000    -0.0808     3.9634     3.9634    -0.0000
 11 H      0.9607     1.0000     0.0393     1.0243     1.0243     0.0000
 12 H      0.9674     1.0000     0.0326     1.0303     1.0303    -0.0000
 13 H      0.9673     1.0000     0.0327     1.0242     1.0242    -0.0000
 14 H      0.9317     1.0000     0.0683     1.0096     1.0096    -0.0000
 15 H      0.9580     1.0000     0.0420     1.0294     1.0294    -0.0000
 16 H      0.9683     1.0000     0.0317     1.0319     1.0319    -0.0000
 17 H      0.9570     1.0000     0.0430     1.0291     1.0291    -0.0000
 18 H      0.9436     1.0000     0.0564     1.0211     1.0211    -0.0000
 19 H      0.9498     1.0000     0.0502     1.0192     1.0192     0.0000
 20 H      0.9628     1.0000     0.0372     1.0530     1.0530     0.0000
 21 H      0.9224     1.0000     0.0776     1.0200     1.0200     0.0000
 22 H      0.9631     1.0000     0.0369     1.0261     1.0261     0.0000
 23 H      0.9379     1.0000     0.0621     1.0228     1.0228     0.0000
 24 H      0.9558     1.0000     0.0442     1.0359     1.0359    -0.0000
 25 H      0.9409     1.0000     0.0591     1.0226     1.0226    -0.0000
 26 H      0.9387     1.0000     0.0613     1.0223     1.0223    -0.0000

  Mayer bond orders larger than 0.100000
B(  0-C ,  1-C ) :   0.9872 B(  0-C , 11-H ) :   0.9997 B(  0-C , 12-H ) :   0.9916 
B(  0-C , 13-H ) :   0.9994 B(  1-C ,  2-C ) :   1.0045 B(  1-C ,  3-C ) :   0.9746 
B(  1-C , 14-H ) :   0.9867 B(  2-C , 15-H ) :   0.9956 B(  2-C , 16-H ) :   0.9917 
B(  2-C , 17-H ) :   0.9967 B(  3-C ,  4-O ) :   0.8835 B(  3-C , 18-H ) :   1.0008 
B(  3-C , 19-H ) :   1.0043 B(  4-O ,  5-C ) :   1.1014 B(  5-C ,  6-O ) :   1.8370 
B(  5-C ,  7-C ) :   1.1206 B(  7-C ,  8-C ) :   1.7894 B(  7-C , 20-H ) :   0.9889 
B(  8-C ,  9-C ) :   1.0334 B(  8-C , 10-C ) :   1.0298 B(  9-C , 21-H ) :   0.9707 
B(  9-C , 22-H ) :   0.9928 B(  9-C , 23-H ) :   0.9768 B( 10-C , 24-H ) :   0.9920 
B( 10-C , 25-H ) :   0.9773 B( 10-C , 26-H ) :   0.9750 

-------
TIMINGS
-------

Total SCF time: 0 days 0 hours 1 min 1 sec 

Total time                  ....      61.878 sec
Sum of individual times     ....      59.684 sec  ( 96.5%)

SCF preparation             ....       2.330 sec  (  3.8%)
Fock matrix formation       ....      56.056 sec  ( 90.6%)
  Startup                   ....       0.389 sec  (  0.7% of F)
  Split-RI-J                ....       1.823 sec  (  3.3% of F)
  Chain of spheres X        ....      24.031 sec  ( 42.9% of F)
  XC integration            ....      29.090 sec  ( 51.9% of F)
    XC Preparation          ....       0.000 sec  (  0.0% of XC)
    Basis function eval.    ....       0.563 sec  (  1.9% of XC)
    Density eval.           ....       0.207 sec  (  0.7% of XC)
    XC-Functional eval.     ....       0.202 sec  (  0.7% of XC)
    XC-Potential eval.      ....       0.301 sec  (  1.0% of XC)
Diagonalization             ....       0.000 sec  (  0.0%)
Density matrix formation    ....       0.230 sec  (  0.4%)
Total Energy calculation    ....       0.223 sec  (  0.4%)
Population analysis         ....       0.058 sec  (  0.1%)
Orbital Transformation      ....       0.058 sec  (  0.1%)
Orbital Orthonormalization  ....       0.000 sec  (  0.0%)
DIIS solution               ....       0.439 sec  (  0.7%)
SOSCF solution              ....       0.291 sec  (  0.5%)
Finished LeanSCF after  62.1 sec

Maximum memory used throughout the entire LEANSCF-calculation: 41.3 MB


           ************************************************************
           *        Program running with 40 parallel MPI-processes    *
           *              working on a common directory               *
           ************************************************************

------------------------------------------------------------------------------
                         ORCA PROPERTY INTEGRAL CALCULATIONS
------------------------------------------------------------------------------

GBWName                                   ... ./output/2_butenoic_acid__3_methyl__2_methylpropyl_ester/2_butenoic_acid__3_methyl__2_methylpropyl_ester.gbw
Number of atoms                           ...     27
Number of basis functions                 ...    223
Max core memory                           ...   1024 MB

Dipole integrals                          ... YES
Quadrupole integrals                      ...  NO
Linear momentum integrals                 ...  NO
Angular momentum integrals                ...  NO
Higher moments length integrals           ...  NO
Higher moments velocity integrals         ...  NO
Kinetic energy integrals                  ...  NO
GIAO right hand sides                     ...  NO
GIAO dipole derivative integrals          ...  NO
SOC integrals                             ...  NO
EPR diamagnetic integrals (GIAO)          ...  NO
EPR gauge integrals                       ...  NO
Field gradient integrals                  ...  NO (   0 nuclei)
Spin-dipole/Fermi contact integrals       ...  NO (   0 nuclei)
Contact density integrals                 ...  NO (   0 nuclei)
Nucleus-orbit integrals                   ...  NO (   0 nuclei)
Geometric perturbations                   ...  NO (  27 nuclei)

Choice of electric origin   ... Center of mass
Position of electric origin ... (  0.2599,  0.5958,  0.7634) 
Choice of magnetic origin   ... GIAO
[...]
 25:    756.39   0.000285    1.44  0.000118  (-0.000585  0.002555  0.010525)
 26:    772.98   0.001011    5.11  0.000408  (-0.019563  0.000159 -0.005040)
 27:    842.77   0.002454   12.40  0.000909  (-0.013022  0.027095  0.002262)
 28:    860.88   0.000688    3.48  0.000249  ( 0.005296  0.005378 -0.013867)
 29:    902.09   0.001877    9.49  0.000649  (-0.011917 -0.007151 -0.021359)
 30:    905.31   0.005323   26.90  0.001835  (-0.005841 -0.001099 -0.042422)
 31:    956.44   0.000266    1.35  0.000087  ( 0.007191 -0.003508 -0.004783)
 32:    970.65   0.001614    8.15  0.000519  (-0.012363  0.017411 -0.007923)
 33:    987.24   0.000402    2.03  0.000127  ( 0.004980 -0.000243 -0.010110)
 34:   1005.35   0.000420    2.12  0.000131  (-0.001331  0.000218 -0.011344)
 35:   1007.99   0.000382    1.93  0.000118  (-0.005394 -0.006065 -0.007234)
 36:   1022.88   0.000925    4.67  0.000282  ( 0.011900 -0.011710 -0.001834)
 37:   1095.94   0.004856   24.54  0.001383  ( 0.036924  0.004003  0.001853)
 38:   1125.73   0.018013   91.03  0.004993  ( 0.068507  0.015932 -0.006805)
 39:   1126.43   0.004864   24.58  0.001348  ( 0.033671  0.007794  0.012375)
 40:   1189.94   0.000149    0.75  0.000039  (-0.000211  0.004043 -0.004760)
 41:   1224.55   0.001706    8.62  0.000435  ( 0.018163  0.010107 -0.001683)
 42:   1231.71   0.004578   23.14  0.001160  ( 0.033152  0.007581  0.001839)
 43:   1236.17   0.000372    1.88  0.000094  ( 0.009351  0.001508 -0.002024)
 44:   1331.48   0.024236  122.48  0.005680  ( 0.074070  0.013399 -0.003800)
 45:   1362.76   0.032589  164.69  0.007463  ( 0.082124  0.026715 -0.002154)
 46:   1379.38   0.024116  121.87  0.005456  ( 0.072665  0.011540 -0.006504)
 47:   1399.16   0.009779   49.42  0.002181  ( 0.039169  0.025279 -0.002814)
 48:   1409.43   0.002009   10.15  0.000445  (-0.019935 -0.006795  0.001101)
 49:   1443.44   0.002686   13.57  0.000581  (-0.014692  0.014486  0.012452)
 50:   1445.31   0.004660   23.55  0.001006  (-0.024504 -0.019860  0.003374)
 51:   1448.12   0.004828   24.40  0.001040  (-0.030210 -0.010042  0.005180)
 52:   1451.80   0.005763   29.13  0.001239  (-0.030731 -0.016622 -0.004260)
 53:   1467.55   0.003232   16.33  0.000687  (-0.025381  0.000437  0.006544)
 54:   1509.55   0.002672   13.51  0.000552  (-0.008821  0.019599 -0.009514)
 55:   1510.98   0.001494    7.55  0.000309  ( 0.003861  0.003587  0.016759)
 56:   1512.99   0.005441   27.49  0.001122  ( 0.027480 -0.017565 -0.007646)
 57:   1515.49   0.002390   12.08  0.000492  ( 0.004465  0.000592  0.021722)
 58:   1519.10   0.000875    4.42  0.000180  (-0.012429 -0.005033  0.000183)
 59:   1523.23   0.000274    1.38  0.000056  ( 0.006120  0.002408  0.003589)
 60:   1525.58   0.004373   22.10  0.000895  (-0.025213  0.007302  0.014338)
 61:   1534.57   0.002047   10.35  0.000416  ( 0.012673  0.015330 -0.004557)
 62:   1542.50   0.003755   18.98  0.000760  ( 0.003677 -0.009790  0.025503)
 63:   1761.03   0.006518   32.94  0.001155  ( 0.033784  0.002077 -0.003061)
 64:   1842.45   0.092007  464.97  0.015584  (-0.052803  0.113108  0.001490)
 65:   3093.85   0.006098   30.82  0.000615  (-0.017738  0.012505  0.012004)
 66:   3096.76   0.004791   24.21  0.000483  ( 0.015661  0.013581  0.007285)
 67:   3101.62   0.003259   16.47  0.000328  (-0.017699  0.003046  0.002316)
 68:   3121.07   0.003895   19.68  0.000389  ( 0.007048 -0.018425  0.000500)
 69:   3121.98   0.000907    4.58  0.000091  (-0.005460  0.000466  0.007787)
 70:   3130.96   0.006654   33.63  0.000663  (-0.017441 -0.009276  0.016522)
 71:   3180.49   0.000917    4.64  0.000090  (-0.002959  0.005399  0.007218)
 72:   3181.93   0.000979    4.95  0.000096  (-0.001458 -0.001010 -0.009635)
 73:   3184.02   0.006240   31.54  0.000612  (-0.002239 -0.017853  0.016967)
 74:   3195.82   0.002785   14.08  0.000272  ( 0.003348  0.002446  0.015962)
 75:   3199.72   0.003524   17.81  0.000344  (-0.018413  0.000556 -0.002089)
 76:   3200.99   0.001998   10.10  0.000195  ( 0.001812  0.013605  0.002526)
 77:   3214.78   0.001402    7.08  0.000136  (-0.009832  0.005015  0.003776)
 78:   3217.62   0.000652    3.29  0.000063  ( 0.006447  0.001140  0.004512)
 79:   3219.87   0.001963    9.92  0.000190  (-0.001546 -0.013501  0.002353)
 80:   3264.11   0.000612    3.09  0.000059  ( 0.006558  0.003873 -0.000717)

* The epsilon (eps) is given for a Dirac delta lineshape.
** The dipole moment derivative (T) already includes vibrational overlap.

The first frequency considered to be a vibration is 6
The total number of vibrations considered is 75


--------------------------
THERMOCHEMISTRY AT 298.15K
--------------------------

Temperature         ...   298.15 K
Pressure            ...     1.00 atm
Total Mass          ...   156.23 AMU
Quasi RRHO          ...     True
Cut-Off Frequency   ...     1.00 cm^-1

Throughout the following assumptions are being made:
  (1) The electronic state is orbitally nondegenerate
  (2) There are no thermally accessible electronically excited states
  (3) Hindered rotations indicated by low frequency modes are not
      treated as such but are treated as vibrations and this may
      cause some error
  (4) All equations used are the standard statistical mechanics
      equations for an ideal gas
  (5) All vibrations are strictly harmonic

freq.      24.20  E(vib)   ...       0.56 
freq.      45.65  E(vib)   ...       0.53 
freq.      50.34  E(vib)   ...       0.52 
freq.      78.84  E(vib)   ...       0.49 
freq.     105.85  E(vib)   ...       0.45 
freq.     162.51  E(vib)   ...       0.39 
freq.     174.38  E(vib)   ...       0.38 
freq.     222.03  E(vib)   ...       0.33 
freq.     229.26  E(vib)   ...       0.32 
freq.     241.63  E(vib)   ...       0.31 
freq.     287.58  E(vib)   ...       0.27 
freq.     311.19  E(vib)   ...       0.26 
freq.     326.73  E(vib)   ...       0.24 
freq.     380.21  E(vib)   ...       0.21 
freq.     393.66  E(vib)   ...       0.20 
freq.     439.10  E(vib)   ...       0.17 
freq.     491.46  E(vib)   ...       0.14 
freq.     519.72  E(vib)   ...       0.13 
freq.     538.51  E(vib)   ...       0.12 
freq.     756.39  E(vib)   ...       0.06 
freq.     772.98  E(vib)   ...       0.05 
freq.     842.77  E(vib)   ...       0.04 
freq.     860.88  E(vib)   ...       0.04 
freq.     902.09  E(vib)   ...       0.03 
freq.     905.31  E(vib)   ...       0.03 
freq.     956.44  E(vib)   ...       0.03 
freq.     970.65  E(vib)   ...       0.03 
freq.     987.24  E(vib)   ...       0.02 
freq.    1005.35  E(vib)   ...       0.02 
freq.    1007.99  E(vib)   ...       0.02 
freq.    1022.88  E(vib)   ...       0.02 
freq.    1095.94  E(vib)   ...       0.02 
freq.    1125.73  E(vib)   ...       0.01 
freq.    1126.43  E(vib)   ...       0.01 
freq.    1189.94  E(vib)   ...       0.01 
freq.    1224.55  E(vib)   ...       0.01 
freq.    1231.71  E(vib)   ...       0.01 
freq.    1236.17  E(vib)   ...       0.01 
freq.    1331.48  E(vib)   ...       0.01 
freq.    1362.76  E(vib)   ...       0.01 
freq.    1379.38  E(vib)   ...       0.01 
freq.    1399.16  E(vib)   ...       0.00 
freq.    1409.43  E(vib)   ...       0.00 
freq.    1443.44  E(vib)   ...       0.00 
freq.    1445.31  E(vib)   ...       0.00 
freq.    1448.12  E(vib)   ...       0.00 
freq.    1451.80  E(vib)   ...       0.00 
freq.    1467.55  E(vib)   ...       0.00 
freq.    1509.55  E(vib)   ...       0.00 
freq.    1510.98  E(vib)   ...       0.00 
freq.    1512.99  E(vib)   ...       0.00 
freq.    1515.49  E(vib)   ...       0.00 
freq.    1519.10  E(vib)   ...       0.00 
freq.    1523.23  E(vib)   ...       0.00 
freq.    1525.58  E(vib)   ...       0.00 
freq.    1534.57  E(vib)   ...       0.00 
freq.    1542.50  E(vib)   ...       0.00 
freq.    1761.03  E(vib)   ...       0.00 
freq.    1842.45  E(vib)   ...       0.00 
freq.    3093.85  E(vib)   ...       0.00 
freq.    3096.76  E(vib)   ...       0.00 
freq.    3101.62  E(vib)   ...       0.00 
freq.    3121.07  E(vib)   ...       0.00 
freq.    3121.98  E(vib)   ...       0.00 
freq.    3130.96  E(vib)   ...       0.00 
freq.    3180.49  E(vib)   ...       0.00 
freq.    3181.93  E(vib)   ...       0.00 
freq.    3184.02  E(vib)   ...       0.00 
freq.    3195.82  E(vib)   ...       0.00 
freq.    3199.72  E(vib)   ...       0.00 
freq.    3200.99  E(vib)   ...       0.00 
freq.    3214.78  E(vib)   ...       0.00 
freq.    3217.62  E(vib)   ...       0.00 
freq.    3219.87  E(vib)   ...       0.00 
freq.    3264.11  E(vib)   ...       0.00 

------------
INNER ENERGY
------------

The inner energy is: U= E(el) + E(ZPE) + E(vib) + E(rot) + E(trans)
    E(el)   - is the total energy from the electronic structure calculation
              = E(kin-el) + E(nuc-el) + E(el-el) + E(nuc-nuc)
    E(ZPE)  - the the zero temperature vibrational energy from the frequency calculation
    E(vib)  - the the finite temperature correction to E(ZPE) due to population
              of excited vibrational states
    E(rot)  - is the rotational thermal energy
    E(trans)- is the translational thermal energy

Summary of contributions to the inner energy U:
Electronic energy                ...    -93.05816385 Eh
Zero point energy                ...      0.24241017 Eh     152.11 kcal/mol
Thermal vibrational correction   ...      0.01050953 Eh       6.59 kcal/mol
Thermal rotational correction    ...      0.00141627 Eh       0.89 kcal/mol
Thermal translational correction ...      0.00141627 Eh       0.89 kcal/mol
-----------------------------------------------------------------------
Total thermal energy                    -92.80241160 Eh


Summary of corrections to the electronic energy:
(perhaps to be used in another calculation)
Total thermal correction                  0.01334208 Eh       8.37 kcal/mol
Non-thermal (ZPE) correction              0.24241017 Eh     152.11 kcal/mol
-----------------------------------------------------------------------
Total correction                          0.25575225 Eh     160.49 kcal/mol


--------
ENTHALPY
--------

The enthalpy is H = U + kB*T
                kB is Boltzmann's constant
Total thermal energy              ...    -92.80241160 Eh 
Thermal Enthalpy correction       ...      0.00094421 Eh       0.59 kcal/mol
-----------------------------------------------------------------------
Total Enthalpy                    ...    -92.80146739 Eh


Note: Only C1 symmetry has been detected, increase convergence thresholds 
      if your molecule has a higher symmetry. Symmetry factor of 1.0 is   
      used for the rotational entropy correction. 
 

Note: Rotational entropy computed according to Herzberg 
Infrared and Raman Spectra, Chapter V,1, Van Nostrand Reinhold, 1945 
Point Group:  C1, Symmetry Number:   1  
Rotational constants in cm-1:     0.073599     0.018021     0.015841 

Vibrational entropy computed according to the QRRHO of S. Grimme
Chem.Eur.J. 2012 18 9955 using a reference frequency of 100.0 cm-1


-------
ENTROPY
-------

The entropy contributions are T*S = T*(S(el)+S(vib)+S(rot)+S(trans))
     S(el)   - electronic entropy
     S(vib)  - vibrational entropy
     S(rot)  - rotational entropy
     S(trans)- translational entropy
The entropies will be listed as multiplied by the temperature to get
units of energy

Electronic entropy                ...      0.00000000 Eh      0.00 kcal/mol
Vibrational entropy               ...      0.01883640 Eh     11.82 kcal/mol
Rotational entropy                ...      0.01459544 Eh      9.16 kcal/mol
Translational entropy             ...      0.01950308 Eh     12.24 kcal/mol
-----------------------------------------------------------------------
Final entropy term                ...      0.05293492 Eh     33.22 kcal/mol

In case the symmetry of your molecule has not been determined correctly
or in case you have a reason to use a different symmetry number we print 
out the resulting rotational entropy values for sn=1,12:

 non-linear molecules -----------------------------------
|  sn= 1 | S(rot)=       0.01459544 Eh      9.16 kcal/mol|
|  sn= 2 | S(rot)=       0.01394098 Eh      8.75 kcal/mol|
|  sn= 3 | S(rot)=       0.01355815 Eh      8.51 kcal/mol|
|  sn= 4 | S(rot)=       0.01328652 Eh      8.34 kcal/mol|
|  sn= 5 | S(rot)=       0.01307584 Eh      8.21 kcal/mol|
|  sn= 6 | S(rot)=       0.01290369 Eh      8.10 kcal/mol|
|  sn= 7 | S(rot)=       0.01275815 Eh      8.01 kcal/mol|
|  sn= 8 | S(rot)=       0.01263207 Eh      7.93 kcal/mol|
|  sn= 9 | S(rot)=       0.01252086 Eh      7.86 kcal/mol|
|  sn=10 | S(rot)=       0.01242138 Eh      7.79 kcal/mol|
|  sn=11 | S(rot)=       0.01233139 Eh      7.74 kcal/mol|
|  sn=12 | S(rot)=       0.01224924 Eh      7.69 kcal/mol|
 linear molecules ---------------------------------------
|  Dinfh | S(rot)=       0.00923955 Eh      5.80 kcal/mol|
|  Cinfv | S(rot)=       0.00989401 Eh      6.21 kcal/mol|
 --------------------------------------------------------


-------------------
GIBBS FREE ENERGY
-------------------

The Gibbs free energy is G = H - T*S

Total enthalpy                    ...    -92.80146739 Eh 
Total entropy correction          ...     -0.05293492 Eh    -33.22 kcal/mol
-----------------------------------------------------------------------
Final Gibbs free energy         ...    -92.85440231 Eh

For completeness - the Gibbs free energy minus the electronic energy
G-E(el)                           ...      0.20376154 Eh    127.86 kcal/mol


Maximum memory used throughout the entire PROP-calculation: 126.9 MB

--------------------------------
SUGGESTED CITATIONS FOR THIS RUN
--------------------------------

Below you find a list of papers that are relevant to this ORCA run
We neither can nor want to force you to cite these papers, but we appreciate if you do
You receive ORCA, which is the product of decades of hard work by many enthusiastic individuals, for free
The only thing we kindly ask in return is that you cite our papers,
We deeply appreciate it, if you show your appreciation for ORCA by not just citing the generic ORCA reference.

Please note that relegating all ORCA citations to the supporting information does *not* help us.
SI sections are not indexed - citations you put there will not count into any citation statistics
But we need these citations in order to attract the funding resources that allow us to do what we are doing

Therefore, if you are a happy ORCA user, please consider citing a few of the papers listed below in the main body of your paper

In addition to the list printed below, the program has created the file ./output/2_butenoic_acid__3_methyl__2_methylpropyl_ester/2_butenoic_acid__3_methyl__2_methylpropyl_ester.bibtex that contains the list in bibtex format
You can import this file easily into all common literature databanks and citation aid programs


List of essential papers. We consider these as the minimum necessary citations

  1. Neese,F.
     Software update: the ORCA program system, version 5.0
     WIRES Comput. Molec. Sci., 2022 12(1)e1606
     doi.org/10.1002/wcms.1606
  2. Mueller,M.; Hansen,A.; Grimme,S.
     wB97X-3c: A composite range-separated hybrid DFT method with a molecule-optimized polarized valence double-zeta basis set
     J. Chem. Phys., 2023 158 014103
     doi.org/10.1063/5.0133026

List of papers to cite with high priority. The work reported in these papers was absolutely
necessary for this run to complete.
Our perspective: the developers of density functionals and basis sets usually get cited in chemistry papers
Good! But without the algorithms to do something with them, the functionals or basis sets would not do anything.
Hence, in our opinion, the algorithm design and method developments papers are equally worthy of getting cited

  1. Neese,F.
     An improvement of the resolution of the identity approximation for the formation of the Coulomb matrix
     J. Comp. Chem., 2003 24(14)1740-1747
     doi.org/10.1002/jcc.10318
  2. Neese,F.; Wennmohs,F.; Hansen,A.; Becker,U.
     Efficient, approximate and parallel Hartree-Fock and hybrid DFT calculations. A 'chain-of-spheres' algorithm for the Hartree-Fock exchange
     Chem. Phys., 2009 356(1-3)98-109
     doi.org/10.1016/j.chemphys.2008.10.036
  3. Bykov,D.; Petrenko,T.; Izsak,R.; Kossmann,S.; Becker,U.; Valeev,E.; Neese,F.
     Efficient implementation of the analytic second derivatives of Hartree-Fock and hybrid DFT energies: a detailed analysis of different approximations
     Molec. Phys., 2015 113 1961-1977
     doi.org/10.1080/00268976.2015.1025114
  4. Helmich-Paris,B.; de Souza,B.; Neese,F.; Izsák,R.
     An improved chain of spheres for exchange algorithm
     J. Chem. Phys., 2021 155 104109
     doi.org/doi: 10.1063/5.0058766.
  5. Neese,F.
     The SHARK Integral Generation and Digestion System
     J. Comp. Chem., 2022  1-16
     doi.org/10.1002/jcc.26942
  6. Caldeweyher,E.; Bannwarth,C.; Grimme,S.
     Extension of the D3 dispersion coefficient model
     J. Chem. Phys., 2017 147 034112
     doi.org/10.1063/1.4993215
  7. Caldeweyher,E.; Ehlert,S.; Hansen,A.; Neugebauer,H.; Spicher,S.; Bannwarth,C.; Grimme,S.
     A generally applicable atomic-charge dependent London dispersion correction
     J. Chem. Phys., 2019 150 154122
     doi.org/10.1063/1.5090222
  8. Caldeweyher,E.; Mewes,J.; Ehlert,S.; Grimme,S.
     Extension and evaluation of the D4 London-dispersion model for periodic systems
     Phys. Chem. Chem. Phys., 2020 22(16)8499-8512
     doi.org/10.1039/D0CP00502A
  9. Wittmann,L.; Gordiy,I.; Friede,M.; Helmich-Paris,B.; Grimme,S.; Hansen,A.; Bursch,M.
     Extension of the D3 and D4 London Dispersion Corrections to the full Actinides Series
     Phys. Chem. Chem. Phys., 2024 26(32)21379-21394
     doi.org/https://doi.org/10.1039/D4CP01514B 

List of suggested additional citations. These are papers that are important in the 'surrounding' of 
of this run, or papers that preceded the highly important papers. If you like your results we are grateful for a citation.

  1. Izsak,R.; Neese,F.
     An overlap fitted chain of spheres exchange method
     J. Chem. Phys., 2011 135 144105
     doi.org/10.1063/1.3646921
  2. Izsak,R.; Hansen,A.; Neese,F.
     The resolution of identity and chain of spheres approximations for the LPNO-CCSD singles Fock term
     Molec. Phys., 2012 110 2413-2417
     doi.org/10.1080/00268976.2012.687466
  3. Neese,F.
     The ORCA program system
     WIRES Comput. Molec. Sci., 2012 2(1)73-78
     doi.org/10.1002/wcms.81
  4. Izsak,R.; Neese,F.; Klopper,W.
     Robust fitting techniques in the chain of spheres approximation to the Fock exchange: The role of the complementary space
     J. Chem. Phys., 2013 139 
     doi.org/10.1063/1.4819264
  5. Neese,F.
     Software update: the ORCA program system, version 4.0
     WIRES Comput. Molec. Sci., 2018 8(1)1-6
     doi.org/10.1002/wcms.1327
  6. Neese,F.; Wennmohs,F.; Becker,U.; Riplinger,C.
     The ORCA quantum chemistry program package
     J. Chem. Phys., 2020 152 Art. No. L224108
     doi.org/10.1063/5.0004608

List of optional additional citations

  1. Neese,F.
     Approximate second-order SCF convergence for spin unrestricted wavefunctions
     Chem. Phys. Lett., 2000 325(1-3)93-98
     doi.org/10.1016/s0009-2614(00)00662-x

Timings for individual modules:

Sum of individual times          ...      725.024 sec (=  12.084 min)
Startup calculation              ...       38.864 sec (=   0.648 min)   5.4 %
SCF iterations                   ...      435.445 sec (=   7.257 min)  60.1 %
Property integrals               ...       51.342 sec (=   0.856 min)   7.1 %
SCF Response                     ...       38.547 sec (=   0.642 min)   5.3 %
Property calculations            ...       83.240 sec (=   1.387 min)  11.5 %
SCF Gradient evaluation          ...       77.295 sec (=   1.288 min)  10.7 %
Geometry relaxation              ...        0.292 sec (=   0.005 min)   0.0 %
                             ****ORCA TERMINATED NORMALLY****
TOTAL RUN TIME: 0 days 0 hours 12 minutes 10 seconds 95 msec
