
                                 *****************
                                 * O   R   C   A *
                                 *****************

                                            #,                                       
                                            ###                                      
                                            ####                                     
                                            #####                                    
                                            ######                                   
                                           ########,                                 
                                     ,,################,,,,,                         
                               ,,#################################,,                 
                          ,,##########################################,,             
                       ,#########################################, ''#####,          
                    ,#############################################,,   '####,        
                  ,##################################################,,,,####,       
                ,###########''''           ''''###############################       
              ,#####''   ,,,,##########,,,,          '''####'''          '####       
            ,##' ,,,,###########################,,,                        '##       
           ' ,,###''''                  '''############,,,                           
         ,,##''                                '''############,,,,        ,,,,,,###''
      ,#''                                            '''#######################'''  
     '                                                          ''''####''''         
             ,#######,   #######,   ,#######,      ##                                
            ,#'     '#,  ##    ##  ,#'     '#,    #''#        ,####,   ,####,        
            ##       ##  ##   ,#'  ##            #'  '#       #'       #'  '#        
            ##       ##  #######   ##           ,######,      #####,   #    #        
            '#,     ,#'  ##    ##  '#,     ,#' ,#      #,     #,   #   #,  ,#        
             '#######'   ##     ##  '#######'  #'      '#     '####' # '####'        



                #########################################################
                #                        -***-                          #
                #          Department of theory and spectroscopy        #
                #                                                       #
                #                      Frank Neese                      #
                #                                                       #
                #     Directorship, Architecture, Infrastructure        #
                #                    SHARK, DRIVERS                     #
                #        Core code/Algorithms in most modules           #
                #                                                       #
                #        Max Planck Institute fuer Kohlenforschung      #
                #                Kaiser Wilhelm Platz 1                 #
                #                 D-45470 Muelheim/Ruhr                 #
                #                      Germany                          #
                #                                                       #
                #                  All rights reserved                  #
                #                        -***-                          #
                #########################################################


                         Program Version 6.0.1  -  RELEASE   -


 With contributions from (in alphabetic order):
[Max-Planck-Institut fuer Kohlenforschung]                               
  Daniel Aravena         : Magnetic Suceptibility                        
  Michael Atanasov       : Ab Initio Ligand Field Theory (pilot matlab implementation)
  Alexander A. Auer      : GIAO ZORA, VPT2 properties, NMR spectrum      
  Ute Becker             : All parallelization in ORCA, NUMFREQ, NUMCALC 
  Giovanni Bistoni       : ED, misc. LED, open-shell LED, HFLD           
  Martin Brehm           : Molecular dynamics                            
  Dmytro Bykov           : pre 5.0 version of the SCF Hessian            
  Marcos Casanova-Páez   : Triplet and SCS-CIS(D). UHF-(DLPNO)-IP/EA/STEOM-CCSD. UHF-CVS-IP/STEOM-CCSD   
  Vijay G. Chilkuri      : MRCI spin determinant printing, contributions to CSF-ICE 
  Pauline Colinet        : FMM embedding                                 
  Dipayan Datta          : RHF DLPNO-CCSD density                        
  Achintya Kumar Dutta   : EOM-CC, STEOM-CC                              
  Nicolas Foglia         : Exact transition moments, OPA infrastructure, MCD improvements    
  Dmitry Ganyushin       : Spin-Orbit,Spin-Spin,Magnetic field MRCI      
  Miquel Garcia-Rates    : C-PCM and meta-GGA Hessian, CCSD/C-PCM, Gaussian charge scheme 
  Tiago L. C. Gouveia    : GS-ROHF, GS-ROCIS                             
  Yang Guo               : DLPNO-NEVPT2, F12-NEVPT2, CIM, IAO-localization        
  Andreas Hansen         : Spin unrestricted coupled pair/coupled cluster methods 
  Ingolf Harden          : AUTO-CI MPn and infrastructure                
  Benjamin Helmich-Paris : MC-RPA, TRAH-(SCF,CASSCF), AVAS, COSX integrals, SCF dyn. polar. 
  Lee Huntington         : MR-EOM, pCC                                   
  Robert Izsak           : Overlap fitted RIJCOSX, COSX-SCS-MP3, EOM     
  Riya Kayal             : Wick's Theorem for AUTO-CI, AUTO-CI UHF-CCSDT 
  Emily Kempfer          : AUTO-CI, RHF CISDT and CCSDT                  
  Christian Kollmar      : KDIIS, OOCD, Brueckner-CCSD(T), CCSD density, CASPT2, CASPT2-K, improved NEVPT2 
  Axel Koslowski         : Symmetry handling                             
  Simone Kossmann        : meta-GGA functionals, TD-DFT gradient, OOMP2, (MP2 Hessian; deprecated post 5.0) 
  Lucas Lang             : DCDCAS                                        
  Marvin Lechner         : AUTO-CI (C++ implementation), FIC-MRCC        
  Spencer Leger          : CASSCF response                               
  Dagmar Lenk            : GEPOL surface, SMD, ORCA-2-JSON               
  Dimitrios Liakos       : Extrapolation schemes; Compound Job, initial MDCI parallelization 
  Dimitrios Manganas     : Further ROCIS development; embedding schemes. LFT, Crystal Embedding 
  Dimitrios Pantazis     : SARC Basis sets                               
  Anastasios Papadopoulos: AUTO-CI, single reference methods and gradients 
  Taras Petrenko         : pre 6.0 DFT Hessian and TD-DFT gradient, (ASA, deprecated), ECA, 1-Electron XAS/XES, NRVS 
  Peter Pinski           : DLPNO-MP2, DLPNO-MP2 Gradient                 
  Christoph Reimann      : Effective Core Potentials                     
  Marius Retegan         : Local ZFS, SOC                                
  Christoph Riplinger    : Optimizer, TS searches, QM/MM, DLPNO-CCSD(T), (RO)-DLPNO pert. Triples 
  Michael Roemelt        : Original ROCIS implementation                 
  Masaaki Saitow         : Open-shell DLPNO-CCSD energy and density      
  Barbara Sandhoefer     : DKH picture change effects                    
  Kantharuban Sivalingam : CASSCF convergence/infrastructure, NEVPT2 and variants, FIC-MRCI 
  Bernardo de Souza      : ESD, SOC TD-DFT                               
  Georgi L. Stoychev     : AutoAux, RI-MP2 NMR, DLPNO-MP2 response, X2C  
  Van Anh Tran           : RI-MP2 g-tensors                              
  Willem Van den Heuvel  : Paramagnetic NMR                              
  Zikuan Wang            : NOTCH, Electric field optimization            
  Frank Wennmohs         : Technical directorship and infrastructure     
  Hang Xu                : AUTO-CI-Response properties                   
                                                                         
[FACCTs GmbH]                                                            
  Markus Bursch, Miquel Garcia-Rates, Christoph Riplinger, Bernardo de Souza, Georgi L. Stoychev 
                                                                 
  APM, Basis sets (HGBS, AHGBS, def-TZVP (Ac-Lr), def2-XVPD (La-Lu)), CI-OPT, improved COSX, DLPNO-Multilevel,           
  DOCKER, DRACO, updates on ESD, GOAT, IRC, LR-CPCM, MBIS, meta-GGA TD-DFT gradient, ML-optimized integration grids, 
  MM, NACMEs, nearIR, NEB, NEB-TS, NL-DFT gradient (VV10), 2- and 3-layer-ONIOM, interface openCOSMO-RS, QMMM,   
  Crystal-QMMM, SF, symmetry and pop. for TD-DFT, r2SCAN hybrids, SOLVATOR                                   
                                                                         
[Other institutions]                                                     
  V. Asgeirsson          : NEB                                           
  Christoph Bannwarth    : sTDA-DFT, sTD-DFT, PBEh-3c, B97-3c, D3        
  Sebastian Ehlert       : rSCAN, r2SCAN, r2SCAN-3c, D4, dhf basis sets  
  Marvin Friede          : D4 for Fr, Ra, Ac-Lr                          
  Lars Goerigk           : TD-DFT with DH, B97 family of functionals     
  Stefan Grimme          : VdW corrections, initial TS optimization, DFT functionals, gCP, sTDA/sTD-DF 
  Waldemar Hujo          : DFT-NL                                        
  H. Jonsson             : NEB                                           
  Holger Kruse           : gCP                                           
  Marcel Mueller         : wB97X-3c, vDZP basis set                      
  Hagen Neugebauer       : wr2SCAN                                       
  Tobias Risthaus        : range-separated hybrid DFT                    
  Lukas Wittmann         : regularized MP2, r2SCAN double-hybrids, wr2SCAN        
                                                                         
We gratefully acknowledge several colleagues who have allowed us to      
interface, adapt or use parts of their codes:                            
  Ed Valeev, F. Pavosevic, A. Kumar             : LibInt (2-el integral package), F12 methods 
  Garnet Chan, S. Sharma, J. Yang, R. Olivares  : DMRG                   
  Ulf Ekstrom                                   : XCFun DFT Library      
  Mihaly Kallay                                 : mrcc  (arbitrary order and MRCC methods)
  Frank Weinhold                                : gennbo (NPA and NBO analysis)           
  Simon Mueller                                 : openCOSMO-RS                            
  Christopher J. Cramer and Donald G. Truhlar   : smd solvation model                     
  S Lehtola, MJT Oliveira, MAL Marques          : LibXC Library                           
  Liviu Ungur et al                             : ANISO software                          


 Your calculation uses the libint2 library for the computation of 2-el integrals
 For citations please refer to: http://libint.valeyev.net

 Your ORCA version has been built with support for libXC version: 6.2.2
 For citations please refer to: https://libxc.gitlab.io

 This ORCA versions uses:
   CBLAS   interface :  Fast vector & matrix operations
   LAPACKE interface :  Fast linear algebra routines
   SCALAPACK package :  Parallel linear algebra routines
   Shared memory     :  Shared parallel matrices
   BLAS/LAPACK       :  OpenBLAS 0.3.27  USE64BITINT DYNAMIC_ARCH NO_AFFINITY SkylakeX SINGLE_THREADED
        Core in use  :  SkylakeX
   Copyright (c) 2011-2014, The OpenBLAS Project


Your calculation utilizes the atom-pairwise dispersion correction
based on EEQ partial charges (D4)


================================================================================

cite the ECPs for C  [vDZP-ECP] as follows:
   B-Ne (ecp-2-mwb), Al-Ar (ecp-10-mwb), Ga-Kr (ecp-28-mwb), Y-Cd (ecp-28-mwb), In-Xe (ecp-46-mwb):
     A. Bergner, M. Dolg, W. Küchle, H. Stoll, and H. Preuß, Mol. Phys. 80, 1431 (1993)., T. Leininger, A. Berning, A. Nicklass, H. Stoll, H.-J. Werner, and H.-J.Flad, Chem. Phys. 217, 19 (1997).
   Na-Mg, K-Ca, Rb-Sr, Cs-Ba (CRENBL):
     L. Fernandez Pacios and P. A. Christiansen, J. Chem. Phys. 82, 2664 (1985)., M. M. Hurley, L. F. Pacios, P. A. Christiansen, R. B. Ross, and W. C. Ermler, J. Chem. Phys. 84, 6840 (1986)., L. A. LaJohn, P. A. Christiansen, R. B. Ross, T. Atashroo, and W. C. Ermler, J. Chem. Phys. 87, 2812 (1987)., R. B. Ross, J. M. Powers, T. Atashroo, W. C. Ermler, L. A. LaJohn, and P. A. Christiansen, J. Chem. Phys. 93, 6654 (1990). 
   Sc-Zn (ecp-10-mdf):
     M. Dolg, U. Wedig, H. Stoll, and H. Preuss, J. Chem. Phys. 86, 866 (1986). 
   Y-Cd (ecp-28-mwb), Hf-Hg (ecp-60-mwb):
     D. Andrae, U. Häußermann, M. Dolg, H. Stoll, and H. Preuß, Theor. Chim. Acta 77, 123 (1990). 
   La (ecp-46-mwb):
     M. Dolg, H. Stoll, and H. Preuss, J. Chem. Phys. 90, 1730 (1989)., M. Dolg, H. Stoll, and H. Preuss, Theor. Chim. Acta 85, 441 (1993).
   Ce-Lu (SBKJC-ecp):
     T. R. Cundari and W. J. Stevens, J. Chem. Phys. 98, 5555 (1993).
   Tl-Rn (ecp-78-mwb):
     W. Küchle, M. Dolg, H. Stoll, and H. Preuss, Mol. Phys. 74, 1245 (1991).

ECP parameters for C  [vDZP-ECP] have been obtained from:
MM, AH, SG, J. Chem. Phys. 158, 014103 (2023), 10.1063/5.0133026

----- Orbital basis set information -----
Your calculation utilizes the basis: vDZP
   Marcel Mueller, Andreas Hansen, Stefan Grimme 
   J. Chem. Phys. 158, 014103 (2023). DOI: 10.1063/5.0133026

----- AuxJ basis set information -----
Your calculation utilizes the auxiliary basis: def2/J
   F. Weigend, Phys. Chem. Chem. Phys. 8, 1057 (2006).

================================================================================
                                        WARNINGS
                       Please study these warnings very carefully!
================================================================================

WARNING: Frozen-Core approximation turned on, but there are no core electrons.
  ===> : Turning off frozen-core approximation


WARNING: Geometry Optimization
  ===> : Switching off AutoStart
         For restart on a previous wavefunction, please use MOREAD

================================================================================
                                       INPUT FILE
================================================================================
NAME = ./output/alpha_amorphene/alpha_amorphene.inp
|  1> ! wB97X-3c OPT FREQ TightSCF
|  2> %pal
|  3>   nprocs 40
|  4> end
|  5> * xyz 0 1
|  6> C     -3.165742    -2.840608     0.032479
|  7> C     -2.389255    -1.564851    -0.151105
|  8> C     -1.051592    -1.625929    -0.304533
|  9> C     -0.160019    -0.413115    -0.519111
| 10> C     -0.946592     0.948117    -0.569870
| 11> C     -2.260921     0.905803     0.228574
| 12> C     -3.129685    -0.254497    -0.245611
| 13> C     -0.107325     2.127088    -0.105876
| 14> C      0.729873     1.981687     0.932993
| 15> C      0.888191     0.637116     1.574279
| 16> C      1.059208    -0.447899     0.486240
| 17> C      2.428979    -0.361941    -0.279103
| 18> C      2.727399    -1.682415    -1.017108
| 19> C      3.627151    -0.038706     0.632769
| 20> C     -0.220446     3.463918    -0.786862
| 21> H     -2.849014    -3.339696     0.972559
| 22> H     -2.978955    -3.522862    -0.823852
| 23> H     -4.256883    -2.642630     0.088250
| 24> H     -0.568820    -2.600541    -0.293457
| 25> H      0.230731    -0.542724    -1.549818
| 26> H     -1.228532     1.126317    -1.633041
| 27> H     -2.819824     1.855710     0.078533
| 28> H     -2.068048     0.796548     1.316061
| 29> H     -3.434689    -0.088165    -1.301481
| 30> H     -4.049391    -0.288164     0.377464
| 31> H      1.345060     2.811250     1.270654
| 32> H      1.727669     0.647078     2.298304
| 33> H     -0.015235     0.410588     2.176926
| 34> H      1.066975    -1.415525     1.038674
| 35> H      2.366901     0.450013    -1.037725
| 36> H      1.921212    -1.952567    -1.727331
| 37> H      2.846257    -2.515066    -0.290800
| 38> H      3.665111    -1.590071    -1.605862
| 39> H      4.581583    -0.127895     0.070754
| 40> H      3.659595    -0.734580     1.498434
| 41> H      3.572152     1.008687     0.995955
| 42> H     -0.524282     4.236681    -0.049399
| 43> H      0.759733     3.744220    -1.227044
| 44> H     -0.978530     3.439624    -1.597338
| 45> *
| 46> 
| 47>                          ****END OF INPUT****
================================================================================

                       *****************************
                       * Geometry Optimization Run *
                       *****************************

Geometry optimization settings:
Update method            Update   .... BFGS
Choice of coordinates    CoordSys .... (2022) Redundant Internals
Initial Hessian          InHess   .... Almloef's Model
Max. no of cycles        MaxIter  .... 117

Convergence Tolerances:
Energy Change            TolE     ....  5.0000e-06 Eh
Max. Gradient            TolMAXG  ....  3.0000e-04 Eh/bohr
RMS Gradient             TolRMSG  ....  1.0000e-04 Eh/bohr
Max. Displacement        TolMAXD  ....  4.0000e-03 bohr
RMS Displacement         TolRMSD  ....  2.0000e-03 bohr
Strict Convergence                .... False

------------------------------------------------------------------------------
                        ORCA OPTIMIZATION COORDINATE SETUP
------------------------------------------------------------------------------

The optimization will be done in redundant internal coordinates (2022)
Making redundant internal coordinates   ...  (2022 redundants) done
Evaluating the initial hessian          ...  (Almloef) done
Evaluating the coordinates              ...  done
Calculating the B-matrix                .... done
Calculating the G-matrix                .... done
Diagonalizing the G-matrix              .... done
Small eigenvalue found = 1.380e-02
Small eigenvalue found = 1.902e-02
Small eigenvalue found = 2.549e-02
The first mode is                       ....   93
The number of degrees of freedom        ....  111

    -----------------------------------------------------------------
                    Redundant Internal Coordinates


    -----------------------------------------------------------------
         Definition                    Initial Value    Approx d2E/dq
    -----------------------------------------------------------------
      1. B(C   1,C   0)                  1.5047         0.409926   
      2. B(C   2,C   1)                  1.3478         0.729520   
      3. B(C   3,C   2)                  1.5205         0.386869   
      4. B(C   4,C   3)                  1.5730         0.319026   
      5. B(C   5,C   4)                  1.5384         0.362184   
      6. B(C   6,C   5)                  1.5251         0.380375   
      7. B(C   6,C   1)                  1.5080         0.404956   
      8. B(C   7,C   4)                  1.5197         0.387913   
      9. B(C   8,C   7)                  1.3421         0.744947   
     10. B(C   9,C   8)                  1.4981         0.420084   
     11. B(C  10,C   9)                  1.5461         0.352159   
     12. B(C  10,C   3)                  1.5807         0.310148   
     13. B(C  11,C  10)                  1.5714         0.320826   
     14. B(C  12,C  11)                  1.5419         0.357637   
     15. B(C  13,C  11)                  1.5400         0.360097   
     16. B(C  14,C   7)                  1.5045         0.410195   
     17. B(H  15,C   0)                  1.1105         0.334007   
     18. B(H  16,C   0)                  1.1107         0.333727   
     19. B(H  17,C   0)                  1.1104         0.334152   
     20. B(H  18,C   2)                  1.0877         0.363175   
     21. B(H  19,C   3)                  1.1099         0.334735   
     22. B(H  20,C   4)                  1.1143         0.329394   
     23. B(H  21,C   5)                  1.1123         0.331778   
     24. B(H  22,C   5)                  1.1098         0.334777   
     25. B(H  23,C   6)                  1.1116         0.332685   
     26. B(H  24,C   6)                  1.1114         0.332872   
     27. B(H  25,C   8)                  1.0866         0.364660   
     28. B(H  26,C   9)                  1.1086         0.336294   
     29. B(H  27,C   9)                  1.1094         0.335380   
     30. B(H  28,C  10)                  1.1142         0.329413   
     31. B(H  29,C  11)                  1.1129         0.331000   
     32. B(H  30,C  12)                  1.1079         0.337242   
     33. B(H  31,C  12)                  1.1113         0.333013   
     34. B(H  32,C  12)                  1.1111         0.333286   
     35. B(H  33,C  13)                  1.1112         0.333125   
     36. B(H  34,C  13)                  1.1112         0.333172   
     37. B(H  35,C  13)                  1.1099         0.334668   
     38. B(H  36,C  14)                  1.1106         0.333911   
     39. B(H  37,C  14)                  1.1104         0.334049   
     40. B(H  38,C  14)                  1.1100         0.334562   
     41. A(C   1,C   0,H  15)          109.7033         0.325260   
     42. A(C   1,C   0,H  17)          111.2268         0.325283   
     43. A(H  15,C   0,H  16)          109.1866         0.284045   
     44. A(H  15,C   0,H  17)          108.5358         0.284102   
     45. A(H  16,C   0,H  17)          108.2707         0.284065   
     46. A(C   1,C   0,H  16)          109.8733         0.325215   
     47. A(C   2,C   1,C   6)          121.3007         0.414105   
     48. A(C   0,C   1,C   6)          119.4045         0.374341   
     49. A(C   0,C   1,C   2)          119.1838         0.415003   
     50. A(C   1,C   2,H  18)          118.6824         0.363334   
     51. A(C   1,C   2,C   3)          124.1856         0.410760   
     52. A(C   3,C   2,H  18)          117.1230         0.326645   
     53. A(C  10,C   3,H  19)          108.4532         0.310915   
     54. A(C   2,C   3,C   4)          113.6791         0.355826   
     55. A(C   2,C   3,H  19)          104.1435         0.322300   
     56. A(C   4,C   3,C  10)          115.1687         0.342806   
     57. A(C   4,C   3,H  19)          104.3085         0.312337   
     58. A(C   2,C   3,C  10)          110.1808         0.354127   
     59. A(C   5,C   4,C   7)          109.5530         0.363768   
     60. A(C   3,C   4,H  20)          107.2006         0.311526   
     61. A(C   5,C   4,H  20)          106.4651         0.318009   
     62. A(C   3,C   4,C   5)          112.7471         0.351874   
     63. A(C   3,C   4,C   7)          112.6647         0.355989   
     64. A(C   7,C   4,H  20)          107.8772         0.321594   
     65. A(C   4,C   5,C   6)          110.2566         0.362550   
     66. A(C   6,C   5,H  22)          109.1934         0.321414   
     67. A(H  21,C   5,H  22)          107.6719         0.283889   
     68. A(C   4,C   5,H  22)          111.2711         0.318850   
     69. A(C   6,C   5,H  21)          108.7571         0.320941   
     70. A(C   4,C   5,H  21)          109.6201         0.318383   
     71. A(C   1,C   6,H  24)          110.1724         0.324427   
     72. A(H  23,C   6,H  24)          108.0594         0.283757   
     73. A(C   5,C   6,H  24)          108.6709         0.321114   
     74. A(C   5,C   6,H  23)          109.7434         0.321084   
     75. A(C   1,C   6,H  23)          108.9217         0.324397   
     76. A(C   1,C   6,C   5)          111.2168         0.369549   
     77. A(C   8,C   7,C  14)          119.5716         0.416600   
     78. A(C   4,C   7,C  14)          120.6360         0.371619   
     79. A(C   4,C   7,C   8)          119.7860         0.412485   
     80. A(C   7,C   8,C   9)          119.6377         0.418371   
     81. A(C   9,C   8,H  25)          119.4971         0.331341   
     82. A(C   7,C   8,H  25)          120.7305         0.364891   
     83. A(C   8,C   9,C  10)          109.8962         0.366996   
     84. A(H  26,C   9,H  27)          105.2906         0.284565   
     85. A(C  10,C   9,H  27)          109.2129         0.317488   
     86. A(C   8,C   9,H  27)          109.2542         0.326793   
     87. A(C  10,C   9,H  26)          112.4671         0.317628   
     88. A(C   8,C   9,H  26)          110.5811         0.326940   
     89. A(C  11,C  10,H  28)          106.4330         0.311812   
     90. A(C   9,C  10,H  28)          105.1474         0.316561   
     91. A(C   3,C  10,H  28)          109.8664         0.310111   
     92. A(C   9,C  10,C  11)          113.6269         0.350542   
     93. A(C   3,C  10,C  11)          111.1851         0.343129   
     94. A(C   3,C  10,C   9)          110.2943         0.348546   
     95. A(C  13,C  11,H  29)          107.0906         0.317961   
     96. A(C  12,C  11,H  29)          108.0193         0.317606   
     97. A(C  10,C  11,H  29)          108.8607         0.312054   
     98. A(C  12,C  11,C  13)          108.2152         0.358407   
     99. A(C  10,C  11,C  13)          113.6584         0.351865   
    100. A(C  10,C  11,C  12)          110.7920         0.351457   
    101. A(H  30,C  12,H  31)          108.3074         0.284377   
    102. A(C  11,C  12,H  31)          110.4600         0.317920   
    103. A(C  11,C  12,H  30)          112.0147         0.318575   
    104. A(H  31,C  12,H  32)          108.5623         0.283856   
    105. A(H  30,C  12,H  32)          107.1409         0.284413   
    106. A(C  11,C  12,H  32)          110.2307         0.317963   
    107. A(H  34,C  13,H  35)          109.7245         0.284059   
    108. A(H  33,C  13,H  35)          106.4870         0.284053   
    109. A(C  11,C  13,H  35)          110.6870         0.318533   
    110. A(H  33,C  13,H  34)          108.5835         0.283855   
    111. A(C  11,C  13,H  34)          110.6448         0.318300   
    112. A(C  11,C  13,H  33)          110.6062         0.318293   
    113. A(H  37,C  14,H  38)          108.5979         0.284161   
    114. A(H  36,C  14,H  38)          108.2542         0.284143   
    115. A(C   7,C  14,H  38)          111.2463         0.325384   
    116. A(H  36,C  14,H  37)          109.2130         0.284075   
    117. A(C   7,C  14,H  37)          109.7148         0.325302   
    118. A(C   7,C  14,H  36)          109.7720         0.325280   
    119. D(C   2,C   1,C   0,H  16)    -56.9103         0.012446   
    120. D(C   6,C   1,C   0,H  15)   -120.6470         0.012446   
    121. D(C   6,C   1,C   0,H  16)    119.3108         0.012446   
    122. D(C   2,C   1,C   0,H  17)   -176.7794         0.012446   
    123. D(C   2,C   1,C   0,H  15)     63.1319         0.012446   
    124. D(C   3,C   2,C   1,C   6)      2.8623         0.037757   
    125. D(H  18,C   2,C   1,C   0)      0.1320         0.037757   
    126. D(H  18,C   2,C   1,C   6)   -176.0151         0.037757   
    127. D(C   3,C   2,C   1,C   0)    179.0094         0.037757   
    128. D(C   4,C   3,C   2,C   1)     -0.8745         0.011145   
    129. D(C  10,C   3,C   2,C   1)    130.1162         0.011145   
    130. D(C  10,C   3,C   2,H  18)    -50.9903         0.011145   
    131. D(C   4,C   3,C   2,H  18)    178.0189         0.011145   
    132. D(H  19,C   3,C   2,C   1)   -113.7547         0.011145   
    133. D(C   5,C   4,C   3,C   2)     27.1629         0.008349   
    134. D(C   7,C   4,C   3,H  19)    -95.4204         0.008349   
    135. D(C   7,C   4,C   3,C  10)     23.3159         0.008349   
    136. D(C   7,C   4,C   3,C   2)    151.7988         0.008349   
    137. D(C   5,C   4,C   3,H  19)    139.9437         0.008349   
    138. D(C   5,C   4,C   3,C  10)   -101.3200         0.008349   
    139. D(H  21,C   5,C   4,H  20)    -57.3308         0.010515   
    140. D(H  21,C   5,C   4,C   7)     59.0709         0.010515   
    141. D(H  21,C   5,C   4,C   3)   -174.6074         0.010515   
    142. D(C   6,C   5,C   4,H  20)     62.3682         0.010515   
    143. D(C   6,C   5,C   4,C   7)    178.7699         0.010515   
    144. D(C   6,C   5,C   4,C   3)    -54.9085         0.010515   
    145. D(H  23,C   6,C   1,C   2)     90.1776         0.012157   
    146. D(C   5,C   6,C   1,C   2)    -30.8967         0.012157   
    147. D(H  23,C   6,C   1,C   0)    -85.9611         0.012157   
    148. D(C   5,C   6,C   1,C   0)    152.9646         0.012157   
    149. D(H  24,C   6,C   1,C   0)     32.4025         0.012157   
    150. D(H  23,C   6,C   5,H  22)    172.9219         0.011530   
    151. D(H  23,C   6,C   5,H  21)     55.6846         0.011530   
    152. D(H  23,C   6,C   5,C   4)    -64.5354         0.011530   
    153. D(C   1,C   6,C   5,H  22)    -66.4868         0.011530   
    154. D(C   1,C   6,C   5,H  21)    176.2759         0.011530   
    155. D(C   1,C   6,C   5,C   4)     56.0559         0.011530   
    156. D(C  14,C   7,C   4,C   5)    -91.7364         0.011202   
    157. D(C  14,C   7,C   4,C   3)    141.8951         0.011202   
    158. D(C   8,C   7,C   4,H  20)   -157.1612         0.011202   
    159. D(C   8,C   7,C   4,C   5)     87.3336         0.011202   
    160. D(C   8,C   7,C   4,C   3)    -39.0348         0.011202   
    161. D(H  25,C   8,C   7,C  14)     -1.5943         0.039525   
    162. D(H  25,C   8,C   7,C   4)    179.3257         0.039525   
    163. D(C   9,C   8,C   7,C  14)   -177.3538         0.039525   
    164. D(C   9,C   8,C   7,C   4)      3.5662         0.039525   
    165. D(H  27,C   9,C   8,C   7)    -73.8349         0.013049   
    166. D(H  26,C   9,C   8,H  25)     -5.0858         0.013049   
    167. D(H  26,C   9,C   8,C   7)    170.7264         0.013049   
    168. D(C  10,C   9,C   8,H  25)   -129.8374         0.013049   
    169. D(C  10,C   9,C   8,C   7)     45.9748         0.013049   
    170. D(C  11,C  10,C   9,H  26)    -54.1683         0.009982   
    171. D(C  11,C  10,C   9,C   8)     69.4889         0.009982   
    172. D(C   3,C  10,C   9,H  27)     63.7099         0.009982   
    173. D(C   3,C  10,C   9,H  26)   -179.7821         0.009982   
    174. D(C   3,C  10,C   9,C   8)    -56.1250         0.009982   
    175. D(C  11,C  10,C   3,H  19)     11.3512         0.007945   
    176. D(C  11,C  10,C   3,C   4)   -105.0509         0.007945   
    177. D(C  11,C  10,C   3,C   2)    124.7477         0.007945   
    178. D(C   9,C  10,C   3,H  19)    138.3358         0.007945   
    179. D(C   9,C  10,C   3,C   4)     21.9337         0.007945   
    180. D(C  11,C  10,C   9,H  27)   -170.6762         0.009982   
    181. D(C   9,C  10,C   3,C   2)   -108.2677         0.007945   
    182. D(C  13,C  11,C  10,H  28)    -74.8069         0.008433   
    183. D(C  13,C  11,C  10,C   9)     40.4310         0.008433   
    184. D(C  13,C  11,C  10,C   3)    165.5699         0.008433   
    185. D(C  12,C  11,C  10,H  28)     47.2926         0.008433   
    186. D(C  12,C  11,C  10,C   9)    162.5306         0.008433   
    187. D(C  12,C  11,C  10,C   3)    -72.3306         0.008433   
    188. D(H  31,C  12,C  11,H  29)    177.2982         0.010271   
    189. D(H  31,C  12,C  11,C  13)     61.6789         0.010271   
    190. D(H  31,C  12,C  11,C  10)    -63.5492         0.010271   
    191. D(H  30,C  12,C  11,H  29)    -61.8725         0.010271   
    192. D(H  30,C  12,C  11,C  13)   -177.4919         0.010271   
    193. D(H  30,C  12,C  11,C  10)     57.2800         0.010271   
    194. D(H  34,C  13,C  11,H  29)    172.0897         0.010403   
    195. D(H  34,C  13,C  11,C  12)    -71.6866         0.010403   
    196. D(H  34,C  13,C  11,C  10)     51.8290         0.010403   
    197. D(H  33,C  13,C  11,H  29)    -67.5460         0.010403   
    198. D(H  33,C  13,C  11,C  12)     48.6778         0.010403   
    199. D(H  33,C  13,C  11,C  10)    172.1933         0.010403   
    200. D(H  38,C  14,C   7,C   4)      1.3750         0.012462   
    201. D(H  37,C  14,C   7,C   8)     62.1167         0.012462   
    202. D(H  37,C  14,C   7,C   4)   -118.8113         0.012462   
    203. D(H  36,C  14,C   7,C   8)    -57.9022         0.012462   
    204. D(H  36,C  14,C   7,C   4)    121.1698         0.012462   
    -----------------------------------------------------------------

Number of atoms                         .... 39
Number of degrees of freedom            .... 204


         *************************************************************
         *                GEOMETRY OPTIMIZATION CYCLE   1            *
         *************************************************************
---------------------------------
CARTESIAN COORDINATES (ANGSTROEM)
---------------------------------
  C     -3.165742   -2.840608    0.032479
  C     -2.389255   -1.564851   -0.151105
  C     -1.051592   -1.625929   -0.304533
  C     -0.160019   -0.413115   -0.519111
  C     -0.946592    0.948117   -0.569870
  C     -2.260921    0.905803    0.228574
  C     -3.129685   -0.254497   -0.245611
  C     -0.107325    2.127088   -0.105876
  C      0.729873    1.981687    0.932993
  C      0.888191    0.637116    1.574279
  C      1.059208   -0.447899    0.486240
  C      2.428979   -0.361941   -0.279103
  C      2.727399   -1.682415   -1.017108
  C      3.627151   -0.038706    0.632769
  C     -0.220446    3.463918   -0.786862
  H     -2.849014   -3.339696    0.972559
  H     -2.978955   -3.522862   -0.823852
  H     -4.256883   -2.642630    0.088250
  H     -0.568820   -2.600541   -0.293457
  H      0.230731   -0.542724   -1.549818
  H     -1.228532    1.126317   -1.633041
  H     -2.819824    1.855710    0.078533
  H     -2.068048    0.796548    1.316061
  H     -3.434689   -0.088165   -1.301481
  H     -4.049391   -0.288164    0.377464
  H      1.345060    2.811250    1.270654
  H      1.727669    0.647078    2.298304
  H     -0.015235    0.410588    2.176926
  H      1.066975   -1.415525    1.038674
  H      2.366901    0.450013   -1.037725
  H      1.921212   -1.952567   -1.727331
  H      2.846257   -2.515066   -0.290800
  H      3.665111   -1.590071   -1.605862
  H      4.581583   -0.127895    0.070754
  H      3.659595   -0.734580    1.498434
  H      3.572152    1.008687    0.995955
  H     -0.524282    4.236681   -0.049399
  H      0.759733    3.744220   -1.227044
  H     -0.978530    3.439624   -1.597338

----------------------------
CARTESIAN COORDINATES (A.U.)
----------------------------
  NO LB      ZA    FRAG     MASS         X           Y           Z
   0 C     4.0000*   0    12.011   -5.982385   -5.367971    0.061376
   1 C     4.0000*   0    12.011   -4.515038   -2.957140   -0.285547
   2 C     4.0000*   0    12.011   -1.987221   -3.072561   -0.575484
   3 C     4.0000*   0    12.011   -0.302392   -0.780674   -0.980978
   4 C     4.0000*   0    12.011   -1.788800    1.791681   -1.076898
   5 C     4.0000*   0    12.011   -4.272522    1.711720    0.431942
   6 C     4.0000*   0    12.011   -5.914248   -0.480930   -0.464138
   7 C     4.0000*   0    12.011   -0.202815    4.019614   -0.200077
   8 C     4.0000*   0    12.011    1.379260    3.744846    1.763101
   9 C     4.0000*   0    12.011    1.678438    1.203975    2.974956
  10 C     4.0000*   0    12.011    2.001613   -0.846406    0.918860
  11 C     4.0000*   0    12.011    4.590105   -0.683969   -0.527428
  12 C     4.0000*   0    12.011    5.154037   -3.179304   -1.922056
  13 C     4.0000*   0    12.011    6.854322   -0.073144    1.195760
  14 C     4.0000*   0    12.011   -0.416583    6.545856   -1.486954
  15 H     1.0000    0     1.008   -5.383856   -6.311111    1.837870
  16 H     1.0000    0     1.008   -5.629409   -6.657244   -1.556855
  17 H     1.0000    0     1.008   -8.044343   -4.993847    0.166768
  18 H     1.0000    0     1.008   -1.074914   -4.914310   -0.554553
  19 H     1.0000    0     1.008    0.436018   -1.025600   -2.928732
  20 H     1.0000    0     1.008   -2.321589    2.128431   -3.086000
  21 H     1.0000    0     1.008   -5.328695    3.506784    0.148406
  22 H     1.0000    0     1.008   -3.908044    1.505258    2.486995
  23 H     1.0000    0     1.008   -6.490622   -0.166608   -2.459443
  24 H     1.0000    0     1.008   -7.652240   -0.544551    0.713304
  25 H     1.0000    0     1.008    2.541795    5.312493    2.401188
  26 H     1.0000    0     1.008    3.264821    1.222800    4.343165
  27 H     1.0000    0     1.008   -0.028790    0.775899    4.113794
  28 H     1.0000    0     1.008    2.016291   -2.674955    1.962809
  29 H     1.0000    0     1.008    4.472795    0.850401   -1.961016
  30 H     1.0000    0     1.008    3.630565   -3.689817   -3.264183
  31 H     1.0000    0     1.008    5.378646   -4.752786   -0.549532
  32 H     1.0000    0     1.008    6.926056   -3.004799   -3.034639
  33 H     1.0000    0     1.008    8.657937   -0.241687    0.133706
  34 H     1.0000    0     1.008    6.915632   -1.388155    2.831630
  35 H     1.0000    0     1.008    6.750389    1.906142    1.882082
  36 H     1.0000    0     1.008   -0.990749    8.006167   -0.093351
  37 H     1.0000    0     1.008    1.435687    7.075550   -2.318777
  38 H     1.0000    0     1.008   -1.849154    6.499947   -3.018531
* core charge reduced due to ECP

--------------------------------
INTERNAL COORDINATES (ANGSTROEM)
--------------------------------
 C      0   0   0     0.000000000000     0.00000000     0.00000000
 C      1   0   0     1.504722921097     0.00000000     0.00000000
 C      2   1   0     1.347817856699   119.18380941     0.00000000
 C      3   2   1     1.520481479995   124.18562560   179.00937099
 C      4   3   2     1.572967297255   113.67907788   359.12545217
 C      5   4   3     1.538429074079   112.74709860    27.16285840
 C      2   1   3     1.508043624784   119.40452115   176.22112290
 C      5   4   3     1.519747396170   112.66474968   151.79876652
 C      8   5   4     1.342121731128   119.78599210   320.96516048
 C      9   8   5     1.498059911005   119.63765169     3.56623282
 C     10   9   8     1.546070253913   109.89619897    45.97480415
 C     11  10   9     1.571436055923   113.62685062    69.48889020
 C     12  11  10     1.541868172413   110.79198864   162.53060624
 C     12  11  10     1.540002451684   113.65840978    40.43104437
 C      8   5   4     1.504544031173   120.63595383   141.89514868
 H      1   2   3     1.110475512620   109.70333172    63.13187691
 H      1   2   3     1.110703689310   109.87328438   303.08970613
 H      1   2   3     1.110357768832   111.22678944   183.22058010
 H      3   2   1     1.087685631193   118.68242648     0.13199034
 H      4   3   2     1.109883316043   104.14353000   246.24530304
 H      5   4   3     1.114261180712   107.20058164   270.32183322
 H      6   5   4     1.112298599181   109.62013631   185.39257696
 H      6   5   4     1.109848919594   111.27112055    66.40521102
 H      7   2   1     1.111555320774   108.92166554   274.03888944
 H      7   2   1     1.111402289430   110.17243640    32.40245873
 H      9   8   5     1.086574786593   120.73047561   179.32573468
 H     10   9   8     1.108618398978   110.58107629   170.72637773
 H     10   9   8     1.109358769231   109.25420810   286.16506671
 H     11  10   9     1.114245810637   105.14739148   185.48511066
 H     12  11  10     1.112937695958   108.86069467   281.17490250
 H     13  12  11     1.107852107369   112.01468053    57.28003886
 H     13  12  11     1.111286741948   110.45999134   296.45080254
 H     13  12  11     1.111063671351   110.23073954   176.47684352
 H     14  12  11     1.111195743589   110.60615170   172.19334442
 H     14  12  11     1.111156662778   110.64481034    51.82895878
 H     14  12  11     1.109937411319   110.68703502   289.97302311
 H     15   8   5     1.110554206437   109.77198965   121.16981165
 H     15   8   5     1.110441478138   109.71483696   241.18869708
 H     15   8   5     1.110023826802   111.24634345     1.37504945

---------------------------
INTERNAL COORDINATES (A.U.)
---------------------------
 C      0   0   0     0.000000000000     0.00000000     0.00000000
 C      1   0   0     2.843514228307     0.00000000     0.00000000
 C      2   1   0     2.547006627570   119.18380941     0.00000000
 C      3   2   1     2.873293588891   124.18562560   179.00937099
 C      4   3   2     2.972477409426   113.67907788   359.12545217
 C      5   4   3     2.907209626472   112.74709860    27.16285840
 C      2   1   3     2.849789448848   119.40452115   176.22112290
 C      5   4   3     2.871906371502   112.66474968   151.79876652
 C      8   5   4     2.536242510216   119.78599210   320.96516048
 C      9   8   5     2.830922964006   119.63765169     3.56623282
 C     10   9   8     2.921649363698   109.89619897    45.97480415
 C     11  10   9     2.969583782663   113.62685062    69.48889020
 C     12  11  10     2.913708580471   110.79198864   162.53060624
 C     12  11  10     2.910182879250   113.65840978    40.43104437
 C      8   5   4     2.843176175342   120.63595383   141.89514868
 H      1   2   3     2.098494597277   109.70333172    63.13187691
 H      1   2   3     2.098925788731   109.87328438   303.08970613
 H      1   2   3     2.098272093765   111.22678944   183.22058010
 H      3   2   1     2.055427962756   118.68242648     0.13199034
 H      4   3   2     2.097375507929   104.14353000   246.24530304
 H      5   4   3     2.105648473205   107.20058164   270.32183322
 H      6   5   4     2.101939731595   109.62013631   185.39257696
 H      6   5   4     2.097310508060   111.27112055    66.40521102
 H      7   2   1     2.100535138965   108.92166554   274.03888944
 H      7   2   1     2.100245951636   110.17243640    32.40245873
 H      9   8   5     2.053328770684   120.73047561   179.32573468
 H     10   9   8     2.094985161095   110.58107629   170.72637773
 H     10   9   8     2.096384258110   109.25420810   286.16506671
 H     11  10   9     2.105619427972   105.14739148   185.48511066
 H     12  11  10     2.103147449478   108.86069467   281.17490250
 H     13  12  11     2.093537079815   112.01468053    57.28003886
 H     13  12  11     2.100027598539   110.45999134   296.45080254
 H     13  12  11     2.099606056203   110.23073954   176.47684352
 H     14  12  11     2.099855636562   110.60615170   172.19334442
 H     14  12  11     2.099781784533   110.64481034    51.82895878
 H     14  12  11     2.097477733187   110.68703502   289.97302311
 H     15   8   5     2.098643307039   109.77198965   121.16981165
 H     15   8   5     2.098430281427   109.71483696   241.18869708
 H     15   8   5     2.097641034783   111.24634345     1.37504945

---------------------
BASIS SET INFORMATION
---------------------
There are 2 groups of distinct atoms

 Group   1 Type C   : 6s6p2d contracted to 2s2p1d pattern {42/42/2}
 Group   2 Type H   : 8s2p contracted to 2s1p pattern {53/2}

Atom   0C    basis set group =>   1
Atom   1C    basis set group =>   1
Atom   2C    basis set group =>   1
Atom   3C    basis set group =>   1
Atom   4C    basis set group =>   1
Atom   5C    basis set group =>   1
Atom   6C    basis set group =>   1
Atom   7C    basis set group =>   1
Atom   8C    basis set group =>   1
Atom   9C    basis set group =>   1
Atom  10C    basis set group =>   1
Atom  11C    basis set group =>   1
Atom  12C    basis set group =>   1
Atom  13C    basis set group =>   1
Atom  14C    basis set group =>   1
Atom  15H    basis set group =>   2
Atom  16H    basis set group =>   2
Atom  17H    basis set group =>   2
Atom  18H    basis set group =>   2
Atom  19H    basis set group =>   2
Atom  20H    basis set group =>   2
Atom  21H    basis set group =>   2
Atom  22H    basis set group =>   2
Atom  23H    basis set group =>   2
Atom  24H    basis set group =>   2
Atom  25H    basis set group =>   2
Atom  26H    basis set group =>   2
Atom  27H    basis set group =>   2
Atom  28H    basis set group =>   2
Atom  29H    basis set group =>   2
Atom  30H    basis set group =>   2
Atom  31H    basis set group =>   2
Atom  32H    basis set group =>   2
Atom  33H    basis set group =>   2
Atom  34H    basis set group =>   2
Atom  35H    basis set group =>   2
Atom  36H    basis set group =>   2
Atom  37H    basis set group =>   2
Atom  38H    basis set group =>   2
---------------------------------
AUXILIARY/J BASIS SET INFORMATION
---------------------------------
There are 2 groups of distinct atoms

 Group   1 Type C   : 12s5p4d2f1g contracted to 6s4p3d1f1g pattern {711111/2111/211/2/1}
 Group   2 Type H   : 5s2p1d contracted to 3s1p1d pattern {311/2/1}

Atom   0C    basis set group =>   1
Atom   1C    basis set group =>   1
Atom   2C    basis set group =>   1
Atom   3C    basis set group =>   1
Atom   4C    basis set group =>   1
Atom   5C    basis set group =>   1
Atom   6C    basis set group =>   1
Atom   7C    basis set group =>   1
Atom   8C    basis set group =>   1
Atom   9C    basis set group =>   1
Atom  10C    basis set group =>   1
Atom  11C    basis set group =>   1
Atom  12C    basis set group =>   1
Atom  13C    basis set group =>   1
Atom  14C    basis set group =>   1
Atom  15H    basis set group =>   2
Atom  16H    basis set group =>   2
Atom  17H    basis set group =>   2
Atom  18H    basis set group =>   2
Atom  19H    basis set group =>   2
Atom  20H    basis set group =>   2
Atom  21H    basis set group =>   2
Atom  22H    basis set group =>   2
Atom  23H    basis set group =>   2
Atom  24H    basis set group =>   2
Atom  25H    basis set group =>   2
Atom  26H    basis set group =>   2
Atom  27H    basis set group =>   2
Atom  28H    basis set group =>   2
Atom  29H    basis set group =>   2
Atom  30H    basis set group =>   2
Atom  31H    basis set group =>   2
Atom  32H    basis set group =>   2
Atom  33H    basis set group =>   2
Atom  34H    basis set group =>   2
Atom  35H    basis set group =>   2
Atom  36H    basis set group =>   2
Atom  37H    basis set group =>   2
Atom  38H    basis set group =>   2
-------------------------
ECP PARAMETER INFORMATION
-------------------------

 Group 1, Type C  ECP vDZP-ECP (replacing 2 core electrons, lmax=3)

Atom   0C    ECP group =>   1
Atom   1C    ECP group =>   1
Atom   2C    ECP group =>   1
Atom   3C    ECP group =>   1
Atom   4C    ECP group =>   1
Atom   5C    ECP group =>   1
Atom   6C    ECP group =>   1
Atom   7C    ECP group =>   1
Atom   8C    ECP group =>   1
Atom   9C    ECP group =>   1
Atom  10C    ECP group =>   1
Atom  11C    ECP group =>   1
Atom  12C    ECP group =>   1
Atom  13C    ECP group =>   1
Atom  14C    ECP group =>   1



           ************************************************************
           *        Program running with 40 parallel MPI-processes    *
           *              working on a common directory               *
           ************************************************************
------------------------------------------------------------------------------
                             ORCA STARTUP CALCULATIONS
                           -- RI-GTO INTEGRALS CHOSEN --
------------------------------------------------------------------------------
------------------------------------------------------------------------------
                   ___                                                        
                  /   \      - P O W E R E D   B Y -                         
                 /     \                                                     
                 |  |  |   _    _      __       _____    __    __             
                 |  |  |  | |  | |    /  \     |  _  \  |  |  /  |          
                  \  \/   | |  | |   /    \    | | | |  |  | /  /          
                 / \  \   | |__| |  /  /\  \   | |_| |  |  |/  /          
                |  |  |   |  __  | /  /__\  \  |    /   |      \           
                |  |  |   | |  | | |   __   |  |    \   |  |\   \          
                \     /   | |  | | |  |  |  |  | |\  \  |  | \   \       
                 \___/    |_|  |_| |__|  |__|  |_| \__\ |__|  \__/        
                                                                              
                      - O R C A' S   B I G   F R I E N D -                    
                                      &                                       
                       - I N T E G R A L  F E E D E R -                       
                                                                              
 v1 FN, 2020, v2 2021, v3 2022-2024                                           
------------------------------------------------------------------------------


----------------------
SHARK INTEGRAL PACKAGE
----------------------

Number of atoms                             ...     39
Number of basis functions                   ...    315
Number of shells                            ...    147
Maximum angular momentum                    ...      2
Integral batch strategy                     ... SHARK/LIBINT Hybrid
RI-J (if used) integral strategy            ... SPLIT-RIJ (Revised 2003 algorithm where possible)
Printlevel                                  ...      1
Contraction scheme used                     ... SEGMENTED contraction
Prescreening option                         ... SCHWARTZ
   Thresh                                   ... 2.500e-11
   Tcut                                     ... 2.500e-12
   Tpresel                                  ... 2.500e-12 
Coulomb Range Separation                    ... NOT USED
Exchange Range Separation                   ... Long Range
   Mu parameter                             ... 3.000e-01
   Scaling (regular/separated)              ... 1.670e-01 8.330e-01
Multipole approximations                    ... NOT USED
Finite Nucleus Model                        ... NOT USED
CABS basis                                  ... NOT available
Auxiliary Coulomb fitting basis             ... AVAILABLE
   # of basis functions in Aux-J            ...    999
   # of shells in Aux-J                     ...    345
   Maximum angular momentum in Aux-J        ...      4
Auxiliary J/K fitting basis                 ... NOT available
Auxiliary Correlation fitting basis         ... NOT available
Auxiliary 'external' fitting basis          ... NOT available

Checking pre-screening integrals            ... done (  0.0 sec) Dimension = 147
Check shell pair data                       ... done (  0.0 sec)
Shell pair information
Shell pair cut-off parameter TPreSel        ...   2.5e-12
Total number of shell pairs                 ...     10878
Shell pairs after pre-screening             ...     10770
Total number of primitive shell pairs       ...    102036
Primitive shell pairs kept                  ...     77016
          la=0 lb=0:   3065 shell pairs
          la=1 lb=0:   4164 shell pairs
          la=1 lb=1:   1445 shell pairs
          la=2 lb=0:   1168 shell pairs
          la=2 lb=1:    808 shell pairs
          la=2 lb=2:    120 shell pairs

Calculating one electron integrals          ... done (  0.0 sec)
Calculating ECP integrals                   ... done (  0.2 sec)
Calculating RI/J V-Matrix + Cholesky decomp.... done (  0.1 sec)
Calculating Nuclear repulsion               ... done (  0.0 sec) ENN=    565.634601774743 Eh

Diagonalization of the overlap matrix:
Smallest eigenvalue                        ... 8.475e-04
Time for diagonalization                   ...    0.014 sec
Threshold for overlap eigenvalues          ... 1.000e-07
Number of eigenvalues below threshold      ... 0
Time for construction of square roots      ...    0.007 sec
Total time needed                          ...    0.025 sec

-------------------
DFT GRID GENERATION
-------------------

General Integration Accuracy     IntAcc      ... 4.388
Radial Grid Type                 RadialGrid  ... OptM3 with GC (2021)
Angular Grid (max. ang.)         AngularGrid ... 4 (Lebedev-302)
Angular grid pruning method      GridPruning ... 4 (adaptive)
Weight generation scheme         WeightScheme... mBecke (2022)
Basis function cutoff            BFCut       ... 1.0000e-11
Integration weight cutoff        WCut        ... 1.0000e-14
Partially contracted basis set               ... off
Rotationally invariant grid construction     ... off
Angular grids for H and He will be reduced by one unit

Total number of grid points                  ...   165003
Total number of batches                      ...     2599
Average number of points per batch           ...       63
Average number of grid points per atom       ...     4231

--------------------
COSX GRID GENERATION
--------------------

GRIDX 1
-------
General Integration Accuracy     IntAcc      ... 3.816
Radial Grid Type                 RadialGrid  ... OptM3 with GC (2021)
Angular Grid (max. ang.)         AngularGrid ... 1 (Lebedev-50)
Angular grid pruning method      GridPruning ... 4 (adaptive)
Weight generation scheme         WeightScheme... mBecke (2022)
Basis function cutoff            BFCut       ... 1.0000e-11
Integration weight cutoff        WCut        ... 1.0000e-14
Partially contracted basis set               ... on
Rotationally invariant grid construction     ... off
Angular grids for H and He will be reduced by one unit

Total number of grid points                  ...    21050
Total number of batches                      ...      188
Average number of points per batch           ...      111
Average number of grid points per atom       ...      540
UseSFitting                                  ... on

GRIDX 2
-------
General Integration Accuracy     IntAcc      ... 4.020
Radial Grid Type                 RadialGrid  ... OptM3 with GC (2021)
Angular Grid (max. ang.)         AngularGrid ... 2 (Lebedev-110)
Angular grid pruning method      GridPruning ... 4 (adaptive)
Weight generation scheme         WeightScheme... mBecke (2022)
Basis function cutoff            BFCut       ... 1.0000e-11
Integration weight cutoff        WCut        ... 1.0000e-14
Partially contracted basis set               ... on
Rotationally invariant grid construction     ... off
Angular grids for H and He will be reduced by one unit

Total number of grid points                  ...    43564
Total number of batches                      ...      361
Average number of points per batch           ...      120
Average number of grid points per atom       ...     1117
UseSFitting                                  ... on

GRIDX 3
-------
General Integration Accuracy     IntAcc      ... 4.338
Radial Grid Type                 RadialGrid  ... OptM3 with GC (2021)
Angular Grid (max. ang.)         AngularGrid ... 3 (Lebedev-194)
Angular grid pruning method      GridPruning ... 4 (adaptive)
Weight generation scheme         WeightScheme... mBecke (2022)
Basis function cutoff            BFCut       ... 1.0000e-11
Integration weight cutoff        WCut        ... 1.0000e-14
Partially contracted basis set               ... on
Rotationally invariant grid construction     ... off
Angular grids for H and He will be reduced by one unit

Total number of grid points                  ...    94521
Total number of batches                      ...      760
Average number of points per batch           ...      124
Average number of grid points per atom       ...     2424
UseSFitting                                  ... on
Initializing property integral containers    ... done (  0.0 sec)

SHARK setup successfully completed in   5.6 seconds

Maximum memory used throughout the entire STARTUP-calculation: 51.7 MB


           ************************************************************
           *        Program running with 40 parallel MPI-processes    *
           *              working on a common directory               *
           ************************************************************
-------------------------------------------------------------------------------
                                 ORCA GUESS
                   Start orbitals & Density for SCF / CASSCF
-------------------------------------------------------------------------------

------------
SCF SETTINGS
------------
Hamiltonian:
 Density Functional     Method          .... DFT(GTOs)
 Exchange Functional    Exchange        .... WB97X-V
 Correlation Functional Correlation     .... WB97X-V
 Gradients option       PostSCFGGA      .... off
 Hybrid DFT is turned on
   Fraction HF Exchange ScalHFX         ....  0.167000
   Scaling of DF-GGA-X  ScalDFX         ....  0.000000
   Scaling of DF-GGA-C  ScalDFC         ....  1.000000
   Scaling of DF-LDA-C  ScalLDAC        ....  1.000000
   Perturbative correction              ....  0.000000
 Long-range corrected/Screened/Range-Separated Hybrid DFT is turned on
   Amount of maximum screened exact exchange              ....  0.833000
   Range separation parameter mu (erf(mu*r12)/r12)        ....  0.300000
   NL short-range parameter             ....  6.000000
   NL long-range parameter              ....  0.010000
 RI-approximation to the Coulomb term is turned on
   Number of AuxJ basis functions       .... 999
   RIJ-COSX (HFX calculated with COS-X)).... on


General Settings:
 Integral files         IntName         .... ./output/alpha_amorphene/alpha_amorphene
 Hartree-Fock type      HFTyp           .... RHF
 Total Charge           Charge          ....    0
 Multiplicity           Mult            ....    1
 Number of Electrons    NEL             ....   84
 Basis Dimension        Dim             ....  315
 Nuclear Repulsion      ENuc            ....    565.6346017747 Eh

Convergence Acceleration:
 AO-DIIS                CNVDIIS         .... on
   Start iteration      DIISMaxIt       ....    12
   Startup error        DIISStart       ....  0.200000
   # of expansion vecs  DIISMaxEq       ....     5
   Bias factor          DIISBfac        ....   1.050
   Max. coefficient     DIISMaxC        ....  10.000
 MO-DIIS                CNVKDIIS        .... off
 Trust-Rad. Augm. Hess. CNVTRAH         .... auto
   Auto Start mean grad. ratio tolernc. ....  1.125000
   Auto Start start iteration           ....    50
   Auto Start num. interpolation iter.  ....    10
   Max. Number of Micro iterations      ....    24
   Max. Number of Macro iterations      .... Maxiter - #DIIS iter
   Number of Davidson start vectors     ....     2
   Converg. threshold    (grad. norm)   ....   1.000e-05
   Grad. Scal. Fac. for Micro threshold ....   0.100
   Minimum threshold for Micro iter.    ....   1.000e-02
   NR start threshold (gradient norm)   ....   1.000e-04
   Initial trust radius                 ....   0.400
   Minimum AH scaling param. (alpha)    ....   1.000
   Maximum AH scaling param. (alpha)    .... 1000.000
   Quad. conv. algorithm                .... NR
   White noise on init. David. guess    .... on
   Maximum white noise                  ....   0.010
   Pseudo random numbers                .... off
   Inactive MOs                         .... canonical
   Orbital update algorithm             .... Taylor
   Preconditioner                       .... Diag
   Full preconditioner red. dimension   ....   250
 SOSCF                  CNVSOSCF        .... on
   Start iteration      SOSCFMaxIt      ....   150
   Startup grad/error   SOSCFStart      ....  0.003300
   Hessian update       SOSCFHessUp     .... L-BFGS
 Level Shifting         CNVShift        .... on
   Level shift para.    LevelShift      ....    0.2500
   Turn off err/grad.   ShiftErr        ....    0.0010
 Zerner damping         CNVZerner       .... off
 Static damping         CNVDamp         .... on
   Fraction old density DampFac         ....    0.7000
   Max. Damping (<1)    DampMax         ....    0.9800
   Min. Damping (>=0)   DampMin         ....    0.0000
   Turn off err/grad.   DampErr         ....    0.1000

SCF Procedure:
 Maximum # iterations   MaxIter         ....   125
 SCF integral mode      SCFMode         .... Direct
   Integral package                     .... SHARK and LIBINT hybrid scheme
 Reset frequency        DirectResetFreq ....    20
 Integral Threshold     Thresh          ....  2.500e-11 Eh
 Primitive CutOff       TCut            ....  2.500e-12 Eh

Convergence Tolerance:
 Convergence Check Mode ConvCheckMode   .... Total+1el-Energy
 Convergence forced     ConvForced      .... 0
 Energy Change          TolE            ....  1.000e-08 Eh
 1-El. energy change                    ....  1.000e-05 Eh
 Orbital Gradient       TolG            ....  1.000e-05
 Orbital Rotation angle TolX            ....  1.000e-05
 DIIS Error             TolErr          ....  5.000e-07

------------------------------
INITIAL GUESS: MODEL POTENTIAL
------------------------------
Loading Hartree-Fock densities                     ... done
Atomic calculation to generate a density for atom 0 (C  with ECP)
  Multiplicity assumed   :    1
  Atomic configuration   : 1s2 2s2 2p2 
  Number of open shells  : 1
  Command: /home/aspe232/Project/Software/ORCA/6_0_1/build/orca ./output/alpha_amorphene/alpha_amorphene_atom6.inp "" > ./output/alpha_amorphene/alpha_amorphene_atom6.out
Returned from the atomic calculation with res=0
Calculating cut-offs                               ... done
Initializing the effective Hamiltonian             ... done
Setting up the integral package (SHARK)            ... done
Starting the Coulomb interaction                   ... done (   0.1 sec)
Making the grid                                    ... done (   1.0 sec)
Mapping shells                                     ... done
Starting the XC term evaluation                    ... done (   0.1 sec)
  promolecular density results
     # of electrons  =    113.993812840
     EX              =    -55.375084711
     EC              =     -4.558795375
     EX+EC           =    -59.933880086
Transforming the Hamiltonian                       ... done (   0.0 sec)
Diagonalizing the Hamiltonian                      ... done (   0.0 sec)
Back transforming the eigenvectors                 ... done (   0.0 sec)
Now organizing SCF variables                       ... done
                      ------------------
                      INITIAL GUESS DONE (   1.8 sec)
                      ------------------
             **** ENERGY FILE WAS UPDATED (./output/alpha_amorphene/alpha_amorphene.en.tmp) ****
Finished Guess after   2.8 sec
Maximum memory used throughout the entire GUESS-calculation: 34.5 MB


           ************************************************************
           *        Program running with 40 parallel MPI-processes    *
           *              working on a common directory               *
           ************************************************************

-------------------------------------------------------------------------------------------
                                      ORCA LEAN-SCF
                              memory conserving SCF solver
-------------------------------------------------------------------------------------------

----------------------------------------D-I-I-S--------------------------------------------
Iteration    Energy (Eh)           Delta-E    RMSDP     MaxDP     DIISErr   Damp  Time(sec)
-------------------------------------------------------------------------------------------
               ***  Starting incremental Fock matrix formation  ***
    1    -99.1973382798479406     0.00e+00  3.46e-03  7.74e-02  1.80e-01  0.700   8.8
    2    -99.4681618803555239    -2.71e-01  2.54e-03  5.70e-02  1.12e-01  0.700   6.3
                               ***Turning on AO-DIIS***
    3    -99.6097567388299012    -1.42e-01  1.32e-03  3.04e-02  6.11e-02  0.700   5.8
    4    -99.6931088734878585    -8.34e-02  2.86e-03  6.13e-02  3.82e-02  0.000   5.9
    5    -99.8679722663388247    -1.75e-01  2.10e-04  4.28e-03  4.72e-03  0.000   6.2
                              *** Initializing SOSCF ***
---------------------------------------S-O-S-C-F--------------------------------------
Iteration    Energy (Eh)           Delta-E    RMSDP     MaxDP     MaxGrad    Time(sec)
--------------------------------------------------------------------------------------
    6    -99.8684390307439571    -4.67e-04  9.88e-05  1.58e-03  1.38e-03     5.6
               *** Restarting incremental Fock matrix formation ***
    7    -99.8685132486381235    -7.42e-05  5.49e-05  8.29e-04  2.97e-04     8.6
    8    -99.8685264537371040    -1.32e-05  3.13e-05  5.02e-04  1.03e-04     7.3
    9    -99.8685290635928595    -2.61e-06  9.30e-06  1.30e-04  4.07e-05     7.2
   10    -99.8685293464894812    -2.83e-07  2.21e-06  6.19e-05  1.28e-05     7.2
   11    -99.8685293467079873    -2.19e-10  7.99e-07  3.71e-05  8.92e-06     6.2
                 **** Energy Check signals convergence ****

               *****************************************************
               *                     SUCCESS                       *
               *           SCF CONVERGED AFTER  11 CYCLES          *
               *****************************************************

Recomputing exchange energy using gridx3       ... done (    9.808 sec)
Old exchange energy                            :    -15.884604242 Eh
New exchange energy                            :    -15.884602692 Eh
Exchange energy change after final integration :      0.000001549 Eh
Total energy after final integration           :    -99.868527798 Eh
             **** ENERGY FILE WAS UPDATED (./output/alpha_amorphene/alpha_amorphene.en.tmp) ****

----------------
TOTAL SCF ENERGY
----------------

Total Energy       :        -99.86852779750041 Eh           -2717.56080 eV

Components:
Nuclear Repulsion  :        565.63460177474337 Eh           15391.70001 eV
Electronic Energy  :       -665.50313112145136 Eh          -18109.26085 eV
One Electron Energy:      -1270.31759608739139 Eh          -34567.09915 eV
Two Electron Energy:        604.81446496594003 Eh           16457.83829 eV

Virial components:
Potential Energy   :       -177.74657019525117 Eh           -4836.73007 eV
Kinetic Energy     :         77.87804239775076 Eh            2119.16927 eV
Virial Ratio       :          2.28237080340870

DFT components:
N(Alpha)           :       42.000109052161 electrons
N(Beta)            :       42.000109052161 electrons
N(Total)           :       84.000218104321 electrons
E(X)               :      -16.076671888683 Eh       
E(C)               :       -3.136286487452 Eh       
E(XC)              :      -19.212958376134 Eh       

---------------
SCF CONVERGENCE
---------------

  Last Energy change         ...    2.1851e-10  Tolerance :   1.0000e-08
  Last MAX-Density change    ...    3.7077e-05  Tolerance :   1.0000e-07
  Last RMS-Density change    ...    7.9897e-07  Tolerance :   5.0000e-09
  Last DIIS Error            ...    1.3834e-03  Tolerance :   5.0000e-07
  Last Orbital Gradient      ...    8.9248e-06  Tolerance :   1.0000e-05
  Last Orbital Rotation      ...    1.2866e-05  Tolerance :   1.0000e-05


----------------
ORBITAL ENERGIES
----------------

  NO   OCC          E(Eh)            E(eV) 
   0   2.0000      -0.994732       -27.0680 
   1   2.0000      -0.952693       -25.9241 
   2   2.0000      -0.934165       -25.4199 
   3   2.0000      -0.889224       -24.1970 
   4   2.0000      -0.882719       -24.0200 
   5   2.0000      -0.863850       -23.5066 
   6   2.0000      -0.809832       -22.0367 
   7   2.0000      -0.805664       -21.9232 
   8   2.0000      -0.794859       -21.6292 
   9   2.0000      -0.749394       -20.3921 
  10   2.0000      -0.722434       -19.6584 
  11   2.0000      -0.710852       -19.3433 
  12   2.0000      -0.674759       -18.3611 
  13   2.0000      -0.630049       -17.1445 
  14   2.0000      -0.619823       -16.8662 
  15   2.0000      -0.584168       -15.8960 
  16   2.0000      -0.575453       -15.6589 
  17   2.0000      -0.559510       -15.2251 
  18   2.0000      -0.554233       -15.0814 
  19   2.0000      -0.548885       -14.9359 
  20   2.0000      -0.542035       -14.7495 
  21   2.0000      -0.525875       -14.3098 
  22   2.0000      -0.524769       -14.2797 
  23   2.0000      -0.518980       -14.1222 
  24   2.0000      -0.513008       -13.9597 
  25   2.0000      -0.498705       -13.5704 
  26   2.0000      -0.491790       -13.3823 
  27   2.0000      -0.486911       -13.2495 
  28   2.0000      -0.482153       -13.1201 
  29   2.0000      -0.476387       -12.9631 
  30   2.0000      -0.465511       -12.6672 
  31   2.0000      -0.460877       -12.5411 
  32   2.0000      -0.457059       -12.4372 
  33   2.0000      -0.438773       -11.9396 
  34   2.0000      -0.435089       -11.8394 
  35   2.0000      -0.429973       -11.7002 
  36   2.0000      -0.417128       -11.3506 
  37   2.0000      -0.406191       -11.0530 
  38   2.0000      -0.394033       -10.7222 
  39   2.0000      -0.385422       -10.4879 
  40   2.0000      -0.321282        -8.7425 
  41   2.0000      -0.320294        -8.7156 
  42   0.0000       0.079600         2.1660 
  43   0.0000       0.086335         2.3493 
  44   0.0000       0.089966         2.4481 
  45   0.0000       0.095663         2.6031 
  46   0.0000       0.100672         2.7394 
  47   0.0000       0.102038         2.7766 
  48   0.0000       0.112519         3.0618 
  49   0.0000       0.116801         3.1783 
  50   0.0000       0.121052         3.2940 
  51   0.0000       0.126295         3.4367 
  52   0.0000       0.134504         3.6600 
*Only the first 10 virtual orbitals were printed.

                    ********************************
                    * MULLIKEN POPULATION ANALYSIS *
                    ********************************

-----------------------
MULLIKEN ATOMIC CHARGES
-----------------------
   0 C :   -0.098945
   1 C :   -0.062614
   2 C :    0.027620
   3 C :   -0.095017
   4 C :   -0.096451
   5 C :   -0.024430
   6 C :   -0.067698
   7 C :   -0.061879
   8 C :   -0.001079
   9 C :   -0.052003
  10 C :   -0.069363
  11 C :   -0.081585
  12 C :   -0.064768
  13 C :   -0.068774
  14 C :   -0.089940
  15 H :    0.056225
  16 H :    0.053116
  17 H :    0.032684
  18 H :    0.008559
  19 H :    0.050329
  20 H :    0.035999
  21 H :    0.041799
  22 H :    0.037491
  23 H :    0.051030
  24 H :    0.043037
  25 H :    0.009705
  26 H :    0.039823
  27 H :    0.040414
  28 H :    0.034134
  29 H :    0.042249
  30 H :    0.026421
  31 H :    0.031726
  32 H :    0.035952
  33 H :    0.034810
  34 H :    0.033986
  35 H :    0.031348
  36 H :    0.053243
  37 H :    0.051414
  38 H :    0.031431
Sum of atomic charges:   -0.0000000

--------------------------------
MULLIKEN REDUCED ORBITAL CHARGES
--------------------------------
  0 C s       :     0.958470  s :     0.958470
      pz      :     1.051742  p :     3.066605
      px      :     1.027239
      py      :     0.987624
      dz2     :     0.012561  d :     0.073870
      dxz     :     0.006231
      dyz     :     0.022453
      dx2y2   :     0.020113
      dxy     :     0.012512

  1 C s       :     1.084033  s :     1.084033
      pz      :     0.962882  p :     2.859035
      px      :     0.986110
      py      :     0.910043
      dz2     :     0.006273  d :     0.119546
      dxz     :     0.025752
      dyz     :     0.014956
      dx2y2   :     0.033369
      dxy     :     0.039196

  2 C s       :     1.009358  s :     1.009358
      pz      :     0.994908  p :     2.870697
      px      :     0.940800
      py      :     0.934988
      dz2     :     0.006163  d :     0.092326
      dxz     :     0.022545
      dyz     :     0.005235
      dx2y2   :     0.024875
      dxy     :     0.033507

  3 C s       :     1.028229  s :     1.028229
      pz      :     1.029325  p :     2.949480
      px      :     0.957157
      py      :     0.962999
      dz2     :     0.025078  d :     0.117308
      dxz     :     0.024972
      dyz     :     0.016453
      dx2y2   :     0.023053
      dxy     :     0.027752

  4 C s       :     1.026856  s :     1.026856
      pz      :     1.037254  p :     2.948241
      px      :     0.954532
      py      :     0.956455
      dz2     :     0.028714  d :     0.121353
      dxz     :     0.020436
      dyz     :     0.016187
      dx2y2   :     0.025461
      dxy     :     0.030554

  5 C s       :     0.998080  s :     0.998080
      pz      :     1.013692  p :     2.925457
      px      :     0.928075
      py      :     0.983690
      dz2     :     0.029471  d :     0.100893
      dxz     :     0.016709
      dyz     :     0.008614
      dx2y2   :     0.018829
      dxy     :     0.027270

  6 C s       :     0.990371  s :     0.990371
      pz      :     1.040029  p :     2.975445
      px      :     1.009860
      py      :     0.925557
      dz2     :     0.019981  d :     0.101882
      dxz     :     0.021120
      dyz     :     0.014913
      dx2y2   :     0.024748
      dxy     :     0.021119

  7 C s       :     1.068195  s :     1.068195
      pz      :     0.970569  p :     2.875243
      px      :     0.999360
      py      :     0.905314
      dz2     :     0.027798  d :     0.118441
      dxz     :     0.014114
      dyz     :     0.027938
      dx2y2   :     0.024371
      dxy     :     0.024220

  8 C s       :     1.012032  s :     1.012032
      pz      :     0.976037  p :     2.897765
      px      :     0.985069
      py      :     0.936659
      dz2     :     0.021317  d :     0.091282
      dxz     :     0.010569
      dyz     :     0.022297
      dx2y2   :     0.014685
      dxy     :     0.022413

  9 C s       :     0.973673  s :     0.973673
      pz      :     0.986457  p :     2.977391
      px      :     1.053607
      py      :     0.937327
      dz2     :     0.012926  d :     0.100939
      dxz     :     0.027919
      dyz     :     0.022490
      dx2y2   :     0.023871
      dxy     :     0.013732

 10 C s       :     1.048327  s :     1.048327
      pz      :     0.986213  p :     2.904771
      px      :     0.900842
      py      :     1.017716
      dz2     :     0.017517  d :     0.116265
      dxz     :     0.028623
      dyz     :     0.027533
      dx2y2   :     0.028637
      dxy     :     0.013955

 11 C s       :     1.059594  s :     1.059594
      pz      :     0.994099  p :     2.900727
      px      :     0.923283
      py      :     0.983345
      dz2     :     0.015101  d :     0.121265
      dxz     :     0.026794
      dyz     :     0.031962
      dx2y2   :     0.029551
      dxy     :     0.017857

 12 C s       :     0.963668  s :     0.963668
      pz      :     1.014451  p :     3.026621
      px      :     1.034530
      py      :     0.977640
      dz2     :     0.004360  d :     0.074479
      dxz     :     0.021536
      dyz     :     0.021269
      dx2y2   :     0.018829
      dxy     :     0.008485

 13 C s       :     0.961675  s :     0.961675
      pz      :     1.014698  p :     3.032677
      px      :     0.988333
      py      :     1.029646
      dz2     :     0.009727  d :     0.074423
      dxz     :     0.017359
      dyz     :     0.019478
      dx2y2   :     0.022532
      dxy     :     0.005326

 14 C s       :     0.956234  s :     0.956234
      pz      :     1.031481  p :     3.059774
      px      :     1.042349
      py      :     0.985944
      dz2     :     0.008178  d :     0.073931
      dxz     :     0.018330
      dyz     :     0.019065
      dx2y2   :     0.016526
      dxy     :     0.011832

 15 H s       :     0.899751  s :     0.899751
      pz      :     0.019800  p :     0.044024
      px      :     0.011052
      py      :     0.013172

 16 H s       :     0.902719  s :     0.902719
      pz      :     0.018017  p :     0.044165
      px      :     0.010477
      py      :     0.015672

 17 H s       :     0.923304  s :     0.923304
      pz      :     0.010463  p :     0.044012
      px      :     0.023331
      py      :     0.010218

 18 H s       :     0.942520  s :     0.942520
      pz      :     0.014018  p :     0.048921
      px      :     0.012630
      py      :     0.022273

 19 H s       :     0.907273  s :     0.907273
      pz      :     0.020865  p :     0.042398
      px      :     0.011452
      py      :     0.010082

 20 H s       :     0.923866  s :     0.923866
      pz      :     0.021635  p :     0.040135
      px      :     0.009963
      py      :     0.008538

 21 H s       :     0.915943  s :     0.915943
      pz      :     0.009643  p :     0.042258
      px      :     0.013055
      py      :     0.019559

 22 H s       :     0.920707  s :     0.920707
      pz      :     0.022720  p :     0.041803
      px      :     0.009967
      py      :     0.009116

 23 H s       :     0.906398  s :     0.906398
      pz      :     0.022176  p :     0.042572
      px      :     0.010095
      py      :     0.010302

 24 H s       :     0.914098  s :     0.914098
      pz      :     0.013831  p :     0.042864
      px      :     0.019077
      py      :     0.009957

 25 H s       :     0.941373  s :     0.941373
      pz      :     0.013418  p :     0.048922
      px      :     0.016506
      py      :     0.018998

 26 H s       :     0.915866  s :     0.915866
      pz      :     0.015644  p :     0.044311
      px      :     0.018745
      py      :     0.009921

 27 H s       :     0.915699  s :     0.915699
      pz      :     0.013506  p :     0.043887
      px      :     0.019526
      py      :     0.010855

 28 H s       :     0.925922  s :     0.925922
      pz      :     0.011975  p :     0.039944
      px      :     0.008389
      py      :     0.019580

 29 H s       :     0.917868  s :     0.917868
      pz      :     0.014885  p :     0.039882
      px      :     0.008496
      py      :     0.016502

 30 H s       :     0.928772  s :     0.928772
      pz      :     0.015917  p :     0.044807
      px      :     0.017391
      py      :     0.011499

 31 H s       :     0.925464  s :     0.925464
      pz      :     0.015164  p :     0.042810
      px      :     0.010171
      py      :     0.017476

 32 H s       :     0.920774  s :     0.920774
      pz      :     0.013854  p :     0.043275
      px      :     0.019504
      py      :     0.009917

 33 H s       :     0.921642  s :     0.921642
      pz      :     0.013084  p :     0.043548
      px      :     0.020189
      py      :     0.010274

 34 H s       :     0.923046  s :     0.923046
      pz      :     0.018198  p :     0.042967
      px      :     0.009618
      py      :     0.015151

 35 H s       :     0.924444  s :     0.924444
      pz      :     0.011676  p :     0.044208
      px      :     0.010506
      py      :     0.022025

 36 H s       :     0.902678  s :     0.902678
      pz      :     0.015833  p :     0.044079
      px      :     0.011205
      py      :     0.017041

 37 H s       :     0.904498  s :     0.904498
      pz      :     0.012360  p :     0.044088
      px      :     0.020520
      py      :     0.011208

 38 H s       :     0.924430  s :     0.924430
      pz      :     0.017761  p :     0.044139
      px      :     0.016389
      py      :     0.009989



                     *******************************
                     * LOEWDIN POPULATION ANALYSIS *
                     *******************************

----------------------
LOEWDIN ATOMIC CHARGES
----------------------
   0 C :   -0.119394
   1 C :   -0.051713
   2 C :   -0.048317
   3 C :   -0.046013
   4 C :   -0.054193
   5 C :   -0.074805
   6 C :   -0.088735
   7 C :   -0.040742
   8 C :   -0.050370
   9 C :   -0.091570
  10 C :   -0.041284
  11 C :   -0.075019
  12 C :   -0.119005
  13 C :   -0.119591
  14 C :   -0.119115
  15 H :    0.054507
  16 H :    0.053863
  17 H :    0.048550
  18 H :    0.037799
  19 H :    0.048054
  20 H :    0.051439
  21 H :    0.050614
  22 H :    0.049132
  23 H :    0.052918
  24 H :    0.051891
  25 H :    0.032674
  26 H :    0.048861
  27 H :    0.047453
  28 H :    0.045144
  29 H :    0.044429
  30 H :    0.040633
  31 H :    0.043911
[...]
 81:   1508.82   0.002309   11.67  0.000478  ( 0.008378 -0.005635 -0.019381)
 82:   1511.48   0.000745    3.77  0.000154  (-0.004454  0.003708 -0.010966)
 83:   1514.87   0.000272    1.37  0.000056  ( 0.003884  0.005341  0.003519)
 84:   1517.71   0.000445    2.25  0.000092  ( 0.006921 -0.006496 -0.001189)
 85:   1520.23   0.001880    9.50  0.000386  (-0.011443 -0.008431 -0.013560)
 86:   1522.56   0.001165    5.89  0.000239  ( 0.008437 -0.012705 -0.002501)
 87:   1523.78   0.001877    9.49  0.000384  ( 0.017019 -0.006653 -0.007106)
 88:   1534.92   0.003543   17.91  0.000720  (-0.004472 -0.005898  0.025800)
 89:   1536.13   0.003421   17.29  0.000695  ( 0.019048 -0.006182 -0.017143)
 90:   1555.10   0.001362    6.88  0.000273  ( 0.007541  0.014442  0.002821)
 91:   1799.33   0.000798    4.03  0.000138  (-0.006328  0.000995 -0.009863)
 92:   1806.08   0.000605    3.06  0.000104  ( 0.009502 -0.001290  0.003539)
 93:   3074.09   0.001978   10.00  0.000201  (-0.005618  0.005020 -0.012001)
 94:   3075.76   0.001385    7.00  0.000141  ( 0.000336  0.011806 -0.001029)
 95:   3076.68   0.009379   47.40  0.000951  (-0.028459  0.000998 -0.011848)
 96:   3090.31   0.004642   23.46  0.000469  (-0.011261 -0.008382 -0.016484)
 97:   3090.90   0.007681   38.81  0.000775  (-0.001186 -0.026710  0.007788)
 98:   3091.92   0.003960   20.01  0.000400  ( 0.009906 -0.013406  0.011039)
 99:   3092.72   0.010046   50.77  0.001014  (-0.027454 -0.015969 -0.002224)
100:   3094.50   0.007676   38.79  0.000774  (-0.018404  0.020756 -0.002140)
101:   3102.66   0.007218   36.48  0.000726  ( 0.006643  0.001633 -0.026061)
102:   3105.47   0.006138   31.02  0.000617  ( 0.002423 -0.018656  0.016214)
103:   3113.49   0.005729   28.95  0.000574  (-0.010348  0.012537  0.017604)
104:   3129.80   0.006008   30.36  0.000599  (-0.018156  0.002791  0.016174)
105:   3166.88   0.002430   12.28  0.000239  (-0.008834  0.000395  0.012697)
106:   3168.53   0.001881    9.50  0.000185  (-0.000466  0.000297 -0.013598)
107:   3169.06   0.006302   31.85  0.000621  (-0.011936  0.013654 -0.017077)
108:   3173.46   0.000458    2.31  0.000045  (-0.006249 -0.002442 -0.000095)
109:   3177.87   0.008932   45.14  0.000877  ( 0.011865  0.010980 -0.024814)
110:   3178.96   0.003112   15.73  0.000306  (-0.016221  0.003741 -0.005332)
111:   3191.87   0.005242   26.49  0.000513  (-0.021563 -0.001026 -0.006819)
112:   3196.99   0.002825   14.28  0.000276  ( 0.003420 -0.014901 -0.006483)
113:   3197.46   0.003076   15.54  0.000300  (-0.000863  0.016924  0.003609)
114:   3201.18   0.002559   12.93  0.000249  (-0.009105 -0.010797 -0.007070)
115:   3203.71   0.004696   23.73  0.000457  ( 0.011845 -0.017434 -0.003634)
116:   3225.21   0.004607   23.28  0.000446  (-0.009007 -0.017844 -0.006799)

* The epsilon (eps) is given for a Dirac delta lineshape.
** The dipole moment derivative (T) already includes vibrational overlap.

The first frequency considered to be a vibration is 6
The total number of vibrations considered is 111


--------------------------
THERMOCHEMISTRY AT 298.15K
--------------------------

Temperature         ...   298.15 K
Pressure            ...     1.00 atm
Total Mass          ...   204.36 AMU
Quasi RRHO          ...     True
Cut-Off Frequency   ...     1.00 cm^-1

Throughout the following assumptions are being made:
  (1) The electronic state is orbitally nondegenerate
  (2) There are no thermally accessible electronically excited states
  (3) Hindered rotations indicated by low frequency modes are not
      treated as such but are treated as vibrations and this may
      cause some error
  (4) All equations used are the standard statistical mechanics
      equations for an ideal gas
  (5) All vibrations are strictly harmonic

freq.      29.51  E(vib)   ...       0.55 
freq.      77.18  E(vib)   ...       0.49 
freq.      92.77  E(vib)   ...       0.47 
freq.     115.41  E(vib)   ...       0.44 
freq.     149.79  E(vib)   ...       0.40 
freq.     187.05  E(vib)   ...       0.36 
freq.     191.15  E(vib)   ...       0.36 
freq.     209.66  E(vib)   ...       0.34 
freq.     236.67  E(vib)   ...       0.32 
freq.     243.05  E(vib)   ...       0.31 
freq.     262.21  E(vib)   ...       0.29 
freq.     271.37  E(vib)   ...       0.29 
freq.     294.36  E(vib)   ...       0.27 
freq.     313.51  E(vib)   ...       0.25 
freq.     347.83  E(vib)   ...       0.23 
freq.     370.51  E(vib)   ...       0.21 
freq.     382.49  E(vib)   ...       0.21 
freq.     415.49  E(vib)   ...       0.18 
freq.     435.21  E(vib)   ...       0.17 
freq.     451.83  E(vib)   ...       0.16 
freq.     488.28  E(vib)   ...       0.15 
freq.     528.53  E(vib)   ...       0.13 
freq.     556.24  E(vib)   ...       0.12 
freq.     574.58  E(vib)   ...       0.11 
freq.     617.31  E(vib)   ...       0.09 
freq.     703.37  E(vib)   ...       0.07 
freq.     754.97  E(vib)   ...       0.06 
freq.     783.84  E(vib)   ...       0.05 
freq.     824.47  E(vib)   ...       0.04 
freq.     842.46  E(vib)   ...       0.04 
freq.     866.39  E(vib)   ...       0.04 
freq.     878.76  E(vib)   ...       0.04 
freq.     925.73  E(vib)   ...       0.03 
freq.     928.95  E(vib)   ...       0.03 
freq.     948.58  E(vib)   ...       0.03 
freq.     959.81  E(vib)   ...       0.03 
freq.     991.74  E(vib)   ...       0.02 
freq.     999.65  E(vib)   ...       0.02 
freq.    1003.01  E(vib)   ...       0.02 
freq.    1023.51  E(vib)   ...       0.02 
freq.    1044.37  E(vib)   ...       0.02 
freq.    1058.56  E(vib)   ...       0.02 
freq.    1061.80  E(vib)   ...       0.02 
freq.    1088.70  E(vib)   ...       0.02 
freq.    1090.17  E(vib)   ...       0.02 
freq.    1100.64  E(vib)   ...       0.02 
freq.    1115.51  E(vib)   ...       0.01 
freq.    1146.44  E(vib)   ...       0.01 
freq.    1165.97  E(vib)   ...       0.01 
freq.    1176.30  E(vib)   ...       0.01 
freq.    1203.00  E(vib)   ...       0.01 
freq.    1208.11  E(vib)   ...       0.01 
freq.    1214.60  E(vib)   ...       0.01 
freq.    1229.11  E(vib)   ...       0.01 
freq.    1241.66  E(vib)   ...       0.01 
freq.    1270.77  E(vib)   ...       0.01 
freq.    1289.72  E(vib)   ...       0.01 
freq.    1308.89  E(vib)   ...       0.01 
freq.    1323.07  E(vib)   ...       0.01 
freq.    1352.14  E(vib)   ...       0.01 
freq.    1364.24  E(vib)   ...       0.01 
freq.    1372.57  E(vib)   ...       0.01 
freq.    1377.06  E(vib)   ...       0.01 
freq.    1391.86  E(vib)   ...       0.00 
freq.    1401.21  E(vib)   ...       0.00 
freq.    1419.22  E(vib)   ...       0.00 
freq.    1422.18  E(vib)   ...       0.00 
freq.    1435.36  E(vib)   ...       0.00 
freq.    1438.61  E(vib)   ...       0.00 
freq.    1442.37  E(vib)   ...       0.00 
freq.    1443.87  E(vib)   ...       0.00 
freq.    1452.74  E(vib)   ...       0.00 
freq.    1456.32  E(vib)   ...       0.00 
freq.    1458.39  E(vib)   ...       0.00 
freq.    1504.64  E(vib)   ...       0.00 
freq.    1508.82  E(vib)   ...       0.00 
freq.    1511.48  E(vib)   ...       0.00 
freq.    1514.87  E(vib)   ...       0.00 
freq.    1517.71  E(vib)   ...       0.00 
freq.    1520.23  E(vib)   ...       0.00 
freq.    1522.56  E(vib)   ...       0.00 
freq.    1523.78  E(vib)   ...       0.00 
freq.    1534.92  E(vib)   ...       0.00 
freq.    1536.13  E(vib)   ...       0.00 
freq.    1555.10  E(vib)   ...       0.00 
freq.    1799.33  E(vib)   ...       0.00 
freq.    1806.08  E(vib)   ...       0.00 
freq.    3074.09  E(vib)   ...       0.00 
freq.    3075.76  E(vib)   ...       0.00 
freq.    3076.68  E(vib)   ...       0.00 
freq.    3090.31  E(vib)   ...       0.00 
freq.    3090.90  E(vib)   ...       0.00 
freq.    3091.92  E(vib)   ...       0.00 
freq.    3092.72  E(vib)   ...       0.00 
freq.    3094.50  E(vib)   ...       0.00 
freq.    3102.66  E(vib)   ...       0.00 
freq.    3105.47  E(vib)   ...       0.00 
freq.    3113.49  E(vib)   ...       0.00 
freq.    3129.80  E(vib)   ...       0.00 
freq.    3166.88  E(vib)   ...       0.00 
freq.    3168.53  E(vib)   ...       0.00 
freq.    3169.06  E(vib)   ...       0.00 
freq.    3173.46  E(vib)   ...       0.00 
freq.    3177.87  E(vib)   ...       0.00 
freq.    3178.96  E(vib)   ...       0.00 
freq.    3191.87  E(vib)   ...       0.00 
freq.    3196.99  E(vib)   ...       0.00 
freq.    3197.46  E(vib)   ...       0.00 
freq.    3201.18  E(vib)   ...       0.00 
freq.    3203.71  E(vib)   ...       0.00 
freq.    3225.21  E(vib)   ...       0.00 

------------
INNER ENERGY
------------

The inner energy is: U= E(el) + E(ZPE) + E(vib) + E(rot) + E(trans)
    E(el)   - is the total energy from the electronic structure calculation
              = E(kin-el) + E(nuc-el) + E(el-el) + E(nuc-nuc)
    E(ZPE)  - the the zero temperature vibrational energy from the frequency calculation
    E(vib)  - the the finite temperature correction to E(ZPE) due to population
              of excited vibrational states
    E(rot)  - is the rotational thermal energy
    E(trans)- is the translational thermal energy

Summary of contributions to the inner energy U:
Electronic energy                ...    -99.94079908 Eh
Zero point energy                ...      0.36584612 Eh     229.57 kcal/mol
Thermal vibrational correction   ...      0.01243251 Eh       7.80 kcal/mol
Thermal rotational correction    ...      0.00141627 Eh       0.89 kcal/mol
Thermal translational correction ...      0.00141627 Eh       0.89 kcal/mol
-----------------------------------------------------------------------
Total thermal energy                    -99.55968791 Eh


Summary of corrections to the electronic energy:
(perhaps to be used in another calculation)
Total thermal correction                  0.01526505 Eh       9.58 kcal/mol
Non-thermal (ZPE) correction              0.36584612 Eh     229.57 kcal/mol
-----------------------------------------------------------------------
Total correction                          0.38111117 Eh     239.15 kcal/mol


--------
ENTHALPY
--------

The enthalpy is H = U + kB*T
                kB is Boltzmann's constant
Total thermal energy              ...    -99.55968791 Eh 
Thermal Enthalpy correction       ...      0.00094421 Eh       0.59 kcal/mol
-----------------------------------------------------------------------
Total Enthalpy                    ...    -99.55874370 Eh


Note: Only C1 symmetry has been detected, increase convergence thresholds 
      if your molecule has a higher symmetry. Symmetry factor of 1.0 is   
      used for the rotational entropy correction. 
 

Note: Rotational entropy computed according to Herzberg 
Infrared and Raman Spectra, Chapter V,1, Van Nostrand Reinhold, 1945 
Point Group:  C1, Symmetry Number:   1  
Rotational constants in cm-1:     0.025390     0.016645     0.011587 

Vibrational entropy computed according to the QRRHO of S. Grimme
Chem.Eur.J. 2012 18 9955 using a reference frequency of 100.0 cm-1


-------
ENTROPY
-------

The entropy contributions are T*S = T*(S(el)+S(vib)+S(rot)+S(trans))
     S(el)   - electronic entropy
     S(vib)  - vibrational entropy
     S(rot)  - rotational entropy
     S(trans)- translational entropy
The entropies will be listed as multiplied by the temperature to get
units of energy

Electronic entropy                ...      0.00000000 Eh      0.00 kcal/mol
Vibrational entropy               ...      0.02120118 Eh     13.30 kcal/mol
Rotational entropy                ...      0.01528302 Eh      9.59 kcal/mol
Translational entropy             ...      0.01988345 Eh     12.48 kcal/mol
-----------------------------------------------------------------------
Final entropy term                ...      0.05636765 Eh     35.37 kcal/mol

In case the symmetry of your molecule has not been determined correctly
or in case you have a reason to use a different symmetry number we print 
out the resulting rotational entropy values for sn=1,12:

 non-linear molecules -----------------------------------
|  sn= 1 | S(rot)=       0.01528302 Eh      9.59 kcal/mol|
|  sn= 2 | S(rot)=       0.01462856 Eh      9.18 kcal/mol|
|  sn= 3 | S(rot)=       0.01424573 Eh      8.94 kcal/mol|
|  sn= 4 | S(rot)=       0.01397411 Eh      8.77 kcal/mol|
|  sn= 5 | S(rot)=       0.01376342 Eh      8.64 kcal/mol|
|  sn= 6 | S(rot)=       0.01359127 Eh      8.53 kcal/mol|
|  sn= 7 | S(rot)=       0.01344573 Eh      8.44 kcal/mol|
|  sn= 8 | S(rot)=       0.01331965 Eh      8.36 kcal/mol|
|  sn= 9 | S(rot)=       0.01320844 Eh      8.29 kcal/mol|
|  sn=10 | S(rot)=       0.01310896 Eh      8.23 kcal/mol|
|  sn=11 | S(rot)=       0.01301897 Eh      8.17 kcal/mol|
|  sn=12 | S(rot)=       0.01293682 Eh      8.12 kcal/mol|
 linear molecules ---------------------------------------
|  Dinfh | S(rot)=       0.00953488 Eh      5.98 kcal/mol|
|  Cinfv | S(rot)=       0.01018933 Eh      6.39 kcal/mol|
 --------------------------------------------------------


-------------------
GIBBS FREE ENERGY
-------------------

The Gibbs free energy is G = H - T*S

Total enthalpy                    ...    -99.55874370 Eh 
Total entropy correction          ...     -0.05636765 Eh    -35.37 kcal/mol
-----------------------------------------------------------------------
Final Gibbs free energy         ...    -99.61511135 Eh

For completeness - the Gibbs free energy minus the electronic energy
G-E(el)                           ...      0.32568773 Eh    204.37 kcal/mol


Maximum memory used throughout the entire PROP-calculation: 241.1 MB

--------------------------------
SUGGESTED CITATIONS FOR THIS RUN
--------------------------------

Below you find a list of papers that are relevant to this ORCA run
We neither can nor want to force you to cite these papers, but we appreciate if you do
You receive ORCA, which is the product of decades of hard work by many enthusiastic individuals, for free
The only thing we kindly ask in return is that you cite our papers,
We deeply appreciate it, if you show your appreciation for ORCA by not just citing the generic ORCA reference.

Please note that relegating all ORCA citations to the supporting information does *not* help us.
SI sections are not indexed - citations you put there will not count into any citation statistics
But we need these citations in order to attract the funding resources that allow us to do what we are doing

Therefore, if you are a happy ORCA user, please consider citing a few of the papers listed below in the main body of your paper

In addition to the list printed below, the program has created the file ./output/alpha_amorphene/alpha_amorphene.bibtex that contains the list in bibtex format
You can import this file easily into all common literature databanks and citation aid programs


List of essential papers. We consider these as the minimum necessary citations

  1. Neese,F.
     Software update: the ORCA program system, version 5.0
     WIRES Comput. Molec. Sci., 2022 12(1)e1606
     doi.org/10.1002/wcms.1606
  2. Mueller,M.; Hansen,A.; Grimme,S.
     wB97X-3c: A composite range-separated hybrid DFT method with a molecule-optimized polarized valence double-zeta basis set
     J. Chem. Phys., 2023 158 014103
     doi.org/10.1063/5.0133026

List of papers to cite with high priority. The work reported in these papers was absolutely
necessary for this run to complete.
Our perspective: the developers of density functionals and basis sets usually get cited in chemistry papers
Good! But without the algorithms to do something with them, the functionals or basis sets would not do anything.
Hence, in our opinion, the algorithm design and method developments papers are equally worthy of getting cited

  1. Neese,F.
     An improvement of the resolution of the identity approximation for the formation of the Coulomb matrix
     J. Comp. Chem., 2003 24(14)1740-1747
     doi.org/10.1002/jcc.10318
  2. Neese,F.; Wennmohs,F.; Hansen,A.; Becker,U.
     Efficient, approximate and parallel Hartree-Fock and hybrid DFT calculations. A 'chain-of-spheres' algorithm for the Hartree-Fock exchange
     Chem. Phys., 2009 356(1-3)98-109
     doi.org/10.1016/j.chemphys.2008.10.036
  3. Bykov,D.; Petrenko,T.; Izsak,R.; Kossmann,S.; Becker,U.; Valeev,E.; Neese,F.
     Efficient implementation of the analytic second derivatives of Hartree-Fock and hybrid DFT energies: a detailed analysis of different approximations
     Molec. Phys., 2015 113 1961-1977
     doi.org/10.1080/00268976.2015.1025114
  4. Helmich-Paris,B.; de Souza,B.; Neese,F.; Izsák,R.
     An improved chain of spheres for exchange algorithm
     J. Chem. Phys., 2021 155 104109
     doi.org/doi: 10.1063/5.0058766.
  5. Neese,F.
     The SHARK Integral Generation and Digestion System
     J. Comp. Chem., 2022  1-16
     doi.org/10.1002/jcc.26942
  6. Caldeweyher,E.; Bannwarth,C.; Grimme,S.
     Extension of the D3 dispersion coefficient model
     J. Chem. Phys., 2017 147 034112
     doi.org/10.1063/1.4993215
  7. Caldeweyher,E.; Ehlert,S.; Hansen,A.; Neugebauer,H.; Spicher,S.; Bannwarth,C.; Grimme,S.
     A generally applicable atomic-charge dependent London dispersion correction
     J. Chem. Phys., 2019 150 154122
     doi.org/10.1063/1.5090222
  8. Caldeweyher,E.; Mewes,J.; Ehlert,S.; Grimme,S.
     Extension and evaluation of the D4 London-dispersion model for periodic systems
     Phys. Chem. Chem. Phys., 2020 22(16)8499-8512
     doi.org/10.1039/D0CP00502A
  9. Wittmann,L.; Gordiy,I.; Friede,M.; Helmich-Paris,B.; Grimme,S.; Hansen,A.; Bursch,M.
     Extension of the D3 and D4 London Dispersion Corrections to the full Actinides Series
     Phys. Chem. Chem. Phys., 2024 26(32)21379-21394
     doi.org/https://doi.org/10.1039/D4CP01514B 

List of suggested additional citations. These are papers that are important in the 'surrounding' of 
of this run, or papers that preceded the highly important papers. If you like your results we are grateful for a citation.

  1. Izsak,R.; Neese,F.
     An overlap fitted chain of spheres exchange method
     J. Chem. Phys., 2011 135 144105
     doi.org/10.1063/1.3646921
  2. Izsak,R.; Hansen,A.; Neese,F.
     The resolution of identity and chain of spheres approximations for the LPNO-CCSD singles Fock term
     Molec. Phys., 2012 110 2413-2417
     doi.org/10.1080/00268976.2012.687466
  3. Neese,F.
     The ORCA program system
     WIRES Comput. Molec. Sci., 2012 2(1)73-78
     doi.org/10.1002/wcms.81
  4. Izsak,R.; Neese,F.; Klopper,W.
     Robust fitting techniques in the chain of spheres approximation to the Fock exchange: The role of the complementary space
     J. Chem. Phys., 2013 139 
     doi.org/10.1063/1.4819264
  5. Neese,F.
     Software update: the ORCA program system, version 4.0
     WIRES Comput. Molec. Sci., 2018 8(1)1-6
     doi.org/10.1002/wcms.1327
  6. Neese,F.; Wennmohs,F.; Becker,U.; Riplinger,C.
     The ORCA quantum chemistry program package
     J. Chem. Phys., 2020 152 Art. No. L224108
     doi.org/10.1063/5.0004608

List of optional additional citations

  1. Neese,F.
     Approximate second-order SCF convergence for spin unrestricted wavefunctions
     Chem. Phys. Lett., 2000 325(1-3)93-98
     doi.org/10.1016/s0009-2614(00)00662-x

Timings for individual modules:

Sum of individual times          ...     2084.235 sec (=  34.737 min)
Startup calculation              ...       94.402 sec (=   1.573 min)   4.5 %
SCF iterations                   ...     1264.802 sec (=  21.080 min)  60.7 %
Property integrals               ...      141.713 sec (=   2.362 min)   6.8 %
SCF Response                     ...       84.133 sec (=   1.402 min)   4.0 %
Property calculations            ...      210.821 sec (=   3.514 min)  10.1 %
SCF Gradient evaluation          ...      287.972 sec (=   4.800 min)  13.8 %
Geometry relaxation              ...        0.391 sec (=   0.007 min)   0.0 %
                             ****ORCA TERMINATED NORMALLY****
TOTAL RUN TIME: 0 days 0 hours 34 minutes 52 seconds 626 msec
