
                                 *****************
                                 * O   R   C   A *
                                 *****************

                                            #,                                       
                                            ###                                      
                                            ####                                     
                                            #####                                    
                                            ######                                   
                                           ########,                                 
                                     ,,################,,,,,                         
                               ,,#################################,,                 
                          ,,##########################################,,             
                       ,#########################################, ''#####,          
                    ,#############################################,,   '####,        
                  ,##################################################,,,,####,       
                ,###########''''           ''''###############################       
              ,#####''   ,,,,##########,,,,          '''####'''          '####       
            ,##' ,,,,###########################,,,                        '##       
           ' ,,###''''                  '''############,,,                           
         ,,##''                                '''############,,,,        ,,,,,,###''
      ,#''                                            '''#######################'''  
     '                                                          ''''####''''         
             ,#######,   #######,   ,#######,      ##                                
            ,#'     '#,  ##    ##  ,#'     '#,    #''#        ,####,   ,####,        
            ##       ##  ##   ,#'  ##            #'  '#       #'       #'  '#        
            ##       ##  #######   ##           ,######,      #####,   #    #        
            '#,     ,#'  ##    ##  '#,     ,#' ,#      #,     #,   #   #,  ,#        
             '#######'   ##     ##  '#######'  #'      '#     '####' # '####'        



                #########################################################
                #                        -***-                          #
                #          Department of theory and spectroscopy        #
                #                                                       #
                #                      Frank Neese                      #
                #                                                       #
                #     Directorship, Architecture, Infrastructure        #
                #                    SHARK, DRIVERS                     #
                #        Core code/Algorithms in most modules           #
                #                                                       #
                #        Max Planck Institute fuer Kohlenforschung      #
                #                Kaiser Wilhelm Platz 1                 #
                #                 D-45470 Muelheim/Ruhr                 #
                #                      Germany                          #
                #                                                       #
                #                  All rights reserved                  #
                #                        -***-                          #
                #########################################################


                         Program Version 6.0.1  -  RELEASE   -


 With contributions from (in alphabetic order):
[Max-Planck-Institut fuer Kohlenforschung]                               
  Daniel Aravena         : Magnetic Suceptibility                        
  Michael Atanasov       : Ab Initio Ligand Field Theory (pilot matlab implementation)
  Alexander A. Auer      : GIAO ZORA, VPT2 properties, NMR spectrum      
  Ute Becker             : All parallelization in ORCA, NUMFREQ, NUMCALC 
  Giovanni Bistoni       : ED, misc. LED, open-shell LED, HFLD           
  Martin Brehm           : Molecular dynamics                            
  Dmytro Bykov           : pre 5.0 version of the SCF Hessian            
  Marcos Casanova-Páez   : Triplet and SCS-CIS(D). UHF-(DLPNO)-IP/EA/STEOM-CCSD. UHF-CVS-IP/STEOM-CCSD   
  Vijay G. Chilkuri      : MRCI spin determinant printing, contributions to CSF-ICE 
  Pauline Colinet        : FMM embedding                                 
  Dipayan Datta          : RHF DLPNO-CCSD density                        
  Achintya Kumar Dutta   : EOM-CC, STEOM-CC                              
  Nicolas Foglia         : Exact transition moments, OPA infrastructure, MCD improvements    
  Dmitry Ganyushin       : Spin-Orbit,Spin-Spin,Magnetic field MRCI      
  Miquel Garcia-Rates    : C-PCM and meta-GGA Hessian, CCSD/C-PCM, Gaussian charge scheme 
  Tiago L. C. Gouveia    : GS-ROHF, GS-ROCIS                             
  Yang Guo               : DLPNO-NEVPT2, F12-NEVPT2, CIM, IAO-localization        
  Andreas Hansen         : Spin unrestricted coupled pair/coupled cluster methods 
  Ingolf Harden          : AUTO-CI MPn and infrastructure                
  Benjamin Helmich-Paris : MC-RPA, TRAH-(SCF,CASSCF), AVAS, COSX integrals, SCF dyn. polar. 
  Lee Huntington         : MR-EOM, pCC                                   
  Robert Izsak           : Overlap fitted RIJCOSX, COSX-SCS-MP3, EOM     
  Riya Kayal             : Wick's Theorem for AUTO-CI, AUTO-CI UHF-CCSDT 
  Emily Kempfer          : AUTO-CI, RHF CISDT and CCSDT                  
  Christian Kollmar      : KDIIS, OOCD, Brueckner-CCSD(T), CCSD density, CASPT2, CASPT2-K, improved NEVPT2 
  Axel Koslowski         : Symmetry handling                             
  Simone Kossmann        : meta-GGA functionals, TD-DFT gradient, OOMP2, (MP2 Hessian; deprecated post 5.0) 
  Lucas Lang             : DCDCAS                                        
  Marvin Lechner         : AUTO-CI (C++ implementation), FIC-MRCC        
  Spencer Leger          : CASSCF response                               
  Dagmar Lenk            : GEPOL surface, SMD, ORCA-2-JSON               
  Dimitrios Liakos       : Extrapolation schemes; Compound Job, initial MDCI parallelization 
  Dimitrios Manganas     : Further ROCIS development; embedding schemes. LFT, Crystal Embedding 
  Dimitrios Pantazis     : SARC Basis sets                               
  Anastasios Papadopoulos: AUTO-CI, single reference methods and gradients 
  Taras Petrenko         : pre 6.0 DFT Hessian and TD-DFT gradient, (ASA, deprecated), ECA, 1-Electron XAS/XES, NRVS 
  Peter Pinski           : DLPNO-MP2, DLPNO-MP2 Gradient                 
  Christoph Reimann      : Effective Core Potentials                     
  Marius Retegan         : Local ZFS, SOC                                
  Christoph Riplinger    : Optimizer, TS searches, QM/MM, DLPNO-CCSD(T), (RO)-DLPNO pert. Triples 
  Michael Roemelt        : Original ROCIS implementation                 
  Masaaki Saitow         : Open-shell DLPNO-CCSD energy and density      
  Barbara Sandhoefer     : DKH picture change effects                    
  Kantharuban Sivalingam : CASSCF convergence/infrastructure, NEVPT2 and variants, FIC-MRCI 
  Bernardo de Souza      : ESD, SOC TD-DFT                               
  Georgi L. Stoychev     : AutoAux, RI-MP2 NMR, DLPNO-MP2 response, X2C  
  Van Anh Tran           : RI-MP2 g-tensors                              
  Willem Van den Heuvel  : Paramagnetic NMR                              
  Zikuan Wang            : NOTCH, Electric field optimization            
  Frank Wennmohs         : Technical directorship and infrastructure     
  Hang Xu                : AUTO-CI-Response properties                   
                                                                         
[FACCTs GmbH]                                                            
  Markus Bursch, Miquel Garcia-Rates, Christoph Riplinger, Bernardo de Souza, Georgi L. Stoychev 
                                                                 
  APM, Basis sets (HGBS, AHGBS, def-TZVP (Ac-Lr), def2-XVPD (La-Lu)), CI-OPT, improved COSX, DLPNO-Multilevel,           
  DOCKER, DRACO, updates on ESD, GOAT, IRC, LR-CPCM, MBIS, meta-GGA TD-DFT gradient, ML-optimized integration grids, 
  MM, NACMEs, nearIR, NEB, NEB-TS, NL-DFT gradient (VV10), 2- and 3-layer-ONIOM, interface openCOSMO-RS, QMMM,   
  Crystal-QMMM, SF, symmetry and pop. for TD-DFT, r2SCAN hybrids, SOLVATOR                                   
                                                                         
[Other institutions]                                                     
  V. Asgeirsson          : NEB                                           
  Christoph Bannwarth    : sTDA-DFT, sTD-DFT, PBEh-3c, B97-3c, D3        
  Sebastian Ehlert       : rSCAN, r2SCAN, r2SCAN-3c, D4, dhf basis sets  
  Marvin Friede          : D4 for Fr, Ra, Ac-Lr                          
  Lars Goerigk           : TD-DFT with DH, B97 family of functionals     
  Stefan Grimme          : VdW corrections, initial TS optimization, DFT functionals, gCP, sTDA/sTD-DF 
  Waldemar Hujo          : DFT-NL                                        
  H. Jonsson             : NEB                                           
  Holger Kruse           : gCP                                           
  Marcel Mueller         : wB97X-3c, vDZP basis set                      
  Hagen Neugebauer       : wr2SCAN                                       
  Tobias Risthaus        : range-separated hybrid DFT                    
  Lukas Wittmann         : regularized MP2, r2SCAN double-hybrids, wr2SCAN        
                                                                         
We gratefully acknowledge several colleagues who have allowed us to      
interface, adapt or use parts of their codes:                            
  Ed Valeev, F. Pavosevic, A. Kumar             : LibInt (2-el integral package), F12 methods 
  Garnet Chan, S. Sharma, J. Yang, R. Olivares  : DMRG                   
  Ulf Ekstrom                                   : XCFun DFT Library      
  Mihaly Kallay                                 : mrcc  (arbitrary order and MRCC methods)
  Frank Weinhold                                : gennbo (NPA and NBO analysis)           
  Simon Mueller                                 : openCOSMO-RS                            
  Christopher J. Cramer and Donald G. Truhlar   : smd solvation model                     
  S Lehtola, MJT Oliveira, MAL Marques          : LibXC Library                           
  Liviu Ungur et al                             : ANISO software                          


 Your calculation uses the libint2 library for the computation of 2-el integrals
 For citations please refer to: http://libint.valeyev.net

 Your ORCA version has been built with support for libXC version: 6.2.2
 For citations please refer to: https://libxc.gitlab.io

 This ORCA versions uses:
   CBLAS   interface :  Fast vector & matrix operations
   LAPACKE interface :  Fast linear algebra routines
   SCALAPACK package :  Parallel linear algebra routines
   Shared memory     :  Shared parallel matrices
   BLAS/LAPACK       :  OpenBLAS 0.3.27  USE64BITINT DYNAMIC_ARCH NO_AFFINITY SkylakeX SINGLE_THREADED
        Core in use  :  SkylakeX
   Copyright (c) 2011-2014, The OpenBLAS Project


Your calculation utilizes the atom-pairwise dispersion correction
based on EEQ partial charges (D4)


================================================================================

cite the ECPs for C  [vDZP-ECP], O  [vDZP-ECP] as follows:
   B-Ne (ecp-2-mwb), Al-Ar (ecp-10-mwb), Ga-Kr (ecp-28-mwb), Y-Cd (ecp-28-mwb), In-Xe (ecp-46-mwb):
     A. Bergner, M. Dolg, W. Küchle, H. Stoll, and H. Preuß, Mol. Phys. 80, 1431 (1993)., T. Leininger, A. Berning, A. Nicklass, H. Stoll, H.-J. Werner, and H.-J.Flad, Chem. Phys. 217, 19 (1997).
   Na-Mg, K-Ca, Rb-Sr, Cs-Ba (CRENBL):
     L. Fernandez Pacios and P. A. Christiansen, J. Chem. Phys. 82, 2664 (1985)., M. M. Hurley, L. F. Pacios, P. A. Christiansen, R. B. Ross, and W. C. Ermler, J. Chem. Phys. 84, 6840 (1986)., L. A. LaJohn, P. A. Christiansen, R. B. Ross, T. Atashroo, and W. C. Ermler, J. Chem. Phys. 87, 2812 (1987)., R. B. Ross, J. M. Powers, T. Atashroo, W. C. Ermler, L. A. LaJohn, and P. A. Christiansen, J. Chem. Phys. 93, 6654 (1990). 
   Sc-Zn (ecp-10-mdf):
     M. Dolg, U. Wedig, H. Stoll, and H. Preuss, J. Chem. Phys. 86, 866 (1986). 
   Y-Cd (ecp-28-mwb), Hf-Hg (ecp-60-mwb):
     D. Andrae, U. Häußermann, M. Dolg, H. Stoll, and H. Preuß, Theor. Chim. Acta 77, 123 (1990). 
   La (ecp-46-mwb):
     M. Dolg, H. Stoll, and H. Preuss, J. Chem. Phys. 90, 1730 (1989)., M. Dolg, H. Stoll, and H. Preuss, Theor. Chim. Acta 85, 441 (1993).
   Ce-Lu (SBKJC-ecp):
     T. R. Cundari and W. J. Stevens, J. Chem. Phys. 98, 5555 (1993).
   Tl-Rn (ecp-78-mwb):
     W. Küchle, M. Dolg, H. Stoll, and H. Preuss, Mol. Phys. 74, 1245 (1991).

ECP parameters for C  [vDZP-ECP], O  [vDZP-ECP] have been obtained from:
MM, AH, SG, J. Chem. Phys. 158, 014103 (2023), 10.1063/5.0133026

----- Orbital basis set information -----
Your calculation utilizes the basis: vDZP
   Marcel Mueller, Andreas Hansen, Stefan Grimme 
   J. Chem. Phys. 158, 014103 (2023). DOI: 10.1063/5.0133026

----- AuxJ basis set information -----
Your calculation utilizes the auxiliary basis: def2/J
   F. Weigend, Phys. Chem. Chem. Phys. 8, 1057 (2006).

================================================================================
                                        WARNINGS
                       Please study these warnings very carefully!
================================================================================

WARNING: Frozen-Core approximation turned on, but there are no core electrons.
  ===> : Turning off frozen-core approximation


WARNING: Geometry Optimization
  ===> : Switching off AutoStart
         For restart on a previous wavefunction, please use MOREAD

================================================================================
                                       INPUT FILE
================================================================================
NAME = ./output/_z_p_mentha_1_7_8_dien_2_ol/_z_p_mentha_1_7_8_dien_2_ol.inp
|  1> ! wB97X-3c OPT FREQ TightSCF
|  2> %pal
|  3>   nprocs 40
|  4> end
|  5> * xyz 0 1
|  6> C     -2.542309    -0.310575    -0.513925
|  7> C     -1.311775     0.372903     0.101666
|  8> C     -1.786343     1.273395     1.223388
|  9> C     -1.569166     2.592330     1.216093
| 10> C     -0.260816    -0.645161     0.642782
| 11> C      0.211246    -1.683496    -0.402873
| 12> C      1.157632    -1.048378    -1.424840
| 13> C      2.412419    -0.498668    -0.730095
| 14> C      2.091681     0.247849     0.547666
| 15> C      0.933102     0.098555     1.213752
| 16> O      3.092801     0.349508    -1.616825
| 17> H     -3.342942     0.436045    -0.707532
| 18> H     -2.289778    -0.766644    -1.493221
| 19> H     -2.942055    -1.091764     0.167864
| 20> H     -0.841402     0.991689    -0.694407
| 21> H     -2.309682     0.832075     2.067281
| 22> H     -1.042786     3.071732     0.396608
| 23> H     -1.919157     3.203287     2.041681
| 24> H     -0.729755    -1.213943     1.476657
| 25> H      0.753327    -2.500692     0.123416
| 26> H     -0.640920    -2.167375    -0.919931
| 27> H      0.634922    -0.237808    -1.976029
| 28> H      1.459397    -1.815650    -2.170482
| 29> H      3.063145    -1.364141    -0.463873
| 30> H      2.883522     0.826583     1.014226
| 31> H      0.812201     0.616203     2.161028
| 32> H      4.023491     0.432142    -1.280076
| 33> *
| 34> 
| 35>                          ****END OF INPUT****
================================================================================

                       *****************************
                       * Geometry Optimization Run *
                       *****************************

Geometry optimization settings:
Update method            Update   .... BFGS
Choice of coordinates    CoordSys .... (2022) Redundant Internals
Initial Hessian          InHess   .... Almloef's Model
Max. no of cycles        MaxIter  .... 81

Convergence Tolerances:
Energy Change            TolE     ....  5.0000e-06 Eh
Max. Gradient            TolMAXG  ....  3.0000e-04 Eh/bohr
RMS Gradient             TolRMSG  ....  1.0000e-04 Eh/bohr
Max. Displacement        TolMAXD  ....  4.0000e-03 bohr
RMS Displacement         TolRMSD  ....  2.0000e-03 bohr
Strict Convergence                .... False

------------------------------------------------------------------------------
                        ORCA OPTIMIZATION COORDINATE SETUP
------------------------------------------------------------------------------

The optimization will be done in redundant internal coordinates (2022)
Making redundant internal coordinates   ...  (2022 redundants) done
Evaluating the initial hessian          ...  (Almloef) done
Evaluating the coordinates              ...  done
Calculating the B-matrix                .... done
Calculating the G-matrix                .... done
Diagonalizing the G-matrix              .... done
Small eigenvalue found = 1.786e-02
Small eigenvalue found = 2.249e-02
The first mode is                       ....   57
The number of degrees of freedom        ....   75

    -----------------------------------------------------------------
                    Redundant Internal Coordinates


    -----------------------------------------------------------------
         Definition                    Initial Value    Approx d2E/dq
    -----------------------------------------------------------------
      1. B(C   1,C   0)                  1.5363         0.364988   
      2. B(C   2,C   1)                  1.5147         0.395152   
      3. B(C   3,C   2)                  1.3367         0.759889   
      4. B(C   4,C   1)                  1.5601         0.334522   
      5. B(C   5,C   4)                  1.5474         0.350472   
      6. B(C   6,C   5)                  1.5308         0.372439   
      7. B(C   7,C   6)                  1.5360         0.365410   
      8. B(C   8,C   7)                  1.5142         0.395885   
      9. B(C   9,C   8)                  1.3447         0.737877   
     10. B(C   9,C   4)                  1.5181         0.390300   
     11. B(O  10,C   7)                  1.4031         0.533358   
     12. B(H  11,C   0)                  1.1117         0.332474   
     13. B(H  12,C   0)                  1.1094         0.335317   
     14. B(H  13,C   0)                  1.1113         0.333051   
     15. B(H  14,C   1)                  1.1126         0.331410   
     16. B(H  15,C   2)                  1.0866         0.364563   
     17. B(H  16,C   3)                  1.0856         0.366011   
     18. B(H  17,C   3)                  1.0851         0.366693   
     19. B(H  18,C   4)                  1.1130         0.330926   
     20. B(H  19,C   5)                  1.1129         0.330994   
     21. B(H  20,C   5)                  1.1080         0.337052   
     22. B(H  21,C   6)                  1.1109         0.333509   
     23. B(H  22,C   6)                  1.1116         0.332578   
     24. B(H  23,C   7)                  1.1151         0.328427   
     25. B(H  24,C   8)                  1.0861         0.365290   
     26. B(H  25,C   9)                  1.0862         0.365114   
     27. B(H  26,O  10)                  0.9932         0.460284   
     28. A(H  11,C   0,H  13)          108.6565         0.283753   
     29. A(C   1,C   0,H  11)          110.3548         0.318893   
     30. A(C   1,C   0,H  12)          110.7482         0.319336   
     31. A(H  12,C   0,H  13)          109.5402         0.284129   
     32. A(C   1,C   0,H  13)          110.7952         0.318983   
     33. A(H  11,C   0,H  12)          106.6358         0.284052   
     34. A(C   0,C   1,C   4)          112.8451         0.355176   
     35. A(C   2,C   1,H  14)          109.3713         0.322892   
     36. A(C   0,C   1,C   2)          108.0752         0.365402   
     37. A(C   4,C   1,H  14)          109.0452         0.314238   
     38. A(C   2,C   1,C   4)          110.0083         0.360003   
     39. A(C   0,C   1,H  14)          107.4184         0.318726   
     40. A(C   1,C   2,H  15)          118.9837         0.327994   
     41. A(C   1,C   2,C   3)          122.1166         0.415305   
     42. A(C   3,C   2,H  15)          118.8955         0.366117   
     43. A(H  16,C   3,H  17)          118.8239         0.292418   
     44. A(C   2,C   3,H  17)          119.9348         0.366483   
     45. A(C   2,C   3,H  16)          121.2411         0.366366   
     46. A(C   5,C   4,H  18)          106.9721         0.316550   
     47. A(C   1,C   4,H  18)          108.0307         0.314164   
     48. A(C   1,C   4,C   5)          114.1437         0.352742   
     49. A(C   5,C   4,C   9)          110.0582         0.362110   
     50. A(C   1,C   4,C   9)          109.9117         0.359246   
     51. A(C   9,C   4,H  18)          107.4535         0.322162   
     52. A(C   4,C   5,C   6)          111.1820         0.359230   
     53. A(C   6,C   5,H  20)          110.1892         0.320662   
     54. A(H  19,C   5,H  20)          105.9391         0.284083   
     55. A(C   4,C   5,H  20)          111.9479         0.317497   
     56. A(C   6,C   5,H  19)          108.6152         0.319713   
     57. A(C   4,C   5,H  19)          108.7689         0.316560   
     58. A(C   5,C   6,C   7)          110.5824         0.361795   
     59. A(H  21,C   6,H  22)          107.3702         0.283827   
     60. A(C   7,C   6,H  22)          109.1864         0.318969   
     61. A(C   5,C   6,H  22)          109.2234         0.319963   
     62. A(C   7,C   6,H  21)          110.3451         0.319114   
     63. A(C   5,C   6,H  21)          110.0642         0.320109   
     64. A(C   8,C   7,O  10)          109.7545         0.387828   
     65. A(C   6,C   7,O  10)          109.0644         0.382459   
     66. A(O  10,C   7,H  23)          109.7003         0.336753   
     67. A(C   8,C   7,H  23)          107.7461         0.322512   
     68. A(C   6,C   7,H  23)          107.8752         0.318316   
     69. A(C   6,C   7,C   8)          112.6484         0.365590   
     70. A(C   9,C   8,H  24)          118.3283         0.364404   
     71. A(C   7,C   8,C   9)          123.0759         0.413277   
     72. A(C   7,C   8,H  24)          118.0839         0.328202   
     73. A(C   8,C   9,H  25)          118.3565         0.364374   
     74. A(C   4,C   9,C   8)          123.0719         0.412236   
     75. A(C   4,C   9,H  25)          118.2896         0.327408   
     76. A(C   7,O  10,H  26)          106.8833         0.353306   
     77. D(C   2,C   1,C   0,H  13)    -73.0370         0.010668   
     78. D(C   4,C   1,C   0,H  11)    169.2258         0.010668   
     79. D(C   2,C   1,C   0,H  11)     47.3520         0.010668   
     80. D(C   4,C   1,C   0,H  13)     48.8368         0.010668   
     81. D(C   2,C   1,C   0,H  12)    165.1967         0.010668   
     82. D(C   4,C   1,C   0,H  12)    -72.9295         0.010668   
     83. D(C   3,C   2,C   1,C   0)   -119.9482         0.011601   
     84. D(H  15,C   2,C   1,C   0)     60.8084         0.011601   
     85. D(C   3,C   2,C   1,H  14)     -3.2986         0.011601   
     86. D(C   3,C   2,C   1,C   4)    116.4463         0.011601   
     87. D(H  15,C   2,C   1,C   4)    -62.7970         0.011601   
     88. D(H  17,C   3,C   2,C   1)   -179.5954         0.041285   
     89. D(H  16,C   3,C   2,H  15)    179.4636         0.041285   
     90. D(H  17,C   3,C   2,H  15)     -0.3514         0.041285   
     91. D(H  16,C   3,C   2,C   1)      0.2197         0.041285   
     92. D(C   9,C   4,C   1,H  14)     59.8058         0.009088   
     93. D(C   9,C   4,C   1,C   2)    -60.1371         0.009088   
     94. D(C   9,C   4,C   1,C   0)    179.0854         0.009088   
     95. D(C   5,C   4,C   1,H  14)    -64.3963         0.009088   
     96. D(C   5,C   4,C   1,C   2)    175.6608         0.009088   
     97. D(C   5,C   4,C   1,C   0)     54.8833         0.009088   
     98. D(H  19,C   5,C   4,H  18)    -46.9463         0.009894   
     99. D(H  19,C   5,C   4,C   1)   -166.3819         0.009894   
    100. D(C   6,C   5,C   4,H  18)   -166.5009         0.009894   
    101. D(C   6,C   5,C   4,C   9)    -50.0601         0.009894   
    102. D(C   6,C   5,C   4,C   1)     74.0634         0.009894   
    103. D(H  19,C   5,C   4,C   9)     69.4945         0.009894   
    104. D(H  21,C   6,C   5,C   4)    -61.2074         0.011080   
    105. D(C   7,C   6,C   5,H  20)   -174.3097         0.011080   
    106. D(C   7,C   6,C   5,H  19)    -58.6768         0.011080   
    107. D(C   7,C   6,C   5,C   4)     60.9693         0.011080   
    108. D(H  21,C   6,C   5,H  20)     63.5135         0.011080   
    109. D(H  21,C   6,C   5,H  19)    179.1464         0.011080   
    110. D(O  10,C   7,C   6,H  21)    -43.7590         0.010691   
    111. D(O  10,C   7,C   6,C   5)   -165.7709         0.010691   
    112. D(C   8,C   7,C   6,H  22)   -163.8543         0.010691   
    113. D(C   8,C   7,C   6,H  21)     78.3601         0.010691   
    114. D(O  10,C   7,C   6,H  22)     74.0266         0.010691   
    115. D(C   8,C   7,C   6,C   5)    -43.6518         0.010691   
    116. D(H  24,C   8,C   7,O  10)    -47.2829         0.011642   
    117. D(H  24,C   8,C   7,C   6)   -169.0117         0.011642   
    118. D(C   9,C   8,C   7,H  23)    -99.5218         0.011642   
    119. D(C   9,C   8,C   7,O  10)    141.0715         0.011642   
    120. D(C   9,C   8,C   7,C   6)     19.3427         0.011642   
    121. D(H  25,C   9,C   8,H  24)      3.9518         0.038708   
    122. D(H  25,C   9,C   8,C   7)    175.5781         0.038708   
    123. D(C   4,C   9,C   8,H  24)    177.7408         0.038708   
    124. D(C   4,C   9,C   8,C   7)    -10.6328         0.038708   
    125. D(H  25,C   9,C   4,C   5)   -160.6652         0.011332   
    126. D(H  25,C   9,C   4,C   1)     72.7950         0.011332   
    127. D(C   8,C   9,C   4,H  18)    141.6807         0.011332   
    128. D(C   8,C   9,C   4,C   5)     25.5418         0.011332   
    129. D(C   8,C   9,C   4,C   1)   -100.9980         0.011332   
    130. D(H  26,O  10,C   7,H  23)    -42.7884         0.022604   
    131. D(H  26,O  10,C   7,C   8)     75.4136         0.022604   
    132. D(H  26,O  10,C   7,C   6)   -160.7374         0.022604   
    -----------------------------------------------------------------

Number of atoms                         .... 27
Number of degrees of freedom            .... 132


         *************************************************************
         *                GEOMETRY OPTIMIZATION CYCLE   1            *
         *************************************************************
---------------------------------
CARTESIAN COORDINATES (ANGSTROEM)
---------------------------------
  C     -2.542309   -0.310575   -0.513925
  C     -1.311775    0.372903    0.101666
  C     -1.786343    1.273395    1.223388
  C     -1.569166    2.592330    1.216093
  C     -0.260816   -0.645161    0.642782
  C      0.211246   -1.683496   -0.402873
  C      1.157632   -1.048378   -1.424840
  C      2.412419   -0.498668   -0.730095
  C      2.091681    0.247849    0.547666
  C      0.933102    0.098555    1.213752
  O      3.092801    0.349508   -1.616825
  H     -3.342942    0.436045   -0.707532
  H     -2.289778   -0.766644   -1.493221
  H     -2.942055   -1.091764    0.167864
  H     -0.841402    0.991689   -0.694407
  H     -2.309682    0.832075    2.067281
  H     -1.042786    3.071732    0.396608
  H     -1.919157    3.203287    2.041681
  H     -0.729755   -1.213943    1.476657
  H      0.753327   -2.500692    0.123416
  H     -0.640920   -2.167375   -0.919931
  H      0.634922   -0.237808   -1.976029
  H      1.459397   -1.815650   -2.170482
  H      3.063145   -1.364141   -0.463873
  H      2.883522    0.826583    1.014226
  H      0.812201    0.616203    2.161028
  H      4.023491    0.432142   -1.280076

----------------------------
CARTESIAN COORDINATES (A.U.)
----------------------------
  NO LB      ZA    FRAG     MASS         X           Y           Z
   0 C     4.0000*   0    12.011   -4.804268   -0.586902   -0.971178
   1 C     4.0000*   0    12.011   -2.478895    0.704685    0.192121
   2 C     4.0000*   0    12.011   -3.375699    2.406368    2.311868
   3 C     4.0000*   0    12.011   -2.965294    4.898794    2.298083
   4 C     4.0000*   0    12.011   -0.492871   -1.219178    1.214682
   5 C     4.0000*   0    12.011    0.399197   -3.181346   -0.761320
   6 C     4.0000*   0    12.011    2.187607   -1.981147   -2.692557
   7 C     4.0000*   0    12.011    4.558811   -0.942346   -1.379680
   8 C     4.0000*   0    12.011    3.952704    0.468367    1.034939
   9 C     4.0000*   0    12.011    1.763307    0.186242    2.293659
  10 O     6.0000*   0    15.999    5.844547    0.660474   -3.055356
  11 H     1.0000    0     1.008   -6.317245    0.824006   -1.337042
  12 H     1.0000    0     1.008   -4.327053   -1.448747   -2.821779
  13 H     1.0000    0     1.008   -5.559678   -2.063135    0.317217
  14 H     1.0000    0     1.008   -1.590019    1.874021   -1.312239
  15 H     1.0000    0     1.008   -4.364666    1.572394    3.906595
  16 H     1.0000    0     1.008   -1.970580    5.804732    0.749481
  17 H     1.0000    0     1.008   -3.626681    6.053335    3.858218
  18 H     1.0000    0     1.008   -1.379037   -2.294020    2.790477
  19 H     1.0000    0     1.008    1.423582   -4.725623    0.233222
  20 H     1.0000    0     1.008   -1.211163   -4.095745   -1.738418
  21 H     1.0000    0     1.008    1.199829   -0.449392   -3.734154
  22 H     1.0000    0     1.008    2.757861   -3.431081   -4.101617
  23 H     1.0000    0     1.008    5.788505   -2.577853   -0.876593
  24 H     1.0000    0     1.008    5.449067    1.562015    1.916609
  25 H     1.0000    0     1.008    1.534837    1.164455    4.083751
  26 H     1.0000    0     1.008    7.603296    0.816630   -2.418993
* core charge reduced due to ECP

--------------------------------
INTERNAL COORDINATES (ANGSTROEM)
--------------------------------
 C      0   0   0     0.000000000000     0.00000000     0.00000000
 C      1   0   0     1.536329515736     0.00000000     0.00000000
 C      2   1   0     1.514714783044   108.07515935     0.00000000
 C      3   2   1     1.336715601981   122.11659385   240.05179132
 C      2   1   3     1.560056298097   112.84514192   121.87379456
 C      5   2   1     1.547377291773   114.14370695    54.88329363
 C      6   5   2     1.530829149190   111.18202193    74.06344146
 C      7   6   5     1.536015011155   110.58242723    60.96929783
 C      8   7   6     1.514210576193   112.64843105   316.34821545
 C      9   8   7     1.344717277748   123.07594718    19.34274097
 O      8   7   6     1.403072444958   109.06437408   194.22914406
 H      1   2   3     1.111727617512   110.35478306    47.35200097
 H      1   2   3     1.109410426460   110.74821072   165.19674600
 H      1   2   3     1.111255757581   110.79516160   286.96299590
 H      2   1   3     1.112600150213   107.41843107   242.09100262
 H      3   2   1     1.086647342412   118.98370433    60.80844474
 H      4   3   2     1.085567983697   121.24105085     0.21965299
 H      4   3   2     1.085061151122   119.93483095   180.40463752
 H      5   2   1     1.112997872806   108.03072808   296.04649989
 H      6   5   2     1.112942597126   108.76889960   193.61805849
 H      6   5   2     1.108004852679   111.94789213   310.33862272
 H      7   6   5     1.110881984155   110.06418404   298.79256516
 H      7   6   5     1.111643121408   109.22336520   181.14969527
 H      8   7   6     1.115061430635   107.87519634    75.13743328
 H      9   8   7     1.086104712096   118.08386499   190.98834529
 H     10   9   8     1.086235850946   118.35649038   175.57811997
 H     11   8   7     0.993182834657   106.88331816   199.26255774

---------------------------
INTERNAL COORDINATES (A.U.)
---------------------------
 C      0   0   0     0.000000000000     0.00000000     0.00000000
 C      1   0   0     2.903242036201     0.00000000     0.00000000
 C      2   1   0     2.862396110955   108.07515935     0.00000000
 C      3   2   1     2.526026406683   122.11659385   240.05179132
 C      2   1   3     2.948079156903   112.84514192   121.87379456
 C      5   2   1     2.924119307299   114.14370695    54.88329363
 C      6   5   2     2.892847849792   111.18202193    74.06344146
 C      7   6   5     2.902647708675   110.58242723    60.96929783
 C      8   7   6     2.861443298091   112.64843105   316.34821545
 C      9   8   7     2.541147382495   123.07594718    19.34274097
 O      8   7   6     2.651422667022   109.06437408   194.22914406
 H      1   2   3     2.100860732614   110.35478306    47.35200097
 H      1   2   3     2.096481876126   110.74821072   165.19674600
 H      1   2   3     2.099969046572   110.79516160   286.96299590
 H      2   1   3     2.102509580462   107.41843107   242.09100262
 H      3   2   1     2.053465881311   118.98370433    60.80844474
 H      4   3   2     2.051426188941   121.24105085     0.21965299
 H      4   3   2     2.050468414178   119.93483095   180.40463752
 H      5   2   1     2.103261167240   108.03072808   296.04649989
 H      6   5   2     2.103156711344   108.76889960   193.61805849
 H      6   5   2     2.093825726620   111.94789213   310.33862272
 H      7   6   5     2.099262717161   110.06418404   298.79256516
 H      7   6   5     2.100701058118   109.22336520   181.14969527
 H      8   7   6     2.107160726398   107.87519634    75.13743328
 H      9   8   7     2.052440458623   118.08386499   190.98834529
 H     10   9   8     2.052688275135   118.35649038   175.57811997
 H     11   8   7     1.876843558413   106.88331816   199.26255774

---------------------
BASIS SET INFORMATION
---------------------
There are 3 groups of distinct atoms

 Group   1 Type C   : 6s6p2d contracted to 2s2p1d pattern {42/42/2}
 Group   2 Type O   : 6s6p2d contracted to 2s2p1d pattern {42/42/2}
 Group   3 Type H   : 8s2p contracted to 2s1p pattern {53/2}

Atom   0C    basis set group =>   1
Atom   1C    basis set group =>   1
Atom   2C    basis set group =>   1
Atom   3C    basis set group =>   1
Atom   4C    basis set group =>   1
Atom   5C    basis set group =>   1
Atom   6C    basis set group =>   1
Atom   7C    basis set group =>   1
Atom   8C    basis set group =>   1
Atom   9C    basis set group =>   1
Atom  10O    basis set group =>   2
Atom  11H    basis set group =>   3
Atom  12H    basis set group =>   3
Atom  13H    basis set group =>   3
Atom  14H    basis set group =>   3
Atom  15H    basis set group =>   3
Atom  16H    basis set group =>   3
Atom  17H    basis set group =>   3
Atom  18H    basis set group =>   3
Atom  19H    basis set group =>   3
Atom  20H    basis set group =>   3
Atom  21H    basis set group =>   3
Atom  22H    basis set group =>   3
Atom  23H    basis set group =>   3
Atom  24H    basis set group =>   3
Atom  25H    basis set group =>   3
Atom  26H    basis set group =>   3
---------------------------------
AUXILIARY/J BASIS SET INFORMATION
---------------------------------
There are 3 groups of distinct atoms

 Group   1 Type C   : 12s5p4d2f1g contracted to 6s4p3d1f1g pattern {711111/2111/211/2/1}
 Group   2 Type O   : 12s5p4d2f1g contracted to 6s4p3d1f1g pattern {711111/2111/211/2/1}
 Group   3 Type H   : 5s2p1d contracted to 3s1p1d pattern {311/2/1}

Atom   0C    basis set group =>   1
Atom   1C    basis set group =>   1
Atom   2C    basis set group =>   1
Atom   3C    basis set group =>   1
Atom   4C    basis set group =>   1
Atom   5C    basis set group =>   1
Atom   6C    basis set group =>   1
Atom   7C    basis set group =>   1
Atom   8C    basis set group =>   1
Atom   9C    basis set group =>   1
Atom  10O    basis set group =>   2
Atom  11H    basis set group =>   3
Atom  12H    basis set group =>   3
Atom  13H    basis set group =>   3
Atom  14H    basis set group =>   3
Atom  15H    basis set group =>   3
Atom  16H    basis set group =>   3
Atom  17H    basis set group =>   3
Atom  18H    basis set group =>   3
Atom  19H    basis set group =>   3
Atom  20H    basis set group =>   3
Atom  21H    basis set group =>   3
Atom  22H    basis set group =>   3
Atom  23H    basis set group =>   3
Atom  24H    basis set group =>   3
Atom  25H    basis set group =>   3
Atom  26H    basis set group =>   3
-------------------------
ECP PARAMETER INFORMATION
-------------------------

 Group 1, Type C  ECP vDZP-ECP (replacing 2 core electrons, lmax=3)
 Group 2, Type O  ECP vDZP-ECP (replacing 2 core electrons, lmax=3)

Atom   0C    ECP group =>   1
Atom   1C    ECP group =>   1
Atom   2C    ECP group =>   1
Atom   3C    ECP group =>   1
Atom   4C    ECP group =>   1
Atom   5C    ECP group =>   1
Atom   6C    ECP group =>   1
Atom   7C    ECP group =>   1
Atom   8C    ECP group =>   1
Atom   9C    ECP group =>   1
Atom  10O    ECP group =>   2



           ************************************************************
           *        Program running with 40 parallel MPI-processes    *
           *              working on a common directory               *
           ************************************************************
------------------------------------------------------------------------------
                             ORCA STARTUP CALCULATIONS
                           -- RI-GTO INTEGRALS CHOSEN --
------------------------------------------------------------------------------
------------------------------------------------------------------------------
                   ___                                                        
                  /   \      - P O W E R E D   B Y -                         
                 /     \                                                     
                 |  |  |   _    _      __       _____    __    __             
                 |  |  |  | |  | |    /  \     |  _  \  |  |  /  |          
                  \  \/   | |  | |   /    \    | | | |  |  | /  /          
                 / \  \   | |__| |  /  /\  \   | |_| |  |  |/  /          
                |  |  |   |  __  | /  /__\  \  |    /   |      \           
                |  |  |   | |  | | |   __   |  |    \   |  |\   \          
                \     /   | |  | | |  |  |  |  | |\  \  |  | \   \       
                 \___/    |_|  |_| |__|  |__|  |_| \__\ |__|  \__/        
                                                                              
                      - O R C A' S   B I G   F R I E N D -                    
                                      &                                       
                       - I N T E G R A L  F E E D E R -                       
                                                                              
 v1 FN, 2020, v2 2021, v3 2022-2024                                           
------------------------------------------------------------------------------


----------------------
SHARK INTEGRAL PACKAGE
----------------------

Number of atoms                             ...     27
Number of basis functions                   ...    223
Number of shells                            ...    103
Maximum angular momentum                    ...      2
Integral batch strategy                     ... SHARK/LIBINT Hybrid
RI-J (if used) integral strategy            ... SPLIT-RIJ (Revised 2003 algorithm where possible)
Printlevel                                  ...      1
Contraction scheme used                     ... SEGMENTED contraction
Prescreening option                         ... SCHWARTZ
   Thresh                                   ... 2.500e-11
   Tcut                                     ... 2.500e-12
   Tpresel                                  ... 2.500e-12 
Coulomb Range Separation                    ... NOT USED
Exchange Range Separation                   ... Long Range
   Mu parameter                             ... 3.000e-01
   Scaling (regular/separated)              ... 1.670e-01 8.330e-01
Multipole approximations                    ... NOT USED
Finite Nucleus Model                        ... NOT USED
CABS basis                                  ... NOT available
Auxiliary Coulomb fitting basis             ... AVAILABLE
   # of basis functions in Aux-J            ...    715
   # of shells in Aux-J                     ...    245
   Maximum angular momentum in Aux-J        ...      4
Auxiliary J/K fitting basis                 ... NOT available
Auxiliary Correlation fitting basis         ... NOT available
Auxiliary 'external' fitting basis          ... NOT available

Checking pre-screening integrals            ... done (  0.0 sec) Dimension = 103
Check shell pair data                       ... done (  0.0 sec)
Shell pair information
Shell pair cut-off parameter TPreSel        ...   2.5e-12
Total number of shell pairs                 ...      5356
Shell pairs after pre-screening             ...      5351
Total number of primitive shell pairs       ...     49844
Primitive shell pairs kept                  ...     40562
          la=0 lb=0:   1485 shell pairs
          la=1 lb=0:   2051 shell pairs
          la=1 lb=1:    737 shell pairs
          la=2 lb=0:    594 shell pairs
          la=2 lb=1:    418 shell pairs
          la=2 lb=2:     66 shell pairs

Calculating one electron integrals          ... done (  0.0 sec)
Calculating ECP integrals                   ... done (  0.1 sec)
Calculating RI/J V-Matrix + Cholesky decomp.... done (  0.0 sec)
Calculating Nuclear repulsion               ... done (  0.0 sec) ENN=    340.448295195918 Eh

Diagonalization of the overlap matrix:
Smallest eigenvalue                        ... 1.146e-03
Time for diagonalization                   ...    0.007 sec
Threshold for overlap eigenvalues          ... 1.000e-07
Number of eigenvalues below threshold      ... 0
Time for construction of square roots      ...    0.006 sec
Total time needed                          ...    0.016 sec

-------------------
DFT GRID GENERATION
-------------------

General Integration Accuracy     IntAcc      ... 4.388
Radial Grid Type                 RadialGrid  ... OptM3 with GC (2021)
Angular Grid (max. ang.)         AngularGrid ... 4 (Lebedev-302)
Angular grid pruning method      GridPruning ... 4 (adaptive)
Weight generation scheme         WeightScheme... mBecke (2022)
Basis function cutoff            BFCut       ... 1.0000e-11
Integration weight cutoff        WCut        ... 1.0000e-14
Partially contracted basis set               ... off
Rotationally invariant grid construction     ... off
Angular grids for H and He will be reduced by one unit

Total number of grid points                  ...   116721
Total number of batches                      ...     1838
Average number of points per batch           ...       63
Average number of grid points per atom       ...     4323

--------------------
COSX GRID GENERATION
--------------------

GRIDX 1
-------
General Integration Accuracy     IntAcc      ... 3.816
Radial Grid Type                 RadialGrid  ... OptM3 with GC (2021)
Angular Grid (max. ang.)         AngularGrid ... 1 (Lebedev-50)
Angular grid pruning method      GridPruning ... 4 (adaptive)
Weight generation scheme         WeightScheme... mBecke (2022)
Basis function cutoff            BFCut       ... 1.0000e-11
Integration weight cutoff        WCut        ... 1.0000e-14
Partially contracted basis set               ... on
Rotationally invariant grid construction     ... off
Angular grids for H and He will be reduced by one unit

Total number of grid points                  ...    14928
Total number of batches                      ...      134
Average number of points per batch           ...      111
Average number of grid points per atom       ...      553
UseSFitting                                  ... on

GRIDX 2
-------
General Integration Accuracy     IntAcc      ... 4.020
Radial Grid Type                 RadialGrid  ... OptM3 with GC (2021)
Angular Grid (max. ang.)         AngularGrid ... 2 (Lebedev-110)
Angular grid pruning method      GridPruning ... 4 (adaptive)
Weight generation scheme         WeightScheme... mBecke (2022)
Basis function cutoff            BFCut       ... 1.0000e-11
Integration weight cutoff        WCut        ... 1.0000e-14
Partially contracted basis set               ... on
Rotationally invariant grid construction     ... off
Angular grids for H and He will be reduced by one unit

Total number of grid points                  ...    31310
Total number of batches                      ...      260
Average number of points per batch           ...      120
Average number of grid points per atom       ...     1160
UseSFitting                                  ... on

GRIDX 3
-------
General Integration Accuracy     IntAcc      ... 4.338
Radial Grid Type                 RadialGrid  ... OptM3 with GC (2021)
Angular Grid (max. ang.)         AngularGrid ... 3 (Lebedev-194)
Angular grid pruning method      GridPruning ... 4 (adaptive)
Weight generation scheme         WeightScheme... mBecke (2022)
Basis function cutoff            BFCut       ... 1.0000e-11
Integration weight cutoff        WCut        ... 1.0000e-14
Partially contracted basis set               ... on
Rotationally invariant grid construction     ... off
Angular grids for H and He will be reduced by one unit

Total number of grid points                  ...    68162
Total number of batches                      ...      548
Average number of points per batch           ...      124
Average number of grid points per atom       ...     2525
UseSFitting                                  ... on
Initializing property integral containers    ... done (  0.0 sec)

SHARK setup successfully completed in   3.5 seconds

Maximum memory used throughout the entire STARTUP-calculation: 34.5 MB


           ************************************************************
           *        Program running with 40 parallel MPI-processes    *
           *              working on a common directory               *
           ************************************************************
-------------------------------------------------------------------------------
                                 ORCA GUESS
                   Start orbitals & Density for SCF / CASSCF
-------------------------------------------------------------------------------

------------
SCF SETTINGS
------------
Hamiltonian:
 Density Functional     Method          .... DFT(GTOs)
 Exchange Functional    Exchange        .... WB97X-V
 Correlation Functional Correlation     .... WB97X-V
 Gradients option       PostSCFGGA      .... off
 Hybrid DFT is turned on
   Fraction HF Exchange ScalHFX         ....  0.167000
   Scaling of DF-GGA-X  ScalDFX         ....  0.000000
   Scaling of DF-GGA-C  ScalDFC         ....  1.000000
   Scaling of DF-LDA-C  ScalLDAC        ....  1.000000
   Perturbative correction              ....  0.000000
 Long-range corrected/Screened/Range-Separated Hybrid DFT is turned on
   Amount of maximum screened exact exchange              ....  0.833000
   Range separation parameter mu (erf(mu*r12)/r12)        ....  0.300000
   NL short-range parameter             ....  6.000000
   NL long-range parameter              ....  0.010000
 RI-approximation to the Coulomb term is turned on
   Number of AuxJ basis functions       .... 715
   RIJ-COSX (HFX calculated with COS-X)).... on


General Settings:
 Integral files         IntName         .... ./output/_z_p_mentha_1_7_8_dien_2_ol/_z_p_mentha_1_7_8_dien_2_ol
 Hartree-Fock type      HFTyp           .... RHF
 Total Charge           Charge          ....    0
 Multiplicity           Mult            ....    1
 Number of Electrons    NEL             ....   62
 Basis Dimension        Dim             ....  223
 Nuclear Repulsion      ENuc            ....    340.4482951959 Eh

Convergence Acceleration:
 AO-DIIS                CNVDIIS         .... on
   Start iteration      DIISMaxIt       ....    12
   Startup error        DIISStart       ....  0.200000
   # of expansion vecs  DIISMaxEq       ....     5
   Bias factor          DIISBfac        ....   1.050
   Max. coefficient     DIISMaxC        ....  10.000
 MO-DIIS                CNVKDIIS        .... off
 Trust-Rad. Augm. Hess. CNVTRAH         .... auto
   Auto Start mean grad. ratio tolernc. ....  1.125000
   Auto Start start iteration           ....    50
   Auto Start num. interpolation iter.  ....    10
   Max. Number of Micro iterations      ....    24
   Max. Number of Macro iterations      .... Maxiter - #DIIS iter
   Number of Davidson start vectors     ....     2
   Converg. threshold    (grad. norm)   ....   1.000e-05
   Grad. Scal. Fac. for Micro threshold ....   0.100
   Minimum threshold for Micro iter.    ....   1.000e-02
   NR start threshold (gradient norm)   ....   1.000e-04
   Initial trust radius                 ....   0.400
   Minimum AH scaling param. (alpha)    ....   1.000
   Maximum AH scaling param. (alpha)    .... 1000.000
   Quad. conv. algorithm                .... NR
   White noise on init. David. guess    .... on
   Maximum white noise                  ....   0.010
   Pseudo random numbers                .... off
   Inactive MOs                         .... canonical
   Orbital update algorithm             .... Taylor
   Preconditioner                       .... Diag
   Full preconditioner red. dimension   ....   250
 SOSCF                  CNVSOSCF        .... on
   Start iteration      SOSCFMaxIt      ....   150
   Startup grad/error   SOSCFStart      ....  0.003300
   Hessian update       SOSCFHessUp     .... L-BFGS
 Level Shifting         CNVShift        .... on
   Level shift para.    LevelShift      ....    0.2500
   Turn off err/grad.   ShiftErr        ....    0.0010
 Zerner damping         CNVZerner       .... off
 Static damping         CNVDamp         .... on
   Fraction old density DampFac         ....    0.7000
   Max. Damping (<1)    DampMax         ....    0.9800
   Min. Damping (>=0)   DampMin         ....    0.0000
   Turn off err/grad.   DampErr         ....    0.1000

SCF Procedure:
 Maximum # iterations   MaxIter         ....   125
 SCF integral mode      SCFMode         .... Direct
   Integral package                     .... SHARK and LIBINT hybrid scheme
 Reset frequency        DirectResetFreq ....    20
 Integral Threshold     Thresh          ....  2.500e-11 Eh
 Primitive CutOff       TCut            ....  2.500e-12 Eh

Convergence Tolerance:
 Convergence Check Mode ConvCheckMode   .... Total+1el-Energy
 Convergence forced     ConvForced      .... 0
 Energy Change          TolE            ....  1.000e-08 Eh
 1-El. energy change                    ....  1.000e-05 Eh
 Orbital Gradient       TolG            ....  1.000e-05
 Orbital Rotation angle TolX            ....  1.000e-05
 DIIS Error             TolErr          ....  5.000e-07

------------------------------
INITIAL GUESS: MODEL POTENTIAL
------------------------------
Loading Hartree-Fock densities                     ... done
Atomic calculation to generate a density for atom 0 (C  with ECP)
  Multiplicity assumed   :    1
  Atomic configuration   : 1s2 2s2 2p2 
  Number of open shells  : 1
  Command: /home/aspe232/Project/Software/ORCA/6_0_1/build/orca ./output/_z_p_mentha_1_7_8_dien_2_ol/_z_p_mentha_1_7_8_dien_2_ol_atom6.inp "" > ./output/_z_p_mentha_1_7_8_dien_2_ol/_z_p_mentha_1_7_8_dien_2_ol_atom6.out
Returned from the atomic calculation with res=0
Atomic calculation to generate a density for atom 10 (O  with ECP)
  Multiplicity assumed   :    3
  Atomic configuration   : 1s2 2s2 2p4 
  Number of open shells  : 1
  Command: /home/aspe232/Project/Software/ORCA/6_0_1/build/orca ./output/_z_p_mentha_1_7_8_dien_2_ol/_z_p_mentha_1_7_8_dien_2_ol_atom8.inp "" > ./output/_z_p_mentha_1_7_8_dien_2_ol/_z_p_mentha_1_7_8_dien_2_ol_atom8.out
Returned from the atomic calculation with res=0
Calculating cut-offs                               ... done
Initializing the effective Hamiltonian             ... done
Setting up the integral package (SHARK)            ... done
Starting the Coulomb interaction                   ... done (   0.0 sec)
Making the grid                                    ... done (   0.8 sec)
Mapping shells                                     ... done
Starting the XC term evaluation                    ... done (   0.1 sec)
  promolecular density results
     # of electrons  =     83.990329751
     EX              =    -42.618195127
     EC              =     -3.387954196
     EX+EC           =    -46.006149323
Transforming the Hamiltonian                       ... done (   0.0 sec)
Diagonalizing the Hamiltonian                      ... done (   0.0 sec)
Back transforming the eigenvectors                 ... done (   0.0 sec)
Now organizing SCF variables                       ... done
                      ------------------
                      INITIAL GUESS DONE (   2.0 sec)
                      ------------------
             **** ENERGY FILE WAS UPDATED (./output/_z_p_mentha_1_7_8_dien_2_ol/_z_p_mentha_1_7_8_dien_2_ol.en.tmp) ****
Finished Guess after   2.6 sec
Maximum memory used throughout the entire GUESS-calculation: 21.5 MB


           ************************************************************
           *        Program running with 40 parallel MPI-processes    *
           *              working on a common directory               *
           ************************************************************

-------------------------------------------------------------------------------------------
                                      ORCA LEAN-SCF
                              memory conserving SCF solver
-------------------------------------------------------------------------------------------

----------------------------------------D-I-I-S--------------------------------------------
Iteration    Energy (Eh)           Delta-E    RMSDP     MaxDP     DIISErr   Damp  Time(sec)
-------------------------------------------------------------------------------------------
               ***  Starting incremental Fock matrix formation  ***
    1    -82.1479946791529869     0.00e+00  3.74e-03  7.42e-02  2.29e-01  0.700   4.6
    2    -82.3336572698722762    -1.86e-01  2.74e-03  4.97e-02  1.31e-01  0.700   4.6
                               ***Turning on AO-DIIS***
    3    -82.4294983780131361    -9.58e-02  1.42e-03  2.51e-02  6.42e-02  0.700   3.5
    4    -82.4861562848950598    -5.67e-02  3.03e-03  5.27e-02  4.42e-02  0.000   3.2
    5    -82.6058389554829091    -1.20e-01  2.45e-04  4.91e-03  5.23e-03  0.000   3.6
                              *** Initializing SOSCF ***
---------------------------------------S-O-S-C-F--------------------------------------
Iteration    Energy (Eh)           Delta-E    RMSDP     MaxDP     MaxGrad    Time(sec)
--------------------------------------------------------------------------------------
    6    -82.6061437245775778    -3.05e-04  1.12e-04  3.44e-03  2.52e-03     3.3
               *** Restarting incremental Fock matrix formation ***
    7    -82.6061454284518959    -1.70e-06  6.66e-05  1.85e-03  2.40e-04     4.3
    8    -82.6061532851961715    -7.86e-06  3.31e-05  9.93e-04  1.97e-04     4.2
    9    -82.6061564958620806    -3.21e-06  8.30e-06  1.06e-04  2.04e-05     4.0
   10    -82.6061565796609329    -8.38e-08  2.11e-06  3.91e-05  9.18e-06     3.9
   11    -82.6061565822363946    -2.58e-09  6.73e-07  1.51e-05  3.38e-06     3.7
                 **** Energy Check signals convergence ****

               *****************************************************
               *                     SUCCESS                       *
               *           SCF CONVERGED AFTER  11 CYCLES          *
               *****************************************************

Recomputing exchange energy using gridx3       ... done (    4.101 sec)
Old exchange energy                            :    -11.914381577 Eh
New exchange energy                            :    -11.914384055 Eh
Exchange energy change after final integration :     -0.000002477 Eh
Total energy after final integration           :    -82.606159059 Eh
             **** ENERGY FILE WAS UPDATED (./output/_z_p_mentha_1_7_8_dien_2_ol/_z_p_mentha_1_7_8_dien_2_ol.en.tmp) ****

----------------
TOTAL SCF ENERGY
----------------

Total Energy       :        -82.60615905937334 Eh           -2247.82787 eV

Components:
Nuclear Repulsion  :        340.44829519591781 Eh            9264.06909 eV
Electronic Energy  :       -423.05445177815420 Eh          -11511.89689 eV
One Electron Energy:       -799.65945617302270 Eh          -21759.84005 eV
Two Electron Energy:        376.60500439486850 Eh           10247.94316 eV

Virial components:
Potential Energy   :       -147.00001703554241 Eh           -4000.07382 eV
Kinetic Energy     :         64.39385797616907 Eh            1752.24596 eV
Virial Ratio       :          2.28282668030147

DFT components:
N(Alpha)           :       31.000105876518 electrons
N(Beta)            :       31.000105876518 electrons
N(Total)           :       62.000211753036 electrons
E(X)               :      -12.646276237150 Eh       
E(C)               :       -2.335003984570 Eh       
E(XC)              :      -14.981280221720 Eh       

---------------
SCF CONVERGENCE
---------------

  Last Energy change         ...    2.5755e-09  Tolerance :   1.0000e-08
  Last MAX-Density change    ...    1.5072e-05  Tolerance :   1.0000e-07
  Last RMS-Density change    ...    6.7335e-07  Tolerance :   5.0000e-09
  Last DIIS Error            ...    2.5208e-03  Tolerance :   5.0000e-07
  Last Orbital Gradient      ...    3.3773e-06  Tolerance :   1.0000e-05
  Last Orbital Rotation      ...    8.3443e-06  Tolerance :   1.0000e-05


----------------
ORBITAL ENERGIES
----------------

  NO   OCC          E(Eh)            E(eV) 
   0   2.0000      -1.149073       -31.2679 
   1   2.0000      -0.984352       -26.7856 
   2   2.0000      -0.936816       -25.4921 
   3   2.0000      -0.882535       -24.0150 
   4   2.0000      -0.873892       -23.7798 
   5   2.0000      -0.843779       -22.9604 
   6   2.0000      -0.767050       -20.8725 
   7   2.0000      -0.732029       -19.9195 
   8   2.0000      -0.715485       -19.4693 
   9   2.0000      -0.682787       -18.5796 
  10   2.0000      -0.637025       -17.3343 
  11   2.0000      -0.630875       -17.1670 
  12   2.0000      -0.616489       -16.7755 
  13   2.0000      -0.575978       -15.6732 
  14   2.0000      -0.565137       -15.3782 
  15   2.0000      -0.546188       -14.8625 
  16   2.0000      -0.537565       -14.6279 
  17   2.0000      -0.518185       -14.1005 
  18   2.0000      -0.512461       -13.9448 
  19   2.0000      -0.507189       -13.8013 
  20   2.0000      -0.492296       -13.3961 
  21   2.0000      -0.479466       -13.0469 
  22   2.0000      -0.466262       -12.6876 
  23   2.0000      -0.457382       -12.4460 
  24   2.0000      -0.446312       -12.1448 
  25   2.0000      -0.425509       -11.5787 
  26   2.0000      -0.419660       -11.4195 
  27   2.0000      -0.415172       -11.2974 
  28   2.0000      -0.380358       -10.3501 
  29   2.0000      -0.356655        -9.7051 
  30   2.0000      -0.345536        -9.4025 
  31   0.0000       0.071815         1.9542 
  32   0.0000       0.085963         2.3392 
  33   0.0000       0.091138         2.4800 
  34   0.0000       0.094744         2.5781 
  35   0.0000       0.102142         2.7794 
  36   0.0000       0.107369         2.9217 
  37   0.0000       0.112919         3.0727 
  38   0.0000       0.123443         3.3591 
  39   0.0000       0.130388         3.5480 
  40   0.0000       0.141358         3.8465 
  41   0.0000       0.146969         3.9992 
*Only the first 10 virtual orbitals were printed.

                    ********************************
                    * MULLIKEN POPULATION ANALYSIS *
                    ********************************

-----------------------
MULLIKEN ATOMIC CHARGES
-----------------------
   0 C :   -0.072495
   1 C :   -0.082916
   2 C :   -0.032389
   3 C :   -0.032383
   4 C :   -0.117402
   5 C :   -0.046834
   6 C :   -0.039722
   7 C :    0.028523
   8 C :    0.017271
   9 C :   -0.016668
  10 O :   -0.314239
  11 H :    0.052090
  12 H :    0.035771
  13 H :    0.036586
  14 H :    0.041534
  15 H :    0.016139
  16 H :    0.029537
  17 H :    0.025160
  18 H :    0.050093
  19 H :    0.040097
  20 H :    0.037042
  21 H :    0.043165
  22 H :    0.049582
  23 H :    0.039184
  24 H :    0.013508
  25 H :    0.028050
  26 H :    0.171713
Sum of atomic charges:    0.0000000

--------------------------------
MULLIKEN REDUCED ORBITAL CHARGES
--------------------------------
  0 C s       :     0.963721  s :     0.963721
      pz      :     1.021241  p :     3.034875
      px      :     0.984010
      py      :     1.029625
      dz2     :     0.013075  d :     0.073899
      dxz     :     0.011755
      dyz     :     0.018687
      dx2y2   :     0.008962
      dxy     :     0.021419

  1 C s       :     1.045987  s :     1.045987
      pz      :     0.994191  p :     2.913681
      px      :     0.940052
      py      :     0.979437
      dz2     :     0.018418  d :     0.123248
      dxz     :     0.025690
      dyz     :     0.030569
      dx2y2   :     0.019209
      dxy     :     0.029362

  2 C s       :     1.055112  s :     1.055112
      pz      :     0.952740  p :     2.881399
      px      :     0.963912
      py      :     0.964747
      dz2     :     0.014386  d :     0.095878
      dxz     :     0.011468
      dyz     :     0.032159
      dx2y2   :     0.012443
      dxy     :     0.025421

  3 C s       :     1.009368  s :     1.009368
      pz      :     0.993541  p :     2.957509
      px      :     0.979279
      py      :     0.984689
      dz2     :     0.006587  d :     0.065506
      dxz     :     0.005208
      dyz     :     0.028284
      dx2y2   :     0.007868
      dxy     :     0.017559

  4 C s       :     1.021580  s :     1.021580
      pz      :     1.023662  p :     2.973151
      px      :     0.953153
      py      :     0.996336
      dz2     :     0.017091  d :     0.122671
      dxz     :     0.025945
      dyz     :     0.028660
      dx2y2   :     0.020484
      dxy     :     0.030490

  5 C s       :     0.987556  s :     0.987556
      pz      :     0.969811  p :     2.960722
      px      :     1.003115
      py      :     0.987796
      dz2     :     0.014359  d :     0.098556
      dxz     :     0.024324
      dyz     :     0.025310
      dx2y2   :     0.011852
      dxy     :     0.022712

  6 C s       :     1.000763  s :     1.000763
      pz      :     0.987486  p :     2.944964
      px      :     0.927626
      py      :     1.029853
      dz2     :     0.010693  d :     0.093994
      dxz     :     0.021070
      dyz     :     0.027120
      dx2y2   :     0.015295
      dxy     :     0.019816

  7 C s       :     1.060129  s :     1.060129
      pz      :     0.880816  p :     2.734244
      px      :     0.960469
      py      :     0.892960
      dz2     :     0.041278  d :     0.177104
      dxz     :     0.034345
      dyz     :     0.037270
      dx2y2   :     0.026979
      dxy     :     0.037232

  8 C s       :     1.020921  s :     1.020921
      pz      :     0.921873  p :     2.873121
      px      :     0.990481
      py      :     0.960767
      dz2     :     0.018908  d :     0.088687
      dxz     :     0.022721
      dyz     :     0.014767
      dx2y2   :     0.009950
      dxy     :     0.022341

  9 C s       :     1.029219  s :     1.029219
      pz      :     0.964323  p :     2.894030
      px      :     0.975674
      py      :     0.954033
      dz2     :     0.019250  d :     0.093419
      dxz     :     0.020262
      dyz     :     0.014767
      dx2y2   :     0.016787
      dxy     :     0.022353

 10 O s       :     1.657236  s :     1.657236
      pz      :     1.624604  p :     4.624975
      px      :     1.308037
      py      :     1.692334
      dz2     :     0.005259  d :     0.032028
      dxz     :     0.008772
      dyz     :     0.007410
      dx2y2   :     0.007489
      dxy     :     0.003099

 11 H s       :     0.904866  s :     0.904866
      pz      :     0.010107  p :     0.043044
      px      :     0.017158
      py      :     0.015778

 12 H s       :     0.919768  s :     0.919768
      pz      :     0.020667  p :     0.044461
      px      :     0.011003
      py      :     0.012791

 13 H s       :     0.920528  s :     0.920528
      pz      :     0.014601  p :     0.042886
      px      :     0.011544
      py      :     0.016741

 14 H s       :     0.918514  s :     0.918514
      pz      :     0.015930  p :     0.039952
      px      :     0.011124
      py      :     0.012898

 15 H s       :     0.936683  s :     0.936683
      pz      :     0.019593  p :     0.047178
      px      :     0.015538
      py      :     0.012047

 16 H s       :     0.920282  s :     0.920282
      pz      :     0.020386  p :     0.050181
      px      :     0.016969
      py      :     0.012826

 17 H s       :     0.924839  s :     0.924839
      pz      :     0.020057  p :     0.050002
      px      :     0.015221
      py      :     0.014724

 18 H s       :     0.909956  s :     0.909956
      pz      :     0.016405  p :     0.039952
      px      :     0.011345
      py      :     0.012202

 19 H s       :     0.918515  s :     0.918515
      pz      :     0.012611  p :     0.041388
      px      :     0.012908
      py      :     0.015869

 20 H s       :     0.918857  s :     0.918857
      pz      :     0.013048  p :     0.044102
      px      :     0.018790
      py      :     0.012263

 21 H s       :     0.914652  s :     0.914652
      pz      :     0.012591  p :     0.042183
      px      :     0.012217
      py      :     0.017375

 22 H s       :     0.908355  s :     0.908355
      pz      :     0.015713  p :     0.042062
      px      :     0.010577
      py      :     0.015773

 23 H s       :     0.922224  s :     0.922224
      pz      :     0.009484  p :     0.038591
      px      :     0.012049
      py      :     0.017059

 24 H s       :     0.937533  s :     0.937533
      pz      :     0.013748  p :     0.048959
      px      :     0.017865
      py      :     0.017346

 25 H s       :     0.923941  s :     0.923941
      pz      :     0.022295  p :     0.048009
      px      :     0.009886
      py      :     0.015828

 26 H s       :     0.729998  s :     0.729998
      pz      :     0.029548  p :     0.098288
      px      :     0.038845
      py      :     0.029895



                     *******************************
                     * LOEWDIN POPULATION ANALYSIS *
                     *******************************

----------------------
LOEWDIN ATOMIC CHARGES
----------------------
   0 C :   -0.114319
   1 C :   -0.073261
   2 C :   -0.039189
   3 C :   -0.070744
   4 C :   -0.068906
   5 C :   -0.077070
   6 C :   -0.071295
   7 C :   -0.062371
   8 C :   -0.044440
   9 C :   -0.030892
  10 O :   -0.084648
  11 H :    0.052644
  12 H :    0.044030
  13 H :    0.045659
  14 H :    0.053212
  15 H :    0.038734
  16 H :    0.034730
  17 H :    0.033193
  18 H :    0.051146
  19 H :    0.051139
  20 H :    0.047176
  21 H :    0.049824
  22 H :    0.052648
  23 H :    0.045855
  24 H :    0.037298
  25 H :    0.041024
  26 H :    0.058826

-------------------------------
LOEWDIN REDUCED ORBITAL CHARGES
-------------------------------
  0 C s       :     0.779602  s :     0.779602
      pz      :     1.045685  p :     3.091097
      px      :     1.000239
      py      :     1.045173
      dz2     :     0.043600  d :     0.243619
      dxz     :     0.039234
      dyz     :     0.061153
      dx2y2   :     0.029479
      dxy     :     0.070154

  1 C s       :     0.757615  s :     0.757615
      pz      :     0.994413  p :     2.935970
      px      :     0.963080
      py      :     0.978477
      dz2     :     0.057375  d :     0.379676
      dxz     :     0.079845
      dyz     :     0.094003
      dx2y2   :     0.060432
      dxy     :     0.088021

  2 C s       :     0.811263  s :     0.811263
      pz      :     0.975703  p :     2.919688
      px      :     0.896883
      py      :     1.047102
      dz2     :     0.047749  d :     0.308239
      dxz     :     0.036341
      dyz     :     0.106706
      dx2y2   :     0.044812
      dxy     :     0.072630

  3 C s       :     0.833281  s :     0.833281
      pz      :     1.025777  p :     3.019982
      px      :     0.938550
      py      :     1.055655
      dz2     :     0.021809  d :     0.217481
      dxz     :     0.016659
      dyz     :     0.097531
      dx2y2   :     0.031752
      dxy     :     0.049730

  4 C s       :     0.757466  s :     0.757466
      pz      :     0.998846  p :     2.936071
      px      :     0.962032
      py      :     0.975193
      dz2     :     0.053864  d :     0.375369
      dxz     :     0.079521
      dyz     :     0.088966
      dx2y2   :     0.061330
      dxy     :     0.091687

  5 C s       :     0.763324  s :     0.763324
      pz      :     0.984715  p :     2.997782
      px      :     1.013828
      py      :     0.999239
      dz2     :     0.047088  d :     0.315964
      dxz     :     0.075462
      dyz     :     0.081030
      dx2y2   :     0.039165
      dxy     :     0.073220

  6 C s       :     0.766767  s :     0.766767
      pz      :     0.996246  p :     2.997213
      px      :     0.964600
      py      :     1.036368
      dz2     :     0.035104  d :     0.307315
      dxz     :     0.068461
      dyz     :     0.089300
      dx2y2   :     0.049644
      dxy     :     0.064806

  7 C s       :     0.750827  s :     0.750827
      pz      :     0.909666  p :     2.802844
      px      :     0.949669
      py      :     0.943509
      dz2     :     0.112292  d :     0.508700
      dxz     :     0.097950
      dyz     :     0.114512
      dx2y2   :     0.074853
      dxy     :     0.109092

  8 C s       :     0.816880  s :     0.816880
      pz      :     0.966158  p :     2.936238
      px      :     1.038524
      py      :     0.931556
      dz2     :     0.065584  d :     0.291322
      dxz     :     0.080370
      dyz     :     0.043919
      dx2y2   :     0.032335
      dxy     :     0.069114

  9 C s       :     0.809362  s :     0.809362
      pz      :     1.008722  p :     2.919584
      px      :     0.999905
      py      :     0.910956
      dz2     :     0.062409  d :     0.301946
      dxz     :     0.070624
      dyz     :     0.043152
      dx2y2   :     0.057369
      dxy     :     0.068392

 10 O s       :     1.386947  s :     1.386947
      pz      :     1.611143  p :     4.619029
      px      :     1.373372
      py      :     1.634514
      dz2     :     0.013441  d :     0.078672
      dxz     :     0.019274
      dyz     :     0.014174
      dx2y2   :     0.022218
      dxy     :     0.009565

 11 H s       :     0.802309  s :     0.802309
      pz      :     0.040326  p :     0.145046
      px      :     0.053237
      py      :     0.051484

 12 H s       :     0.807225  s :     0.807225
      pz      :     0.060315  p :     0.148746
      px      :     0.041851
      py      :     0.046579

 13 H s       :     0.809401  s :     0.809401
      pz      :     0.048771  p :     0.144940
      px      :     0.042472
      py      :     0.053698

 14 H s       :     0.801846  s :     0.801846
      pz      :     0.053299  p :     0.144942
      px      :     0.043493
      py      :     0.048150

 15 H s       :     0.810829  s :     0.810829
      pz      :     0.060241  p :     0.150437
      px      :     0.049607
      py      :     0.040589

 16 H s       :     0.814103  s :     0.814103
      pz      :     0.059315  p :     0.151167
      px      :     0.051108
      py      :     0.040744

 17 H s       :     0.813878  s :     0.813878
      pz      :     0.059058  p :     0.152929
      px      :     0.047768
      py      :     0.046103

 18 H s       :     0.800436  s :     0.800436
      pz      :     0.058086  p :     0.148419
      px      :     0.043594
      py      :     0.046738

 19 H s       :     0.803145  s :     0.803145
      pz      :     0.045036  p :     0.145717
      px      :     0.046329
      py      :     0.054352

 20 H s       :     0.803159  s :     0.803159
      pz      :     0.045933  p :     0.149664
      px      :     0.058308
      py      :     0.045423

 21 H s       :     0.804078  s :     0.804078
      pz      :     0.046645  p :     0.146098
      px      :     0.043909
      py      :     0.055544

 22 H s       :     0.802628  s :     0.802628
      pz      :     0.053090  p :     0.144725
      px      :     0.039281
      py      :     0.052354

 23 H s       :     0.813778  s :     0.813778
      pz      :     0.036855  p :     0.140367
      px      :     0.046222
      py      :     0.057291

 24 H s       :     0.809415  s :     0.809415
      pz      :     0.045567  p :     0.153287
      px      :     0.055032
      py      :     0.052688

 25 H s       :     0.805962  s :     0.805962
      pz      :     0.064101  p :     0.153014
      px      :     0.037411
      py      :     0.051503

 26 H s       :     0.635679  s :     0.635679
      pz      :     0.094170  p :     0.305495
      px      :     0.126180
      py      :     0.085145



                      *****************************
                      * MAYER POPULATION ANALYSIS *
                      *****************************

  NA   - Mulliken gross atomic population
  ZA   - Total nuclear charge
  QA   - Mulliken gross atomic charge
  VA   - Mayer's total valence
  BVA  - Mayer's bonded valence
  FA   - Mayer's free valence

  ATOM       NA         ZA         QA         VA         BVA        FA
  0 C      4.0725     4.0000    -0.0725     3.9549     3.9549     0.0000
  1 C      4.0829     4.0000    -0.0829     4.0126     4.0126     0.0000
  2 C      4.0324     4.0000    -0.0324     4.0194     4.0194     0.0000
  3 C      4.0324     4.0000    -0.0324     3.9854     3.9854    -0.0000
  4 C      4.1174     4.0000    -0.1174     4.0223     4.0223    -0.0000
  5 C      4.0468     4.0000    -0.0468     3.9683     3.9683     0.0000
  6 C      4.0397     4.0000    -0.0397     3.9339     3.9339     0.0000
  7 C      3.9715     4.0000     0.0285     4.0472     4.0472     0.0000
  8 C      3.9827     4.0000     0.0173     3.9849     3.9849     0.0000
  9 C      4.0167     4.0000    -0.0167     4.0212     4.0212    -0.0000
 10 O      6.3142     6.0000    -0.3142     2.0080     2.0080    -0.0000
 11 H      0.9479     1.0000     0.0521     1.0212     1.0212     0.0000
 12 H      0.9642     1.0000     0.0358     1.0244     1.0244     0.0000
 13 H      0.9634     1.0000     0.0366     1.0278     1.0278     0.0000
 14 H      0.9585     1.0000     0.0415     1.0168     1.0168     0.0000
 15 H      0.9839     1.0000     0.0161     1.0434     1.0434     0.0000
 16 H      0.9705     1.0000     0.0295     1.0410     1.0410    -0.0000
 17 H      0.9748     1.0000     0.0252     1.0395     1.0395     0.0000
 18 H      0.9499     1.0000     0.0501     1.0092     1.0092    -0.0000
 19 H      0.9599     1.0000     0.0401     1.0231     1.0231     0.0000
 20 H      0.9630     1.0000     0.0370     1.0232     1.0232     0.0000
 21 H      0.9568     1.0000     0.0432     1.0327     1.0327     0.0000
 22 H      0.9504     1.0000     0.0496     1.0186     1.0186     0.0000
 23 H      0.9608     1.0000     0.0392     1.0109     1.0109     0.0000
 24 H      0.9865     1.0000     0.0135     1.0461     1.0461     0.0000
 25 H      0.9719     1.0000     0.0281     1.0303     1.0303     0.0000
 26 H      0.8283     1.0000     0.1717     1.0773     1.0773    -0.0000

  Mayer bond orders larger than 0.100000
B(  0-C ,  1-C ) :   0.9934 B(  0-C , 11-H ) :   0.9948 B(  0-C , 12-H ) :   0.9963 
B(  0-C , 13-H ) :   0.9917 B(  1-C ,  2-C ) :   1.0242 B(  1-C ,  4-C ) :   0.9541 
B(  1-C , 14-H ) :   0.9937 B(  2-C ,  3-C ) :   1.9442 B(  2-C , 15-H ) :   1.0036 
B(  3-C , 16-H ) :   0.9981 B(  3-C , 17-H ) :   0.9969 B(  4-C ,  5-C ) :   0.9966 
B(  4-C ,  9-C ) :   1.0379 B(  4-C , 18-H ) :   0.9913 B(  5-C ,  6-C ) :   0.9816 
B(  5-C , 19-H ) :   0.9949 B(  5-C , 20-H ) :   1.0019 B(  6-C ,  7-C ) :   0.9843 
B(  6-C , 21-H ) :   0.9899 B(  6-C , 22-H ) :   1.0018 B(  7-C ,  8-C ) :   1.0160 
B(  7-C , 10-O ) :   0.9724 B(  7-C , 23-H ) :   0.9938 B(  8-C ,  9-C ) :   1.9170 
B(  8-C , 24-H ) :   0.9875 B(  9-C , 25-H ) :   0.9928 B( 10-O , 26-H ) :   1.0448 


-------
TIMINGS
-------

Total SCF time: 0 days 0 hours 0 min 51 sec 

Total time                  ....      51.648 sec
Sum of individual times     ....      49.585 sec  ( 96.0%)

SCF preparation             ....       2.478 sec  (  4.8%)
Fock matrix formation       ....      46.070 sec  ( 89.2%)
  Startup                   ....       0.211 sec  (  0.5% of F)
  Split-RI-J                ....       1.463 sec  (  3.2% of F)
  Chain of spheres X        ....      21.547 sec  ( 46.8% of F)
  XC integration            ....      22.180 sec  ( 48.1% of F)
    XC Preparation          ....       0.000 sec  (  0.0% of XC)
    Basis function eval.    ....       0.490 sec  (  2.2% of XC)
    Density eval.           ....       0.253 sec  (  1.1% of XC)
    XC-Functional eval.     ....       0.149 sec  (  0.7% of XC)
    XC-Potential eval.      ....       0.330 sec  (  1.5% of XC)
Diagonalization             ....       0.000 sec  (  0.0%)
Density matrix formation    ....       0.188 sec  (  0.4%)
Total Energy calculation    ....       0.158 sec  (  0.3%)
Population analysis         ....       0.051 sec  (  0.1%)
Orbital Transformation      ....       0.057 sec  (  0.1%)
Orbital Orthonormalization  ....       0.000 sec  (  0.0%)
DIIS solution               ....       0.354 sec  (  0.7%)
SOSCF solution              ....       0.229 sec  (  0.4%)
Finished LeanSCF after  51.7 sec

Maximum memory used throughout the entire LEANSCF-calculation: 42.2 MB


           ************************************************************
           *        Program running with 40 parallel MPI-processes    *
           *              working on a common directory               *
           ************************************************************

------------------------------------------------------------------------------
                         ORCA PROPERTY INTEGRAL CALCULATIONS
------------------------------------------------------------------------------

GBWName                                   ... ./output/_z_p_mentha_1_7_8_dien_2_ol/_z_p_mentha_1_7_8_dien_2_ol.gbw
Number of atoms                           ...     27
Number of basis functions                 ...    223
Max core memory                           ...   1024 MB

Dipole integrals                          ... YES
Quadrupole integrals                      ...  NO
Linear momentum integrals                 ...  NO
Angular momentum integrals                ...  NO
Higher moments length integrals           ...  NO
Higher moments velocity integrals         ...  NO
Kinetic energy integrals                  ...  NO
GIAO right hand sides                     ...  NO
GIAO dipole derivative integrals          ...  NO
[...]
 25:    764.54   0.005635   28.47  0.002300  ( 0.024013 -0.033413  0.024633)
 26:    851.58   0.000545    2.75  0.000200  ( 0.012186 -0.006970  0.001632)
 27:    876.15   0.001985   10.03  0.000707  ( 0.019822 -0.017616  0.001945)
 28:    903.31   0.000633    3.20  0.000219  (-0.001057  0.001756 -0.014640)
 29:    965.88   0.009632   48.68  0.003112  ( 0.050930 -0.007435  0.021513)
 30:    969.67   0.001039    5.25  0.000334  (-0.001866  0.017565 -0.004712)
 31:    992.04   0.002011   10.16  0.000633  (-0.003319 -0.024244  0.005814)
 32:   1008.66   0.001177    5.95  0.000364  ( 0.002779 -0.012500 -0.014149)
 33:   1021.73   0.001517    7.67  0.000463  ( 0.003988 -0.018999  0.009296)
 34:   1029.16   0.000131    0.66  0.000040  ( 0.003895 -0.003927  0.003015)
 35:   1049.96   0.001437    7.26  0.000427  ( 0.020346  0.001259  0.003392)
 36:   1057.95   0.002128   10.75  0.000628  (-0.014664  0.012621 -0.015918)
 37:   1112.46   0.002499   12.63  0.000701  (-0.010516 -0.019457  0.014560)
 38:   1120.72   0.005426   27.42  0.001511  (-0.025166 -0.019248  0.022517)
 39:   1131.27   0.020245  102.31  0.005585  (-0.056787 -0.019987  0.044277)
 40:   1147.28   0.000851    4.30  0.000232  (-0.001633 -0.012342  0.008753)
 41:   1157.06   0.000032    0.16  0.000009  (-0.001139 -0.001935 -0.001860)
 42:   1197.98   0.000497    2.51  0.000130  ( 0.007278  0.004886 -0.007260)
 43:   1215.72   0.003032   15.32  0.000778  ( 0.007809  0.016681 -0.020953)
 44:   1240.89   0.001209    6.11  0.000304  (-0.012839 -0.005879  0.010234)
 45:   1289.67   0.000523    2.64  0.000126  ( 0.006876 -0.008775  0.001479)
 46:   1301.01   0.001744    8.81  0.000418  ( 0.015058  0.005437 -0.012727)
 47:   1312.91   0.006345   32.06  0.001508  ( 0.014635  0.022147 -0.028345)
 48:   1346.85   0.000273    1.38  0.000063  ( 0.004842  0.004724 -0.004177)
 49:   1356.60   0.000071    0.36  0.000016  ( 0.001737 -0.002557  0.002581)
 50:   1379.68   0.002325   11.75  0.000526  (-0.015949 -0.005595  0.015501)
 51:   1383.22   0.001568    7.93  0.000354  ( 0.014106 -0.004998 -0.011397)
 52:   1401.46   0.000817    4.13  0.000182  ( 0.010167  0.006479 -0.006046)
 53:   1412.69   0.000289    1.46  0.000064  ( 0.006402 -0.003417 -0.003331)
 54:   1427.73   0.001631    8.24  0.000357  ( 0.008799  0.006140 -0.015538)
 55:   1441.45   0.002159   10.91  0.000467  ( 0.019971  0.007949  0.002316)
 56:   1462.63   0.002296   11.60  0.000490  (-0.011249 -0.002350  0.018915)
 57:   1476.08   0.000238    1.20  0.000050  (-0.007006 -0.000995 -0.000437)
 58:   1483.02   0.001291    6.53  0.000272  ( 0.000388  0.016335 -0.002171)
 59:   1519.64   0.002236   11.30  0.000459  (-0.002387 -0.016656  0.013268)
 60:   1524.30   0.001541    7.79  0.000315  ( 0.010974 -0.013880  0.001513)
 61:   1529.68   0.000724    3.66  0.000148  ( 0.003732  0.000000  0.011565)
 62:   1545.97   0.001992   10.07  0.000402  (-0.000439 -0.006556 -0.018944)
 63:   1770.29   0.003035   15.34  0.000535  (-0.003357  0.022546  0.003929)
 64:   1782.38   0.000974    4.92  0.000171  (-0.011929 -0.005317 -0.000125)
 65:   3042.04   0.008608   43.50  0.000883  (-0.015621  0.024055 -0.007774)
 66:   3069.94   0.003494   17.66  0.000355  ( 0.011188  0.003678 -0.014713)
 67:   3099.35   0.003762   19.01  0.000379  (-0.017711 -0.002605 -0.007639)
 68:   3104.45   0.008587   43.39  0.000863  ( 0.006351  0.028097 -0.005777)
 69:   3112.61   0.001274    6.44  0.000128  ( 0.008428  0.007009 -0.002751)
 70:   3121.45   0.005670   28.65  0.000567  (-0.004565 -0.003706  0.023071)
 71:   3176.75   0.004449   22.48  0.000437  (-0.003701  0.018803  0.008354)
 72:   3178.44   0.003867   19.54  0.000380  ( 0.019158  0.001790  0.003070)
 73:   3185.54   0.002169   10.96  0.000212  ( 0.010027  0.007955 -0.006973)
 74:   3188.62   0.004958   25.06  0.000485  (-0.004472  0.012827 -0.017342)
 75:   3207.81   0.004411   22.29  0.000429  (-0.004525  0.013348  0.015181)
 76:   3208.57   0.000194    0.98  0.000019  (-0.003177  0.002885 -0.000641)
 77:   3209.23   0.002606   13.17  0.000253  (-0.015251 -0.004282 -0.001594)
 78:   3246.19   0.002400   12.13  0.000231  ( 0.003764  0.007521  0.012647)
 79:   3302.96   0.001054    5.33  0.000100  ( 0.004603 -0.001982 -0.008629)
 80:   3964.22   0.010891   55.04  0.000857  (-0.028090 -0.007714 -0.002963)

* The epsilon (eps) is given for a Dirac delta lineshape.
** The dipole moment derivative (T) already includes vibrational overlap.

The first frequency considered to be a vibration is 6
The total number of vibrations considered is 75


--------------------------
THERMOCHEMISTRY AT 298.15K
--------------------------

Temperature         ...   298.15 K
Pressure            ...     1.00 atm
Total Mass          ...   152.24 AMU
Quasi RRHO          ...     True
Cut-Off Frequency   ...     1.00 cm^-1

Throughout the following assumptions are being made:
  (1) The electronic state is orbitally nondegenerate
  (2) There are no thermally accessible electronically excited states
  (3) Hindered rotations indicated by low frequency modes are not
      treated as such but are treated as vibrations and this may
      cause some error
  (4) All equations used are the standard statistical mechanics
      equations for an ideal gas
  (5) All vibrations are strictly harmonic

freq.      36.96  E(vib)   ...       0.54 
freq.      54.44  E(vib)   ...       0.52 
freq.      89.08  E(vib)   ...       0.47 
freq.     173.21  E(vib)   ...       0.38 
freq.     197.65  E(vib)   ...       0.35 
freq.     227.87  E(vib)   ...       0.33 
freq.     240.78  E(vib)   ...       0.31 
freq.     287.25  E(vib)   ...       0.27 
freq.     313.85  E(vib)   ...       0.25 
freq.     349.77  E(vib)   ...       0.23 
freq.     360.67  E(vib)   ...       0.22 
freq.     383.33  E(vib)   ...       0.20 
freq.     431.07  E(vib)   ...       0.18 
freq.     466.79  E(vib)   ...       0.16 
freq.     520.19  E(vib)   ...       0.13 
freq.     565.11  E(vib)   ...       0.11 
freq.     609.64  E(vib)   ...       0.10 
freq.     704.34  E(vib)   ...       0.07 
freq.     741.60  E(vib)   ...       0.06 
freq.     764.54  E(vib)   ...       0.06 
freq.     851.58  E(vib)   ...       0.04 
freq.     876.15  E(vib)   ...       0.04 
freq.     903.31  E(vib)   ...       0.03 
freq.     965.88  E(vib)   ...       0.03 
freq.     969.67  E(vib)   ...       0.03 
freq.     992.04  E(vib)   ...       0.02 
freq.    1008.66  E(vib)   ...       0.02 
freq.    1021.73  E(vib)   ...       0.02 
freq.    1029.16  E(vib)   ...       0.02 
freq.    1049.96  E(vib)   ...       0.02 
freq.    1057.95  E(vib)   ...       0.02 
freq.    1112.46  E(vib)   ...       0.01 
freq.    1120.72  E(vib)   ...       0.01 
freq.    1131.27  E(vib)   ...       0.01 
freq.    1147.28  E(vib)   ...       0.01 
freq.    1157.06  E(vib)   ...       0.01 
freq.    1197.98  E(vib)   ...       0.01 
freq.    1215.72  E(vib)   ...       0.01 
freq.    1240.89  E(vib)   ...       0.01 
freq.    1289.67  E(vib)   ...       0.01 
freq.    1301.01  E(vib)   ...       0.01 
freq.    1312.91  E(vib)   ...       0.01 
freq.    1346.85  E(vib)   ...       0.01 
freq.    1356.60  E(vib)   ...       0.01 
freq.    1379.68  E(vib)   ...       0.01 
freq.    1383.22  E(vib)   ...       0.00 
freq.    1401.46  E(vib)   ...       0.00 
freq.    1412.69  E(vib)   ...       0.00 
freq.    1427.73  E(vib)   ...       0.00 
freq.    1441.45  E(vib)   ...       0.00 
freq.    1462.63  E(vib)   ...       0.00 
freq.    1476.08  E(vib)   ...       0.00 
freq.    1483.02  E(vib)   ...       0.00 
freq.    1519.64  E(vib)   ...       0.00 
freq.    1524.30  E(vib)   ...       0.00 
freq.    1529.68  E(vib)   ...       0.00 
freq.    1545.97  E(vib)   ...       0.00 
freq.    1770.29  E(vib)   ...       0.00 
freq.    1782.38  E(vib)   ...       0.00 
freq.    3042.04  E(vib)   ...       0.00 
freq.    3069.94  E(vib)   ...       0.00 
freq.    3099.35  E(vib)   ...       0.00 
freq.    3104.45  E(vib)   ...       0.00 
freq.    3112.61  E(vib)   ...       0.00 
freq.    3121.45  E(vib)   ...       0.00 
freq.    3176.75  E(vib)   ...       0.00 
freq.    3178.44  E(vib)   ...       0.00 
freq.    3185.54  E(vib)   ...       0.00 
freq.    3188.62  E(vib)   ...       0.00 
freq.    3207.81  E(vib)   ...       0.00 
freq.    3208.57  E(vib)   ...       0.00 
freq.    3209.23  E(vib)   ...       0.00 
freq.    3246.19  E(vib)   ...       0.00 
freq.    3302.96  E(vib)   ...       0.00 
freq.    3964.22  E(vib)   ...       0.00 

------------
INNER ENERGY
------------

The inner energy is: U= E(el) + E(ZPE) + E(vib) + E(rot) + E(trans)
    E(el)   - is the total energy from the electronic structure calculation
              = E(kin-el) + E(nuc-el) + E(el-el) + E(nuc-nuc)
    E(ZPE)  - the the zero temperature vibrational energy from the frequency calculation
    E(vib)  - the the finite temperature correction to E(ZPE) due to population
              of excited vibrational states
    E(rot)  - is the rotational thermal energy
    E(trans)- is the translational thermal energy

Summary of contributions to the inner energy U:
Electronic energy                ...    -82.64757433 Eh
Zero point energy                ...      0.24634528 Eh     154.58 kcal/mol
Thermal vibrational correction   ...      0.00862778 Eh       5.41 kcal/mol
Thermal rotational correction    ...      0.00141627 Eh       0.89 kcal/mol
Thermal translational correction ...      0.00141627 Eh       0.89 kcal/mol
-----------------------------------------------------------------------
Total thermal energy                    -82.38976872 Eh


Summary of corrections to the electronic energy:
(perhaps to be used in another calculation)
Total thermal correction                  0.01146033 Eh       7.19 kcal/mol
Non-thermal (ZPE) correction              0.24634528 Eh     154.58 kcal/mol
-----------------------------------------------------------------------
Total correction                          0.25780561 Eh     161.78 kcal/mol


--------
ENTHALPY
--------

The enthalpy is H = U + kB*T
                kB is Boltzmann's constant
Total thermal energy              ...    -82.38976872 Eh 
Thermal Enthalpy correction       ...      0.00094421 Eh       0.59 kcal/mol
-----------------------------------------------------------------------
Total Enthalpy                    ...    -82.38882451 Eh


Note: Only C1 symmetry has been detected, increase convergence thresholds 
      if your molecule has a higher symmetry. Symmetry factor of 1.0 is   
      used for the rotational entropy correction. 
 

Note: Rotational entropy computed according to Herzberg 
Infrared and Raman Spectra, Chapter V,1, Van Nostrand Reinhold, 1945 
Point Group:  C1, Symmetry Number:   1  
Rotational constants in cm-1:     0.060495     0.023638     0.020135 

Vibrational entropy computed according to the QRRHO of S. Grimme
Chem.Eur.J. 2012 18 9955 using a reference frequency of 100.0 cm-1


-------
ENTROPY
-------

The entropy contributions are T*S = T*(S(el)+S(vib)+S(rot)+S(trans))
     S(el)   - electronic entropy
     S(vib)  - vibrational entropy
     S(rot)  - rotational entropy
     S(trans)- translational entropy
The entropies will be listed as multiplied by the temperature to get
units of energy

Electronic entropy                ...      0.00000000 Eh      0.00 kcal/mol
Vibrational entropy               ...      0.01469758 Eh      9.22 kcal/mol
Rotational entropy                ...      0.01444671 Eh      9.07 kcal/mol
Translational entropy             ...      0.01946646 Eh     12.22 kcal/mol
-----------------------------------------------------------------------
Final entropy term                ...      0.04861075 Eh     30.50 kcal/mol

In case the symmetry of your molecule has not been determined correctly
or in case you have a reason to use a different symmetry number we print 
out the resulting rotational entropy values for sn=1,12:

 non-linear molecules -----------------------------------
|  sn= 1 | S(rot)=       0.01444671 Eh      9.07 kcal/mol|
|  sn= 2 | S(rot)=       0.01379225 Eh      8.65 kcal/mol|
|  sn= 3 | S(rot)=       0.01340942 Eh      8.41 kcal/mol|
|  sn= 4 | S(rot)=       0.01313780 Eh      8.24 kcal/mol|
|  sn= 5 | S(rot)=       0.01292711 Eh      8.11 kcal/mol|
|  sn= 6 | S(rot)=       0.01275497 Eh      8.00 kcal/mol|
|  sn= 7 | S(rot)=       0.01260942 Eh      7.91 kcal/mol|
|  sn= 8 | S(rot)=       0.01248334 Eh      7.83 kcal/mol|
|  sn= 9 | S(rot)=       0.01237213 Eh      7.76 kcal/mol|
|  sn=10 | S(rot)=       0.01227265 Eh      7.70 kcal/mol|
|  sn=11 | S(rot)=       0.01218266 Eh      7.64 kcal/mol|
|  sn=12 | S(rot)=       0.01210051 Eh      7.59 kcal/mol|
 linear molecules ---------------------------------------
|  Dinfh | S(rot)=       0.00901313 Eh      5.66 kcal/mol|
|  Cinfv | S(rot)=       0.00966758 Eh      6.07 kcal/mol|
 --------------------------------------------------------


-------------------
GIBBS FREE ENERGY
-------------------

The Gibbs free energy is G = H - T*S

Total enthalpy                    ...    -82.38882451 Eh 
Total entropy correction          ...     -0.04861075 Eh    -30.50 kcal/mol
-----------------------------------------------------------------------
Final Gibbs free energy         ...    -82.43743526 Eh

For completeness - the Gibbs free energy minus the electronic energy
G-E(el)                           ...      0.21013907 Eh    131.86 kcal/mol


Maximum memory used throughout the entire PROP-calculation: 127.7 MB

--------------------------------
SUGGESTED CITATIONS FOR THIS RUN
--------------------------------

Below you find a list of papers that are relevant to this ORCA run
We neither can nor want to force you to cite these papers, but we appreciate if you do
You receive ORCA, which is the product of decades of hard work by many enthusiastic individuals, for free
The only thing we kindly ask in return is that you cite our papers,
We deeply appreciate it, if you show your appreciation for ORCA by not just citing the generic ORCA reference.

Please note that relegating all ORCA citations to the supporting information does *not* help us.
SI sections are not indexed - citations you put there will not count into any citation statistics
But we need these citations in order to attract the funding resources that allow us to do what we are doing

Therefore, if you are a happy ORCA user, please consider citing a few of the papers listed below in the main body of your paper

In addition to the list printed below, the program has created the file ./output/_z_p_mentha_1_7_8_dien_2_ol/_z_p_mentha_1_7_8_dien_2_ol.bibtex that contains the list in bibtex format
You can import this file easily into all common literature databanks and citation aid programs


List of essential papers. We consider these as the minimum necessary citations

  1. Neese,F.
     Software update: the ORCA program system, version 5.0
     WIRES Comput. Molec. Sci., 2022 12(1)e1606
     doi.org/10.1002/wcms.1606
  2. Mueller,M.; Hansen,A.; Grimme,S.
     wB97X-3c: A composite range-separated hybrid DFT method with a molecule-optimized polarized valence double-zeta basis set
     J. Chem. Phys., 2023 158 014103
     doi.org/10.1063/5.0133026

List of papers to cite with high priority. The work reported in these papers was absolutely
necessary for this run to complete.
Our perspective: the developers of density functionals and basis sets usually get cited in chemistry papers
Good! But without the algorithms to do something with them, the functionals or basis sets would not do anything.
Hence, in our opinion, the algorithm design and method developments papers are equally worthy of getting cited

  1. Neese,F.
     An improvement of the resolution of the identity approximation for the formation of the Coulomb matrix
     J. Comp. Chem., 2003 24(14)1740-1747
     doi.org/10.1002/jcc.10318
  2. Neese,F.; Wennmohs,F.; Hansen,A.; Becker,U.
     Efficient, approximate and parallel Hartree-Fock and hybrid DFT calculations. A 'chain-of-spheres' algorithm for the Hartree-Fock exchange
     Chem. Phys., 2009 356(1-3)98-109
     doi.org/10.1016/j.chemphys.2008.10.036
  3. Bykov,D.; Petrenko,T.; Izsak,R.; Kossmann,S.; Becker,U.; Valeev,E.; Neese,F.
     Efficient implementation of the analytic second derivatives of Hartree-Fock and hybrid DFT energies: a detailed analysis of different approximations
     Molec. Phys., 2015 113 1961-1977
     doi.org/10.1080/00268976.2015.1025114
  4. Helmich-Paris,B.; de Souza,B.; Neese,F.; Izsák,R.
     An improved chain of spheres for exchange algorithm
     J. Chem. Phys., 2021 155 104109
     doi.org/doi: 10.1063/5.0058766.
  5. Neese,F.
     The SHARK Integral Generation and Digestion System
     J. Comp. Chem., 2022  1-16
     doi.org/10.1002/jcc.26942
  6. Caldeweyher,E.; Bannwarth,C.; Grimme,S.
     Extension of the D3 dispersion coefficient model
     J. Chem. Phys., 2017 147 034112
     doi.org/10.1063/1.4993215
  7. Caldeweyher,E.; Ehlert,S.; Hansen,A.; Neugebauer,H.; Spicher,S.; Bannwarth,C.; Grimme,S.
     A generally applicable atomic-charge dependent London dispersion correction
     J. Chem. Phys., 2019 150 154122
     doi.org/10.1063/1.5090222
  8. Caldeweyher,E.; Mewes,J.; Ehlert,S.; Grimme,S.
     Extension and evaluation of the D4 London-dispersion model for periodic systems
     Phys. Chem. Chem. Phys., 2020 22(16)8499-8512
     doi.org/10.1039/D0CP00502A
  9. Wittmann,L.; Gordiy,I.; Friede,M.; Helmich-Paris,B.; Grimme,S.; Hansen,A.; Bursch,M.
     Extension of the D3 and D4 London Dispersion Corrections to the full Actinides Series
     Phys. Chem. Chem. Phys., 2024 26(32)21379-21394
     doi.org/https://doi.org/10.1039/D4CP01514B 

List of suggested additional citations. These are papers that are important in the 'surrounding' of 
of this run, or papers that preceded the highly important papers. If you like your results we are grateful for a citation.

  1. Izsak,R.; Neese,F.
     An overlap fitted chain of spheres exchange method
     J. Chem. Phys., 2011 135 144105
     doi.org/10.1063/1.3646921
  2. Izsak,R.; Hansen,A.; Neese,F.
     The resolution of identity and chain of spheres approximations for the LPNO-CCSD singles Fock term
     Molec. Phys., 2012 110 2413-2417
     doi.org/10.1080/00268976.2012.687466
  3. Neese,F.
     The ORCA program system
     WIRES Comput. Molec. Sci., 2012 2(1)73-78
     doi.org/10.1002/wcms.81
  4. Izsak,R.; Neese,F.; Klopper,W.
     Robust fitting techniques in the chain of spheres approximation to the Fock exchange: The role of the complementary space
     J. Chem. Phys., 2013 139 
     doi.org/10.1063/1.4819264
  5. Neese,F.
     Software update: the ORCA program system, version 4.0
     WIRES Comput. Molec. Sci., 2018 8(1)1-6
     doi.org/10.1002/wcms.1327
  6. Neese,F.; Wennmohs,F.; Becker,U.; Riplinger,C.
     The ORCA quantum chemistry program package
     J. Chem. Phys., 2020 152 Art. No. L224108
     doi.org/10.1063/5.0004608

List of optional additional citations

  1. Neese,F.
     Approximate second-order SCF convergence for spin unrestricted wavefunctions
     Chem. Phys. Lett., 2000 325(1-3)93-98
     doi.org/10.1016/s0009-2614(00)00662-x

Timings for individual modules:

Sum of individual times          ...      798.062 sec (=  13.301 min)
Startup calculation              ...       41.764 sec (=   0.696 min)   5.2 %
SCF iterations                   ...      470.806 sec (=   7.847 min)  59.0 %
Property integrals               ...       56.368 sec (=   0.939 min)   7.1 %
SCF Response                     ...       35.711 sec (=   0.595 min)   4.5 %
Property calculations            ...       93.892 sec (=   1.565 min)  11.8 %
SCF Gradient evaluation          ...       99.347 sec (=   1.656 min)  12.4 %
Geometry relaxation              ...        0.173 sec (=   0.003 min)   0.0 %
                             ****ORCA TERMINATED NORMALLY****
TOTAL RUN TIME: 0 days 0 hours 13 minutes 23 seconds 356 msec
