
                                 *****************
                                 * O   R   C   A *
                                 *****************

                                            #,                                       
                                            ###                                      
                                            ####                                     
                                            #####                                    
                                            ######                                   
                                           ########,                                 
                                     ,,################,,,,,                         
                               ,,#################################,,                 
                          ,,##########################################,,             
                       ,#########################################, ''#####,          
                    ,#############################################,,   '####,        
                  ,##################################################,,,,####,       
                ,###########''''           ''''###############################       
              ,#####''   ,,,,##########,,,,          '''####'''          '####       
            ,##' ,,,,###########################,,,                        '##       
           ' ,,###''''                  '''############,,,                           
         ,,##''                                '''############,,,,        ,,,,,,###''
      ,#''                                            '''#######################'''  
     '                                                          ''''####''''         
             ,#######,   #######,   ,#######,      ##                                
            ,#'     '#,  ##    ##  ,#'     '#,    #''#        ,####,   ,####,        
            ##       ##  ##   ,#'  ##            #'  '#       #'       #'  '#        
            ##       ##  #######   ##           ,######,      #####,   #    #        
            '#,     ,#'  ##    ##  '#,     ,#' ,#      #,     #,   #   #,  ,#        
             '#######'   ##     ##  '#######'  #'      '#     '####' # '####'        



                #########################################################
                #                        -***-                          #
                #          Department of theory and spectroscopy        #
                #                                                       #
                #                      Frank Neese                      #
                #                                                       #
                #     Directorship, Architecture, Infrastructure        #
                #                    SHARK, DRIVERS                     #
                #        Core code/Algorithms in most modules           #
                #                                                       #
                #        Max Planck Institute fuer Kohlenforschung      #
                #                Kaiser Wilhelm Platz 1                 #
                #                 D-45470 Muelheim/Ruhr                 #
                #                      Germany                          #
                #                                                       #
                #                  All rights reserved                  #
                #                        -***-                          #
                #########################################################


                         Program Version 6.0.1  -  RELEASE   -


 With contributions from (in alphabetic order):
[Max-Planck-Institut fuer Kohlenforschung]                               
  Daniel Aravena         : Magnetic Suceptibility                        
  Michael Atanasov       : Ab Initio Ligand Field Theory (pilot matlab implementation)
  Alexander A. Auer      : GIAO ZORA, VPT2 properties, NMR spectrum      
  Ute Becker             : All parallelization in ORCA, NUMFREQ, NUMCALC 
  Giovanni Bistoni       : ED, misc. LED, open-shell LED, HFLD           
  Martin Brehm           : Molecular dynamics                            
  Dmytro Bykov           : pre 5.0 version of the SCF Hessian            
  Marcos Casanova-Páez   : Triplet and SCS-CIS(D). UHF-(DLPNO)-IP/EA/STEOM-CCSD. UHF-CVS-IP/STEOM-CCSD   
  Vijay G. Chilkuri      : MRCI spin determinant printing, contributions to CSF-ICE 
  Pauline Colinet        : FMM embedding                                 
  Dipayan Datta          : RHF DLPNO-CCSD density                        
  Achintya Kumar Dutta   : EOM-CC, STEOM-CC                              
  Nicolas Foglia         : Exact transition moments, OPA infrastructure, MCD improvements    
  Dmitry Ganyushin       : Spin-Orbit,Spin-Spin,Magnetic field MRCI      
  Miquel Garcia-Rates    : C-PCM and meta-GGA Hessian, CCSD/C-PCM, Gaussian charge scheme 
  Tiago L. C. Gouveia    : GS-ROHF, GS-ROCIS                             
  Yang Guo               : DLPNO-NEVPT2, F12-NEVPT2, CIM, IAO-localization        
  Andreas Hansen         : Spin unrestricted coupled pair/coupled cluster methods 
  Ingolf Harden          : AUTO-CI MPn and infrastructure                
  Benjamin Helmich-Paris : MC-RPA, TRAH-(SCF,CASSCF), AVAS, COSX integrals, SCF dyn. polar. 
  Lee Huntington         : MR-EOM, pCC                                   
  Robert Izsak           : Overlap fitted RIJCOSX, COSX-SCS-MP3, EOM     
  Riya Kayal             : Wick's Theorem for AUTO-CI, AUTO-CI UHF-CCSDT 
  Emily Kempfer          : AUTO-CI, RHF CISDT and CCSDT                  
  Christian Kollmar      : KDIIS, OOCD, Brueckner-CCSD(T), CCSD density, CASPT2, CASPT2-K, improved NEVPT2 
  Axel Koslowski         : Symmetry handling                             
  Simone Kossmann        : meta-GGA functionals, TD-DFT gradient, OOMP2, (MP2 Hessian; deprecated post 5.0) 
  Lucas Lang             : DCDCAS                                        
  Marvin Lechner         : AUTO-CI (C++ implementation), FIC-MRCC        
  Spencer Leger          : CASSCF response                               
  Dagmar Lenk            : GEPOL surface, SMD, ORCA-2-JSON               
  Dimitrios Liakos       : Extrapolation schemes; Compound Job, initial MDCI parallelization 
  Dimitrios Manganas     : Further ROCIS development; embedding schemes. LFT, Crystal Embedding 
  Dimitrios Pantazis     : SARC Basis sets                               
  Anastasios Papadopoulos: AUTO-CI, single reference methods and gradients 
  Taras Petrenko         : pre 6.0 DFT Hessian and TD-DFT gradient, (ASA, deprecated), ECA, 1-Electron XAS/XES, NRVS 
  Peter Pinski           : DLPNO-MP2, DLPNO-MP2 Gradient                 
  Christoph Reimann      : Effective Core Potentials                     
  Marius Retegan         : Local ZFS, SOC                                
  Christoph Riplinger    : Optimizer, TS searches, QM/MM, DLPNO-CCSD(T), (RO)-DLPNO pert. Triples 
  Michael Roemelt        : Original ROCIS implementation                 
  Masaaki Saitow         : Open-shell DLPNO-CCSD energy and density      
  Barbara Sandhoefer     : DKH picture change effects                    
  Kantharuban Sivalingam : CASSCF convergence/infrastructure, NEVPT2 and variants, FIC-MRCI 
  Bernardo de Souza      : ESD, SOC TD-DFT                               
  Georgi L. Stoychev     : AutoAux, RI-MP2 NMR, DLPNO-MP2 response, X2C  
  Van Anh Tran           : RI-MP2 g-tensors                              
  Willem Van den Heuvel  : Paramagnetic NMR                              
  Zikuan Wang            : NOTCH, Electric field optimization            
  Frank Wennmohs         : Technical directorship and infrastructure     
  Hang Xu                : AUTO-CI-Response properties                   
                                                                         
[FACCTs GmbH]                                                            
  Markus Bursch, Miquel Garcia-Rates, Christoph Riplinger, Bernardo de Souza, Georgi L. Stoychev 
                                                                 
  APM, Basis sets (HGBS, AHGBS, def-TZVP (Ac-Lr), def2-XVPD (La-Lu)), CI-OPT, improved COSX, DLPNO-Multilevel,           
  DOCKER, DRACO, updates on ESD, GOAT, IRC, LR-CPCM, MBIS, meta-GGA TD-DFT gradient, ML-optimized integration grids, 
  MM, NACMEs, nearIR, NEB, NEB-TS, NL-DFT gradient (VV10), 2- and 3-layer-ONIOM, interface openCOSMO-RS, QMMM,   
  Crystal-QMMM, SF, symmetry and pop. for TD-DFT, r2SCAN hybrids, SOLVATOR                                   
                                                                         
[Other institutions]                                                     
  V. Asgeirsson          : NEB                                           
  Christoph Bannwarth    : sTDA-DFT, sTD-DFT, PBEh-3c, B97-3c, D3        
  Sebastian Ehlert       : rSCAN, r2SCAN, r2SCAN-3c, D4, dhf basis sets  
  Marvin Friede          : D4 for Fr, Ra, Ac-Lr                          
  Lars Goerigk           : TD-DFT with DH, B97 family of functionals     
  Stefan Grimme          : VdW corrections, initial TS optimization, DFT functionals, gCP, sTDA/sTD-DF 
  Waldemar Hujo          : DFT-NL                                        
  H. Jonsson             : NEB                                           
  Holger Kruse           : gCP                                           
  Marcel Mueller         : wB97X-3c, vDZP basis set                      
  Hagen Neugebauer       : wr2SCAN                                       
  Tobias Risthaus        : range-separated hybrid DFT                    
  Lukas Wittmann         : regularized MP2, r2SCAN double-hybrids, wr2SCAN        
                                                                         
We gratefully acknowledge several colleagues who have allowed us to      
interface, adapt or use parts of their codes:                            
  Ed Valeev, F. Pavosevic, A. Kumar             : LibInt (2-el integral package), F12 methods 
  Garnet Chan, S. Sharma, J. Yang, R. Olivares  : DMRG                   
  Ulf Ekstrom                                   : XCFun DFT Library      
  Mihaly Kallay                                 : mrcc  (arbitrary order and MRCC methods)
  Frank Weinhold                                : gennbo (NPA and NBO analysis)           
  Simon Mueller                                 : openCOSMO-RS                            
  Christopher J. Cramer and Donald G. Truhlar   : smd solvation model                     
  S Lehtola, MJT Oliveira, MAL Marques          : LibXC Library                           
  Liviu Ungur et al                             : ANISO software                          


 Your calculation uses the libint2 library for the computation of 2-el integrals
 For citations please refer to: http://libint.valeyev.net

 Your ORCA version has been built with support for libXC version: 6.2.2
 For citations please refer to: https://libxc.gitlab.io

 This ORCA versions uses:
   CBLAS   interface :  Fast vector & matrix operations
   LAPACKE interface :  Fast linear algebra routines
   SCALAPACK package :  Parallel linear algebra routines
   Shared memory     :  Shared parallel matrices
   BLAS/LAPACK       :  OpenBLAS 0.3.27  USE64BITINT DYNAMIC_ARCH NO_AFFINITY SkylakeX SINGLE_THREADED
        Core in use  :  SkylakeX
   Copyright (c) 2011-2014, The OpenBLAS Project


Your calculation utilizes the atom-pairwise dispersion correction
based on EEQ partial charges (D4)


================================================================================

cite the ECPs for C  [vDZP-ECP], O  [vDZP-ECP] as follows:
   B-Ne (ecp-2-mwb), Al-Ar (ecp-10-mwb), Ga-Kr (ecp-28-mwb), Y-Cd (ecp-28-mwb), In-Xe (ecp-46-mwb):
     A. Bergner, M. Dolg, W. Küchle, H. Stoll, and H. Preuß, Mol. Phys. 80, 1431 (1993)., T. Leininger, A. Berning, A. Nicklass, H. Stoll, H.-J. Werner, and H.-J.Flad, Chem. Phys. 217, 19 (1997).
   Na-Mg, K-Ca, Rb-Sr, Cs-Ba (CRENBL):
     L. Fernandez Pacios and P. A. Christiansen, J. Chem. Phys. 82, 2664 (1985)., M. M. Hurley, L. F. Pacios, P. A. Christiansen, R. B. Ross, and W. C. Ermler, J. Chem. Phys. 84, 6840 (1986)., L. A. LaJohn, P. A. Christiansen, R. B. Ross, T. Atashroo, and W. C. Ermler, J. Chem. Phys. 87, 2812 (1987)., R. B. Ross, J. M. Powers, T. Atashroo, W. C. Ermler, L. A. LaJohn, and P. A. Christiansen, J. Chem. Phys. 93, 6654 (1990). 
   Sc-Zn (ecp-10-mdf):
     M. Dolg, U. Wedig, H. Stoll, and H. Preuss, J. Chem. Phys. 86, 866 (1986). 
   Y-Cd (ecp-28-mwb), Hf-Hg (ecp-60-mwb):
     D. Andrae, U. Häußermann, M. Dolg, H. Stoll, and H. Preuß, Theor. Chim. Acta 77, 123 (1990). 
   La (ecp-46-mwb):
     M. Dolg, H. Stoll, and H. Preuss, J. Chem. Phys. 90, 1730 (1989)., M. Dolg, H. Stoll, and H. Preuss, Theor. Chim. Acta 85, 441 (1993).
   Ce-Lu (SBKJC-ecp):
     T. R. Cundari and W. J. Stevens, J. Chem. Phys. 98, 5555 (1993).
   Tl-Rn (ecp-78-mwb):
     W. Küchle, M. Dolg, H. Stoll, and H. Preuss, Mol. Phys. 74, 1245 (1991).

ECP parameters for C  [vDZP-ECP], O  [vDZP-ECP] have been obtained from:
MM, AH, SG, J. Chem. Phys. 158, 014103 (2023), 10.1063/5.0133026

----- Orbital basis set information -----
Your calculation utilizes the basis: vDZP
   Marcel Mueller, Andreas Hansen, Stefan Grimme 
   J. Chem. Phys. 158, 014103 (2023). DOI: 10.1063/5.0133026

----- AuxJ basis set information -----
Your calculation utilizes the auxiliary basis: def2/J
   F. Weigend, Phys. Chem. Chem. Phys. 8, 1057 (2006).

================================================================================
                                        WARNINGS
                       Please study these warnings very carefully!
================================================================================

WARNING: Frozen-Core approximation turned on, but there are no core electrons.
  ===> : Turning off frozen-core approximation


WARNING: Geometry Optimization
  ===> : Switching off AutoStart
         For restart on a previous wavefunction, please use MOREAD

================================================================================
                                       INPUT FILE
================================================================================
NAME = ./output/isoeugenol/isoeugenol.inp
|  1> ! wB97X-3c OPT FREQ TightSCF
|  2> %pal
|  3>   nprocs 40
|  4> end
|  5> * xyz 0 1
|  6> C      4.142586     0.869256    -0.767379
|  7> C      2.960782     0.076107    -0.309445
|  8> C      1.743863     0.630583    -0.257285
|  9> C      0.520985    -0.092854     0.171900
| 10> C     -0.731598     0.427595    -0.195338
| 11> C     -1.923510    -0.215551     0.193683
| 12> C     -1.853574    -1.382801     0.965265
| 13> C     -0.609533    -1.898282     1.347379
| 14> C      0.569422    -1.258783     0.959562
| 15> O     -3.028876    -2.024425     1.352700
| 16> O     -3.189657     0.273413    -0.165018
| 17> C     -3.411325     1.444916    -0.943499
| 18> H      3.977319     1.233388    -1.803495
| 19> H      5.051460     0.231908    -0.752660
| 20> H      4.301852     1.736070    -0.091679
| 21> H      3.118433    -0.961230    -0.048817
| 22> H      1.633283     1.658694    -0.585073
| 23> H     -0.771326     1.329805    -0.791590
| 24> H     -0.555328    -2.794024     1.953144
| 25> H      1.508784    -1.670871     1.300068
| 26> H     -3.012529    -2.869559     1.911640
| 27> H     -2.991155     2.332850    -0.425568
| 28> H     -4.503002     1.592987    -1.072533
| 29> H     -2.947358     1.330807    -1.945963
| 30> *
| 31> 
| 32>                          ****END OF INPUT****
================================================================================

                       *****************************
                       * Geometry Optimization Run *
                       *****************************

Geometry optimization settings:
Update method            Update   .... BFGS
Choice of coordinates    CoordSys .... (2022) Redundant Internals
Initial Hessian          InHess   .... Almloef's Model
Max. no of cycles        MaxIter  .... 72

Convergence Tolerances:
Energy Change            TolE     ....  5.0000e-06 Eh
Max. Gradient            TolMAXG  ....  3.0000e-04 Eh/bohr
RMS Gradient             TolRMSG  ....  1.0000e-04 Eh/bohr
Max. Displacement        TolMAXD  ....  4.0000e-03 bohr
RMS Displacement         TolRMSD  ....  2.0000e-03 bohr
Strict Convergence                .... False

------------------------------------------------------------------------------
                        ORCA OPTIMIZATION COORDINATE SETUP
------------------------------------------------------------------------------

The optimization will be done in redundant internal coordinates (2022)
Making redundant internal coordinates   ...  (2022 redundants) done
Evaluating the initial hessian          ...  (Almloef) done
Evaluating the coordinates              ...  done
Calculating the B-matrix                .... done
Calculating the G-matrix                .... done
Diagonalizing the G-matrix              .... done
Small eigenvalue found = 7.274e-03
Small eigenvalue found = 2.035e-02
The first mode is                       ....   40
The number of degrees of freedom        ....   66

    -----------------------------------------------------------------
                    Redundant Internal Coordinates


    -----------------------------------------------------------------
         Definition                    Initial Value    Approx d2E/dq
    -----------------------------------------------------------------
      1. B(C   1,C   0)                  1.4951         0.424611   
      2. B(C   2,C   1)                  1.3383         0.755470   
      3. B(C   3,C   2)                  1.4842         0.441949   
      4. B(C   4,C   3)                  1.4052         0.590781   
      5. B(C   5,C   4)                  1.4091         0.582410   
      6. B(C   6,C   5)                  1.4010         0.600129   
      7. B(C   7,C   6)                  1.3998         0.602758   
      8. B(C   8,C   7)                  1.3962         0.610790   
      9. B(C   8,C   3)                  1.4079         0.585059   
     10. B(O   9,C   6)                  1.3940         0.551517   
     11. B(O  10,C   5)                  1.4039         0.531778   
     12. B(C  11,O  10)                  1.4239         0.494010   
     13. B(H  12,C   0)                  1.1106         0.333849   
     14. B(H  13,C   0)                  1.1102         0.334380   
     15. B(H  14,C   0)                  1.1105         0.333926   
     16. B(H  15,C   1)                  1.0811         0.372023   
     17. B(H  16,C   2)                  1.0848         0.367111   
     18. B(H  17,C   4)                  1.0822         0.370617   
     19. B(H  18,C   7)                  1.0827         0.369885   
     20. B(H  19,C   8)                  1.0808         0.372457   
     21. B(H  20,O   9)                  1.0134         0.427373   
     22. B(H  21,C  11)                  1.1105         0.333971   
     23. B(H  22,C  11)                  1.1092         0.335571   
     24. B(H  23,C  11)                  1.1105         0.333972   
     25. A(C   1,C   0,H  13)          109.7853         0.327210   
     26. A(H  12,C   0,H  13)          108.8096         0.284111   
     27. A(H  13,C   0,H  14)          108.8219         0.284121   
     28. A(C   1,C   0,H  12)          110.0016         0.327124   
     29. A(H  12,C   0,H  14)          109.4548         0.284051   
     30. A(C   1,C   0,H  14)          109.9417         0.327137   
     31. A(C   2,C   1,H  15)          121.3811         0.367023   
     32. A(C   0,C   1,C   2)          120.7230         0.420221   
     33. A(C   0,C   1,H  15)          117.8766         0.333032   
     34. A(C   1,C   2,H  16)          118.2680         0.366188   
     35. A(C   3,C   2,H  16)          117.7328         0.334512   
     36. A(C   1,C   2,C   3)          123.9525         0.423235   
     37. A(C   2,C   3,C   8)          122.4846         0.404445   
     38. A(C   4,C   3,C   8)          118.9199         0.425864   
     39. A(C   2,C   3,C   4)          118.5754         0.405141   
     40. A(C   5,C   4,H  17)          120.1044         0.350900   
     41. A(C   3,C   4,H  17)          119.0446         0.351748   
     42. A(C   3,C   4,C   5)          120.8491         0.425519   
     43. A(C   6,C   5,O  10)          118.4201         0.417113   
     44. A(C   4,C   5,O  10)          122.2329         0.414895   
     45. A(C   4,C   5,C   6)          119.3470         0.426716   
     46. A(C   7,C   6,O   9)          120.2621         0.420159   
     47. A(C   5,C   6,C   7)          120.1017         0.429352   
     48. A(C   5,C   6,O   9)          119.6359         0.419831   
     49. A(C   8,C   7,H  18)          119.4774         0.353617   
     50. A(C   6,C   7,H  18)          120.1255         0.352826   
     51. A(C   6,C   7,C   8)          120.3957         0.430711   
     52. A(C   7,C   8,H  19)          118.1483         0.354033   
     53. A(C   3,C   8,H  19)          121.4603         0.351463   
     54. A(C   3,C   8,C   7)          120.3759         0.428414   
     55. A(C   6,O   9,H  20)          121.5720         0.350882   
     56. A(C   5,O  10,C  11)          124.5161         0.400392   
     57. A(H  22,C  11,H  23)          108.6569         0.284284   
     58. A(H  21,C  11,H  23)          110.1878         0.284073   
     59. A(O  10,C  11,H  23)          110.1173         0.333417   
     60. A(H  21,C  11,H  22)          108.6568         0.284284   
     61. A(O  10,C  11,H  22)          109.0650         0.333682   
     62. A(O  10,C  11,H  21)          110.1176         0.333417   
     63. D(C   2,C   1,C   0,H  14)     61.0679         0.013324   
     64. D(H  15,C   1,C   0,H  12)    118.8861         0.013324   
     65. D(C   2,C   1,C   0,H  12)    -59.5370         0.013324   
     66. D(H  15,C   1,C   0,H  13)     -0.8225         0.013324   
     67. D(C   2,C   1,C   0,H  13)   -179.2456         0.013324   
     68. D(C   3,C   2,C   1,C   0)    179.3462         0.040760   
     69. D(C   3,C   2,C   1,H  15)      0.9790         0.040760   
     70. D(H  16,C   2,C   1,H  15)   -176.4749         0.040760   
     71. D(H  16,C   2,C   1,C   0)      1.8924         0.040760   
     72. D(C   8,C   3,C   2,H  16)   -161.3758         0.013324   
     73. D(C   8,C   3,C   2,C   1)     21.1578         0.013324   
     74. D(C   4,C   3,C   2,H  16)     16.9749         0.013324   
     75. D(C   4,C   3,C   2,C   1)   -160.4916         0.013324   
     76. D(C   5,C   4,C   3,C   8)     -1.1770         0.024022   
     77. D(C   5,C   4,C   3,C   2)   -179.5875         0.024022   
     78. D(H  17,C   4,C   3,C   8)    179.3335         0.024022   
     79. D(H  17,C   4,C   3,C   2)      0.9230         0.024022   
     80. D(O  10,C   5,C   4,H  17)     -0.0478         0.023313   
     81. D(O  10,C   5,C   4,C   3)   -179.5319         0.023313   
     82. D(C   6,C   5,C   4,H  17)    179.9853         0.023313   
     83. D(C   6,C   5,C   4,C   3)      0.5011         0.023313   
     84. D(O   9,C   6,C   5,O  10)      0.0740         0.024829   
     85. D(O   9,C   6,C   5,C   4)   -179.9578         0.024829   
     86. D(C   7,C   6,C   5,O  10)   -179.7408         0.024829   
     87. D(C   7,C   6,C   5,C   4)      0.2275         0.024829   
     88. D(H  18,C   7,C   6,O   9)     -0.5101         0.025059   
     89. D(H  18,C   7,C   6,C   5)    179.3035         0.025059   
     90. D(C   8,C   7,C   6,O   9)    179.9243         0.025059   
     91. D(C   8,C   7,C   6,C   5)     -0.2621         0.025059   
     92. D(C   7,C   8,C   3,C   4)      1.1390         0.023536   
     93. D(C   7,C   8,C   3,C   2)    179.4842         0.023536   
     94. D(H  19,C   8,C   7,H  18)     -1.4096         0.025769   
     95. D(H  19,C   8,C   7,C   6)    178.1588         0.025769   
     96. D(C   3,C   8,C   7,H  18)   -179.9995         0.025769   
     97. D(C   3,C   8,C   7,C   6)     -0.4311         0.025769   
     98. D(H  19,C   8,C   3,C   4)   -177.4034         0.023536   
     99. D(H  19,C   8,C   3,C   2)      0.9418         0.023536   
    100. D(H  20,O   9,C   6,C   7)     -0.1123         0.022005   
    101. D(H  20,O   9,C   6,C   5)   -179.9268         0.022005   
    102. D(C  11,O  10,C   5,C   6)    179.9895         0.020394   
    103. D(C  11,O  10,C   5,C   4)      0.0222         0.020394   
    104. D(H  23,C  11,O  10,C   5)     60.8522         0.019280   
    105. D(H  22,C  11,O  10,C   5)    179.9988         0.019280   
    106. D(H  21,C  11,O  10,C   5)    -60.8546         0.019280   
    -----------------------------------------------------------------

Number of atoms                         .... 24
Number of degrees of freedom            .... 106


         *************************************************************
         *                GEOMETRY OPTIMIZATION CYCLE   1            *
         *************************************************************
---------------------------------
CARTESIAN COORDINATES (ANGSTROEM)
---------------------------------
  C      4.142586    0.869256   -0.767379
  C      2.960782    0.076107   -0.309445
  C      1.743863    0.630583   -0.257285
  C      0.520985   -0.092854    0.171900
  C     -0.731598    0.427595   -0.195338
  C     -1.923510   -0.215551    0.193683
  C     -1.853574   -1.382801    0.965265
  C     -0.609533   -1.898282    1.347379
  C      0.569422   -1.258783    0.959562
  O     -3.028876   -2.024425    1.352700
  O     -3.189657    0.273413   -0.165018
  C     -3.411325    1.444916   -0.943499
  H      3.977319    1.233388   -1.803495
  H      5.051460    0.231908   -0.752660
  H      4.301852    1.736070   -0.091679
  H      3.118433   -0.961230   -0.048817
  H      1.633283    1.658694   -0.585073
  H     -0.771326    1.329805   -0.791590
  H     -0.555328   -2.794024    1.953144
  H      1.508784   -1.670871    1.300068
  H     -3.012529   -2.869559    1.911640
  H     -2.991155    2.332850   -0.425568
  H     -4.503002    1.592987   -1.072533
  H     -2.947358    1.330807   -1.945963

----------------------------
CARTESIAN COORDINATES (A.U.)
----------------------------
  NO LB      ZA    FRAG     MASS         X           Y           Z
   0 C     4.0000*   0    12.011    7.828353    1.642656   -1.450136
   1 C     4.0000*   0    12.011    5.595067    0.143821   -0.584766
   2 C     4.0000*   0    12.011    3.295423    1.191629   -0.486198
   3 C     4.0000*   0    12.011    0.984519   -0.175469    0.324844
   4 C     4.0000*   0    12.011   -1.382520    0.808037   -0.369135
   5 C     4.0000*   0    12.011   -3.634907   -0.407332    0.366008
   6 C     4.0000*   0    12.011   -3.502747   -2.613115    1.824086
   7 C     4.0000*   0    12.011   -1.151850   -3.587233    2.546177
   8 C     4.0000*   0    12.011    1.076052   -2.378755    1.813309
   9 O     6.0000*   0    15.999   -5.723746   -3.825609    2.556233
  10 O     6.0000*   0    15.999   -6.027578    0.516676   -0.311839
  11 C     4.0000*   0    12.011   -6.446470    2.730496   -1.782955
  12 H     1.0000    0     1.008    7.516044    2.330766   -3.408112
  13 H     1.0000    0     1.008    9.545876    0.438243   -1.422321
  14 H     1.0000    0     1.008    8.129322    3.280697   -0.173248
  15 H     1.0000    0     1.008    5.892984   -1.816461   -0.092251
  16 H     1.0000    0     1.008    3.086458    3.134477   -1.105628
  17 H     1.0000    0     1.008   -1.457595    2.512967   -1.495888
  18 H     1.0000    0     1.008   -1.049418   -5.279940    3.690907
  19 H     1.0000    0     1.008    2.851189   -3.157489    2.456772
  20 H     1.0000    0     1.008   -5.692855   -5.422681    3.612476
  21 H     1.0000    0     1.008   -5.652464    4.408448   -0.804207
  22 H     1.0000    0     1.008   -8.509441    3.010309   -2.026794
  23 H     1.0000    0     1.008   -5.569699    2.514861   -3.677337
* core charge reduced due to ECP

--------------------------------
INTERNAL COORDINATES (ANGSTROEM)
--------------------------------
 C      0   0   0     0.000000000000     0.00000000     0.00000000
 C      1   0   0     1.495141992913     0.00000000     0.00000000
 C      2   1   0     1.338303460631   120.72300572     0.00000000
 C      3   2   1     1.484247775837   123.95252480   179.34622003
 C      4   3   2     1.405238443160   118.57537704   199.50840484
 C      5   4   3     1.409123249223   120.84909025   180.41252336
 C      6   5   4     1.400964806596   119.34695737     0.50109856
 C      7   6   5     1.399774903346   120.10170328     0.22747901
 C      8   7   6     1.396171869261   120.39569525   359.73790374
 O      7   6   5     1.393959119847   119.63592825   180.04223678
 O      6   5   4     1.403880488612   122.23289292   180.46809583
 C     11   6   5     1.423934214981   124.51613728     0.00000000
 H      1   2   3     1.110604186994   110.00155245   300.46296884
 H      1   2   3     1.110171639856   109.78531511   180.75438764
 H      1   2   3     1.110541606313   109.94168451    61.06788784
 H      2   1   3     1.081133129524   117.87660576   178.42311634
 H      3   2   1     1.084751186985   118.26800203     1.89239110
 H      5   4   3     1.082163409836   119.04457274     0.92298415
 H      8   7   6     1.082701781570   120.12550293   179.30350374
 H      9   8   7     1.080815350938   118.14834114   178.15876259
 H     10   7   6     1.013376843018   121.57204747   180.07319905
 H     12  11   6     1.110505352539   110.11756423   299.14538172
 H     12  11   6     1.109203978773   109.06495731   179.99880010
 H     12  11   6     1.110504530502   110.11734229    60.85215180

---------------------------
INTERNAL COORDINATES (A.U.)
---------------------------
 C      0   0   0     0.000000000000     0.00000000     0.00000000
 C      1   0   0     2.825408897932     0.00000000     0.00000000
 C      2   1   0     2.529027024672   120.72300572     0.00000000
 C      3   2   1     2.804821811214   123.95252480   179.34622003
 C      4   3   2     2.655515810430   118.57537704   199.50840484
 C      5   4   3     2.662857029973   120.84909025   180.41252336
 C      6   5   4     2.647439807728   119.34695737     0.50109856
 C      7   6   5     2.645191216461   120.10170328     0.22747901
 C      8   7   6     2.638382468788   120.39569525   359.73790374
 O      7   6   5     2.634200978393   119.63592825   180.04223678
 O      6   5   4     2.652949648233   122.23289292   180.46809583
 C     11   6   5     2.690845699035   124.51613728     0.00000000
 H      1   2   3     2.098737756605   110.00155245   300.46296884
 H      1   2   3     2.097920360974   109.78531511   180.75438764
 H      1   2   3     2.098619496256   109.94168451    61.06788784
 H      2   1   3     2.043045529109   117.87660576   178.42311634
 H      3   2   1     2.049882666847   118.26800203     1.89239110
 H      5   4   3     2.044992476741   119.04457274     0.92298415
 H      8   7   6     2.046009851875   120.12550293   179.30350374
 H      9   8   7     2.042445014611   118.14834114   178.15876259
 H     10   7   6     1.915004703762   121.57204747   180.07319905
 H     12  11   6     2.098550986552   110.11756423   299.14538172
 H     12  11   6     2.096091746537   109.06495731   179.99880010
 H     12  11   6     2.098549433128   110.11734229    60.85215180

---------------------
BASIS SET INFORMATION
---------------------
There are 3 groups of distinct atoms

 Group   1 Type C   : 6s6p2d contracted to 2s2p1d pattern {42/42/2}
 Group   2 Type O   : 6s6p2d contracted to 2s2p1d pattern {42/42/2}
 Group   3 Type H   : 8s2p contracted to 2s1p pattern {53/2}

Atom   0C    basis set group =>   1
Atom   1C    basis set group =>   1
Atom   2C    basis set group =>   1
Atom   3C    basis set group =>   1
Atom   4C    basis set group =>   1
Atom   5C    basis set group =>   1
Atom   6C    basis set group =>   1
Atom   7C    basis set group =>   1
Atom   8C    basis set group =>   1
Atom   9O    basis set group =>   2
Atom  10O    basis set group =>   2
Atom  11C    basis set group =>   1
Atom  12H    basis set group =>   3
Atom  13H    basis set group =>   3
Atom  14H    basis set group =>   3
Atom  15H    basis set group =>   3
Atom  16H    basis set group =>   3
Atom  17H    basis set group =>   3
Atom  18H    basis set group =>   3
Atom  19H    basis set group =>   3
Atom  20H    basis set group =>   3
Atom  21H    basis set group =>   3
Atom  22H    basis set group =>   3
Atom  23H    basis set group =>   3
---------------------------------
AUXILIARY/J BASIS SET INFORMATION
---------------------------------
There are 3 groups of distinct atoms

 Group   1 Type C   : 12s5p4d2f1g contracted to 6s4p3d1f1g pattern {711111/2111/211/2/1}
 Group   2 Type O   : 12s5p4d2f1g contracted to 6s4p3d1f1g pattern {711111/2111/211/2/1}
 Group   3 Type H   : 5s2p1d contracted to 3s1p1d pattern {311/2/1}

Atom   0C    basis set group =>   1
Atom   1C    basis set group =>   1
Atom   2C    basis set group =>   1
Atom   3C    basis set group =>   1
Atom   4C    basis set group =>   1
Atom   5C    basis set group =>   1
Atom   6C    basis set group =>   1
Atom   7C    basis set group =>   1
Atom   8C    basis set group =>   1
Atom   9O    basis set group =>   2
Atom  10O    basis set group =>   2
Atom  11C    basis set group =>   1
Atom  12H    basis set group =>   3
Atom  13H    basis set group =>   3
Atom  14H    basis set group =>   3
Atom  15H    basis set group =>   3
Atom  16H    basis set group =>   3
Atom  17H    basis set group =>   3
Atom  18H    basis set group =>   3
Atom  19H    basis set group =>   3
Atom  20H    basis set group =>   3
Atom  21H    basis set group =>   3
Atom  22H    basis set group =>   3
Atom  23H    basis set group =>   3
-------------------------
ECP PARAMETER INFORMATION
-------------------------

 Group 1, Type C  ECP vDZP-ECP (replacing 2 core electrons, lmax=3)
 Group 2, Type O  ECP vDZP-ECP (replacing 2 core electrons, lmax=3)

Atom   0C    ECP group =>   1
Atom   1C    ECP group =>   1
Atom   2C    ECP group =>   1
Atom   3C    ECP group =>   1
Atom   4C    ECP group =>   1
Atom   5C    ECP group =>   1
Atom   6C    ECP group =>   1
Atom   7C    ECP group =>   1
Atom   8C    ECP group =>   1
Atom   9O    ECP group =>   2
Atom  10O    ECP group =>   2
Atom  11C    ECP group =>   1



           ************************************************************
           *        Program running with 40 parallel MPI-processes    *
           *              working on a common directory               *
           ************************************************************
------------------------------------------------------------------------------
                             ORCA STARTUP CALCULATIONS
                           -- RI-GTO INTEGRALS CHOSEN --
------------------------------------------------------------------------------
------------------------------------------------------------------------------
                   ___                                                        
                  /   \      - P O W E R E D   B Y -                         
                 /     \                                                     
                 |  |  |   _    _      __       _____    __    __             
                 |  |  |  | |  | |    /  \     |  _  \  |  |  /  |          
                  \  \/   | |  | |   /    \    | | | |  |  | /  /          
                 / \  \   | |__| |  /  /\  \   | |_| |  |  |/  /          
                |  |  |   |  __  | /  /__\  \  |    /   |      \           
                |  |  |   | |  | | |   __   |  |    \   |  |\   \          
                \     /   | |  | | |  |  |  |  | |\  \  |  | \   \       
                 \___/    |_|  |_| |__|  |__|  |_| \__\ |__|  \__/        
                                                                              
                      - O R C A' S   B I G   F R I E N D -                    
                                      &                                       
                       - I N T E G R A L  F E E D E R -                       
                                                                              
 v1 FN, 2020, v2 2021, v3 2022-2024                                           
------------------------------------------------------------------------------


----------------------
SHARK INTEGRAL PACKAGE
----------------------

Number of atoms                             ...     24
Number of basis functions                   ...    216
Number of shells                            ...     96
Maximum angular momentum                    ...      2
Integral batch strategy                     ... SHARK/LIBINT Hybrid
RI-J (if used) integral strategy            ... SPLIT-RIJ (Revised 2003 algorithm where possible)
Printlevel                                  ...      1
Contraction scheme used                     ... SEGMENTED contraction
Prescreening option                         ... SCHWARTZ
   Thresh                                   ... 2.500e-11
   Tcut                                     ... 2.500e-12
   Tpresel                                  ... 2.500e-12 
Coulomb Range Separation                    ... NOT USED
Exchange Range Separation                   ... Long Range
   Mu parameter                             ... 3.000e-01
   Scaling (regular/separated)              ... 1.670e-01 8.330e-01
Multipole approximations                    ... NOT USED
Finite Nucleus Model                        ... NOT USED
CABS basis                                  ... NOT available
Auxiliary Coulomb fitting basis             ... AVAILABLE
   # of basis functions in Aux-J            ...    720
   # of shells in Aux-J                     ...    240
   Maximum angular momentum in Aux-J        ...      4
Auxiliary J/K fitting basis                 ... NOT available
Auxiliary Correlation fitting basis         ... NOT available
Auxiliary 'external' fitting basis          ... NOT available

Checking pre-screening integrals            ... done (  0.0 sec) Dimension = 96
Check shell pair data                       ... done (  0.0 sec)
Shell pair information
Shell pair cut-off parameter TPreSel        ...   2.5e-12
Total number of shell pairs                 ...      4656
Shell pairs after pre-screening             ...      4545
Total number of primitive shell pairs       ...     41964
Primitive shell pairs kept                  ...     31625
          la=0 lb=0:   1159 shell pairs
          la=1 lb=0:   1688 shell pairs
          la=1 lb=1:    638 shell pairs
          la=2 lb=0:    565 shell pairs
          la=2 lb=1:    418 shell pairs
          la=2 lb=2:     77 shell pairs

Calculating one electron integrals          ... done (  0.0 sec)
Calculating ECP integrals                   ... done (  0.1 sec)
Calculating RI/J V-Matrix + Cholesky decomp.... done (  0.0 sec)
Calculating Nuclear repulsion               ... done (  0.0 sec) ENN=    340.993751781979 Eh

Diagonalization of the overlap matrix:
Smallest eigenvalue                        ... 2.854e-04
Time for diagonalization                   ...    0.006 sec
Threshold for overlap eigenvalues          ... 1.000e-07
Number of eigenvalues below threshold      ... 0
Time for construction of square roots      ...    0.004 sec
Total time needed                          ...    0.014 sec

-------------------
DFT GRID GENERATION
-------------------

General Integration Accuracy     IntAcc      ... 4.388
Radial Grid Type                 RadialGrid  ... OptM3 with GC (2021)
Angular Grid (max. ang.)         AngularGrid ... 4 (Lebedev-302)
Angular grid pruning method      GridPruning ... 4 (adaptive)
Weight generation scheme         WeightScheme... mBecke (2022)
Basis function cutoff            BFCut       ... 1.0000e-11
Integration weight cutoff        WCut        ... 1.0000e-14
Partially contracted basis set               ... off
Rotationally invariant grid construction     ... off
Angular grids for H and He will be reduced by one unit

Total number of grid points                  ...   110817
Total number of batches                      ...     1741
Average number of points per batch           ...       63
Average number of grid points per atom       ...     4617

--------------------
COSX GRID GENERATION
--------------------

GRIDX 1
-------
General Integration Accuracy     IntAcc      ... 3.816
Radial Grid Type                 RadialGrid  ... OptM3 with GC (2021)
Angular Grid (max. ang.)         AngularGrid ... 1 (Lebedev-50)
Angular grid pruning method      GridPruning ... 4 (adaptive)
Weight generation scheme         WeightScheme... mBecke (2022)
Basis function cutoff            BFCut       ... 1.0000e-11
Integration weight cutoff        WCut        ... 1.0000e-14
Partially contracted basis set               ... on
Rotationally invariant grid construction     ... off
Angular grids for H and He will be reduced by one unit

Total number of grid points                  ...    14151
Total number of batches                      ...      125
Average number of points per batch           ...      113
Average number of grid points per atom       ...      590
UseSFitting                                  ... on

GRIDX 2
-------
General Integration Accuracy     IntAcc      ... 4.020
Radial Grid Type                 RadialGrid  ... OptM3 with GC (2021)
Angular Grid (max. ang.)         AngularGrid ... 2 (Lebedev-110)
Angular grid pruning method      GridPruning ... 4 (adaptive)
Weight generation scheme         WeightScheme... mBecke (2022)
Basis function cutoff            BFCut       ... 1.0000e-11
Integration weight cutoff        WCut        ... 1.0000e-14
Partially contracted basis set               ... on
Rotationally invariant grid construction     ... off
Angular grids for H and He will be reduced by one unit

Total number of grid points                  ...    30611
Total number of batches                      ...      253
Average number of points per batch           ...      120
Average number of grid points per atom       ...     1275
UseSFitting                                  ... on

GRIDX 3
-------
General Integration Accuracy     IntAcc      ... 4.338
Radial Grid Type                 RadialGrid  ... OptM3 with GC (2021)
Angular Grid (max. ang.)         AngularGrid ... 3 (Lebedev-194)
Angular grid pruning method      GridPruning ... 4 (adaptive)
Weight generation scheme         WeightScheme... mBecke (2022)
Basis function cutoff            BFCut       ... 1.0000e-11
Integration weight cutoff        WCut        ... 1.0000e-14
Partially contracted basis set               ... on
Rotationally invariant grid construction     ... off
Angular grids for H and He will be reduced by one unit

Total number of grid points                  ...    67049
Total number of batches                      ...      536
Average number of points per batch           ...      125
Average number of grid points per atom       ...     2794
UseSFitting                                  ... on
Initializing property integral containers    ... done (  0.0 sec)

SHARK setup successfully completed in   3.3 seconds

Maximum memory used throughout the entire STARTUP-calculation: 31.7 MB


           ************************************************************
           *        Program running with 40 parallel MPI-processes    *
           *              working on a common directory               *
           ************************************************************
-------------------------------------------------------------------------------
                                 ORCA GUESS
                   Start orbitals & Density for SCF / CASSCF
-------------------------------------------------------------------------------

------------
SCF SETTINGS
------------
Hamiltonian:
 Density Functional     Method          .... DFT(GTOs)
 Exchange Functional    Exchange        .... WB97X-V
 Correlation Functional Correlation     .... WB97X-V
 Gradients option       PostSCFGGA      .... off
 Hybrid DFT is turned on
   Fraction HF Exchange ScalHFX         ....  0.167000
   Scaling of DF-GGA-X  ScalDFX         ....  0.000000
   Scaling of DF-GGA-C  ScalDFC         ....  1.000000
   Scaling of DF-LDA-C  ScalLDAC        ....  1.000000
   Perturbative correction              ....  0.000000
 Long-range corrected/Screened/Range-Separated Hybrid DFT is turned on
   Amount of maximum screened exact exchange              ....  0.833000
   Range separation parameter mu (erf(mu*r12)/r12)        ....  0.300000
   NL short-range parameter             ....  6.000000
   NL long-range parameter              ....  0.010000
 RI-approximation to the Coulomb term is turned on
   Number of AuxJ basis functions       .... 720
   RIJ-COSX (HFX calculated with COS-X)).... on


General Settings:
 Integral files         IntName         .... ./output/isoeugenol/isoeugenol
 Hartree-Fock type      HFTyp           .... RHF
 Total Charge           Charge          ....    0
 Multiplicity           Mult            ....    1
 Number of Electrons    NEL             ....   64
 Basis Dimension        Dim             ....  216
 Nuclear Repulsion      ENuc            ....    340.9937517820 Eh

Convergence Acceleration:
 AO-DIIS                CNVDIIS         .... on
   Start iteration      DIISMaxIt       ....    12
   Startup error        DIISStart       ....  0.200000
   # of expansion vecs  DIISMaxEq       ....     5
   Bias factor          DIISBfac        ....   1.050
   Max. coefficient     DIISMaxC        ....  10.000
 MO-DIIS                CNVKDIIS        .... off
 Trust-Rad. Augm. Hess. CNVTRAH         .... auto
   Auto Start mean grad. ratio tolernc. ....  1.125000
   Auto Start start iteration           ....    50
   Auto Start num. interpolation iter.  ....    10
   Max. Number of Micro iterations      ....    24
   Max. Number of Macro iterations      .... Maxiter - #DIIS iter
   Number of Davidson start vectors     ....     2
   Converg. threshold    (grad. norm)   ....   1.000e-05
   Grad. Scal. Fac. for Micro threshold ....   0.100
   Minimum threshold for Micro iter.    ....   1.000e-02
   NR start threshold (gradient norm)   ....   1.000e-04
   Initial trust radius                 ....   0.400
   Minimum AH scaling param. (alpha)    ....   1.000
   Maximum AH scaling param. (alpha)    .... 1000.000
   Quad. conv. algorithm                .... NR
   White noise on init. David. guess    .... on
   Maximum white noise                  ....   0.010
   Pseudo random numbers                .... off
   Inactive MOs                         .... canonical
   Orbital update algorithm             .... Taylor
   Preconditioner                       .... Diag
   Full preconditioner red. dimension   ....   250
 SOSCF                  CNVSOSCF        .... on
   Start iteration      SOSCFMaxIt      ....   150
   Startup grad/error   SOSCFStart      ....  0.003300
   Hessian update       SOSCFHessUp     .... L-BFGS
 Level Shifting         CNVShift        .... on
   Level shift para.    LevelShift      ....    0.2500
   Turn off err/grad.   ShiftErr        ....    0.0010
 Zerner damping         CNVZerner       .... off
 Static damping         CNVDamp         .... on
   Fraction old density DampFac         ....    0.7000
   Max. Damping (<1)    DampMax         ....    0.9800
   Min. Damping (>=0)   DampMin         ....    0.0000
   Turn off err/grad.   DampErr         ....    0.1000

SCF Procedure:
 Maximum # iterations   MaxIter         ....   125
 SCF integral mode      SCFMode         .... Direct
   Integral package                     .... SHARK and LIBINT hybrid scheme
 Reset frequency        DirectResetFreq ....    20
 Integral Threshold     Thresh          ....  2.500e-11 Eh
 Primitive CutOff       TCut            ....  2.500e-12 Eh

Convergence Tolerance:
 Convergence Check Mode ConvCheckMode   .... Total+1el-Energy
 Convergence forced     ConvForced      .... 0
 Energy Change          TolE            ....  1.000e-08 Eh
 1-El. energy change                    ....  1.000e-05 Eh
 Orbital Gradient       TolG            ....  1.000e-05
 Orbital Rotation angle TolX            ....  1.000e-05
 DIIS Error             TolErr          ....  5.000e-07

------------------------------
INITIAL GUESS: MODEL POTENTIAL
------------------------------
Loading Hartree-Fock densities                     ... done
Atomic calculation to generate a density for atom 0 (C  with ECP)
  Multiplicity assumed   :    1
  Atomic configuration   : 1s2 2s2 2p2 
  Number of open shells  : 1
  Command: /home/aspe232/Project/Software/ORCA/6_0_1/build/orca ./output/isoeugenol/isoeugenol_atom6.inp "" > ./output/isoeugenol/isoeugenol_atom6.out
Returned from the atomic calculation with res=0
Atomic calculation to generate a density for atom 9 (O  with ECP)
  Multiplicity assumed   :    3
  Atomic configuration   : 1s2 2s2 2p4 
  Number of open shells  : 1
  Command: /home/aspe232/Project/Software/ORCA/6_0_1/build/orca ./output/isoeugenol/isoeugenol_atom8.inp "" > ./output/isoeugenol/isoeugenol_atom8.out
Returned from the atomic calculation with res=0
Calculating cut-offs                               ... done
Initializing the effective Hamiltonian             ... done
Setting up the integral package (SHARK)            ... done
Starting the Coulomb interaction                   ... done (   0.0 sec)
Making the grid                                    ... done (   0.7 sec)
Mapping shells                                     ... done
Starting the XC term evaluation                    ... done (   0.0 sec)
  promolecular density results
     # of electrons  =     87.993836162
     EX              =    -47.811720388
     EC              =     -3.614595314
     EX+EC           =    -51.426315702
Transforming the Hamiltonian                       ... done (   0.0 sec)
Diagonalizing the Hamiltonian                      ... done (   0.0 sec)
Back transforming the eigenvectors                 ... done (   0.0 sec)
Now organizing SCF variables                       ... done
                      ------------------
                      INITIAL GUESS DONE (   2.0 sec)
                      ------------------
             **** ENERGY FILE WAS UPDATED (./output/isoeugenol/isoeugenol.en.tmp) ****
Finished Guess after   2.5 sec
Maximum memory used throughout the entire GUESS-calculation: 19.4 MB


           ************************************************************
           *        Program running with 40 parallel MPI-processes    *
           *              working on a common directory               *
           ************************************************************

-------------------------------------------------------------------------------------------
                                      ORCA LEAN-SCF
                              memory conserving SCF solver
-------------------------------------------------------------------------------------------

----------------------------------------D-I-I-S--------------------------------------------
Iteration    Energy (Eh)           Delta-E    RMSDP     MaxDP     DIISErr   Damp  Time(sec)
-------------------------------------------------------------------------------------------
               ***  Starting incremental Fock matrix formation  ***
    1    -95.8437543369568061     0.00e+00  4.02e-03  7.84e-02  1.70e-01  0.700   3.6
    2    -95.9904294419274038    -1.47e-01  3.00e-03  5.76e-02  1.06e-01  0.700   3.2
                               ***Turning on AO-DIIS***
    3    -96.0707128123459029    -8.03e-02  1.68e-03  3.11e-02  5.84e-02  0.700   2.7
    4    -96.1187086802391377    -4.80e-02  3.65e-03  6.49e-02  4.09e-02  0.000   2.8
    5    -96.2200198468774488    -1.01e-01  2.55e-04  5.49e-03  3.79e-03  0.000   2.9
                              *** Initializing SOSCF ***
---------------------------------------S-O-S-C-F--------------------------------------
Iteration    Energy (Eh)           Delta-E    RMSDP     MaxDP     MaxGrad    Time(sec)
--------------------------------------------------------------------------------------
    6    -96.2203001357095786    -2.80e-04  1.15e-04  3.54e-03  2.49e-03     3.3
               *** Restarting incremental Fock matrix formation ***
    7    -96.2203544926368863    -5.44e-05  8.34e-05  1.86e-03  8.50e-04     3.6
    8    -96.2203779754648849    -2.35e-05  6.75e-05  1.37e-03  3.27e-04     3.7
    9    -96.2203849065269310    -6.93e-06  2.10e-05  3.43e-04  1.52e-04     3.4
   10    -96.2203859897610414    -1.08e-06  5.03e-06  9.44e-05  5.92e-05     3.2
   11    -96.2203860476424211    -5.79e-08  3.05e-06  5.75e-05  2.93e-05     3.1
   12    -96.2203860738521257    -2.62e-08  1.25e-06  1.81e-05  7.82e-06     3.2
   13    -96.2203860804715987    -6.62e-09  4.68e-07  1.16e-05  2.78e-06     3.0
                 **** Energy Check signals convergence ****

               *****************************************************
               *                     SUCCESS                       *
               *           SCF CONVERGED AFTER  13 CYCLES          *
               *****************************************************

Recomputing exchange energy using gridx3       ... done (    3.197 sec)
Old exchange energy                            :    -12.472393565 Eh
New exchange energy                            :    -12.472373517 Eh
Exchange energy change after final integration :      0.000020048 Eh
Total energy after final integration           :    -96.220366032 Eh
             **** ENERGY FILE WAS UPDATED (./output/isoeugenol/isoeugenol.en.tmp) ****

----------------
TOTAL SCF ENERGY
----------------

Total Energy       :        -96.22036603244501 Eh           -2618.28927 eV

Components:
Nuclear Repulsion  :        340.99375178197863 Eh            9278.91172 eV
Electronic Energy  :       -437.21413786245023 Eh          -11897.20153 eV
One Electron Energy:       -824.34260005872238 Eh          -22431.50254 eV
Two Electron Energy:        387.12846219627215 Eh           10534.30101 eV

Virial components:
Potential Energy   :       -170.70351102073420 Eh           -4645.07869 eV
Kinetic Energy     :         74.48314498828920 Eh            2026.78942 eV
Virial Ratio       :          2.29184080569602

DFT components:
N(Alpha)           :       31.999962472878 electrons
N(Beta)            :       31.999962472878 electrons
N(Total)           :       63.999924945755 electrons
E(X)               :      -13.900138369980 Eh       
E(C)               :       -2.452403932950 Eh       
E(XC)              :      -16.352542302930 Eh       

---------------
SCF CONVERGENCE
---------------

  Last Energy change         ...    6.6195e-09  Tolerance :   1.0000e-08
  Last MAX-Density change    ...    1.1551e-05  Tolerance :   1.0000e-07
  Last RMS-Density change    ...    4.6808e-07  Tolerance :   5.0000e-09
  Last DIIS Error            ...    2.4926e-03  Tolerance :   5.0000e-07
  Last Orbital Gradient      ...    2.7811e-06  Tolerance :   1.0000e-05
  Last Orbital Rotation      ...    5.7771e-06  Tolerance :   1.0000e-05


----------------
ORBITAL ENERGIES
----------------

  NO   OCC          E(Eh)            E(eV) 
   0   2.0000      -1.173920       -31.9440 
   1   2.0000      -1.150504       -31.3068 
   2   2.0000      -0.998280       -27.1646 
   3   2.0000      -0.940449       -25.5909 
   4   2.0000      -0.892845       -24.2956 
   5   2.0000      -0.886583       -24.1252 
   6   2.0000      -0.827699       -22.5228 
   7   2.0000      -0.806557       -21.9475 
   8   2.0000      -0.746370       -20.3098 
   9   2.0000      -0.730091       -19.8668 
  10   2.0000      -0.674789       -18.3619 
  11   2.0000      -0.668420       -18.1886 
  12   2.0000      -0.627972       -17.0880 
  13   2.0000      -0.606201       -16.4956 
  14   2.0000      -0.585194       -15.9239 
  15   2.0000      -0.580012       -15.7829 
  16   2.0000      -0.560373       -15.2485 
  17   2.0000      -0.546553       -14.8725 
  18   2.0000      -0.532631       -14.4936 
  19   2.0000      -0.528401       -14.3785 
  20   2.0000      -0.522760       -14.2250 
  21   2.0000      -0.521408       -14.1882 
  22   2.0000      -0.484999       -13.1975 
  23   2.0000      -0.472961       -12.8699 
  24   2.0000      -0.460698       -12.5362 
  25   2.0000      -0.457190       -12.4408 
  26   2.0000      -0.449029       -12.2187 
  27   2.0000      -0.433406       -11.7936 
  28   2.0000      -0.422985       -11.5100 
  29   2.0000      -0.373466       -10.1625 
  30   2.0000      -0.330323        -8.9886 
  31   2.0000      -0.289956        -7.8901 
  32   0.0000       0.045955         1.2505 
  33   0.0000       0.068921         1.8754 
  34   0.0000       0.070931         1.9301 
  35   0.0000       0.087388         2.3780 
  36   0.0000       0.093810         2.5527 
  37   0.0000       0.101300         2.7565 
  38   0.0000       0.114057         3.1037 
  39   0.0000       0.119833         3.2608 
  40   0.0000       0.133657         3.6370 
  41   0.0000       0.148862         4.0507 
  42   0.0000       0.151283         4.1166 
*Only the first 10 virtual orbitals were printed.

                    ********************************
                    * MULLIKEN POPULATION ANALYSIS *
                    ********************************

-----------------------
MULLIKEN ATOMIC CHARGES
-----------------------
   0 C :   -0.118136
   1 C :   -0.021313
   2 C :   -0.012749
   3 C :   -0.077446
   4 C :   -0.012309
   5 C :    0.112039
   6 C :    0.099296
   7 C :   -0.000461
   8 C :   -0.002506
   9 O :   -0.289173
  10 O :   -0.330530
  11 C :    0.070324
  12 H :    0.057505
  13 H :    0.043202
  14 H :    0.057370
  15 H :    0.018382
  16 H :    0.016132
  17 H :    0.010066
  18 H :    0.013456
  19 H :    0.015098
  20 H :    0.196650
  21 H :    0.044532
  22 H :    0.065846
  23 H :    0.044723
Sum of atomic charges:   -0.0000000

--------------------------------
MULLIKEN REDUCED ORBITAL CHARGES
--------------------------------
  0 C s       :     0.962806  s :     0.962806
      pz      :     1.048530  p :     3.081134
      px      :     0.998588
      py      :     1.034016
      dz2     :     0.016088  d :     0.074195
      dxz     :     0.009834
      dyz     :     0.015466
      dx2y2   :     0.013205
      dxy     :     0.019603

  1 C s       :     1.055920  s :     1.055920
      pz      :     0.953374  p :     2.870871
      px      :     0.943522
      py      :     0.973974
      dz2     :     0.006329  d :     0.094522
      dxz     :     0.022483
      dyz     :     0.007713
      dx2y2   :     0.033414
      dxy     :     0.024583

  2 C s       :     1.001444  s :     1.001444
      pz      :     0.981038  p :     2.916643
      px      :     0.948545
      py      :     0.987061
      dz2     :     0.005786  d :     0.094662
      dxz     :     0.024041
      dyz     :     0.008052
      dx2y2   :     0.032214
      dxy     :     0.024568

  3 C s       :     1.027679  s :     1.027679
      pz      :     0.993856  p :     2.927072
      px      :     0.968102
      py      :     0.965114
      dz2     :     0.018736  d :     0.122695
      dxz     :     0.027380
      dyz     :     0.013843
      dx2y2   :     0.029718
      dxy     :     0.033017

  4 C s       :     0.985757  s :     0.985757
      pz      :     1.011999  p :     2.937118
      px      :     0.936132
      py      :     0.988987
      dz2     :     0.007967  d :     0.089434
      dxz     :     0.023451
      dyz     :     0.010708
      dx2y2   :     0.024168
      dxy     :     0.023140

  5 C s       :     1.060060  s :     1.060060
      pz      :     0.954529  p :     2.664122
      px      :     0.764341
      py      :     0.945253
      dz2     :     0.023108  d :     0.163778
      dxz     :     0.039673
      dyz     :     0.016731
      dx2y2   :     0.043741
      dxy     :     0.040525

  6 C s       :     1.056499  s :     1.056499
      pz      :     0.959846  p :     2.677593
      px      :     0.781239
      py      :     0.936508
      dz2     :     0.024065  d :     0.166613
      dxz     :     0.038850
      dyz     :     0.018260
      dx2y2   :     0.044543
      dxy     :     0.040894

  7 C s       :     0.990528  s :     0.990528
      pz      :     0.994994  p :     2.917944
      px      :     0.931509
      py      :     0.991442
      dz2     :     0.008228  d :     0.091989
      dxz     :     0.024123
      dyz     :     0.011197
      dx2y2   :     0.025366
      dxy     :     0.023075

  8 C s       :     0.992993  s :     0.992993
      pz      :     0.995949  p :     2.915724
      px      :     0.965886
      py      :     0.953889
      dz2     :     0.015058  d :     0.093789
      dxz     :     0.018187
      dyz     :     0.011545
      dx2y2   :     0.023830
      dxy     :     0.025169

  9 O s       :     1.624171  s :     1.624171
      pz      :     1.674838  p :     4.636321
      px      :     1.517422
      py      :     1.444061
      dz2     :     0.003072  d :     0.028681
      dxz     :     0.005313
      dyz     :     0.005343
      dx2y2   :     0.009137
      dxy     :     0.005816

 10 O s       :     1.710663  s :     1.710663
      pz      :     1.666076  p :     4.581871
      px      :     1.435937
      py      :     1.479858
      dz2     :     0.005684  d :     0.037995
      dxz     :     0.006122
      dyz     :     0.007048
      dx2y2   :     0.012352
      dxy     :     0.006788

 11 C s       :     0.984497  s :     0.984497
      pz      :     0.941526  p :     2.828886
      px      :     1.084459
      py      :     0.802901
      dz2     :     0.030344  d :     0.116293
      dxz     :     0.013970
      dyz     :     0.024490
      dx2y2   :     0.029088
      dxy     :     0.018401

 12 H s       :     0.898555  s :     0.898555
      pz      :     0.022133  p :     0.043940
      px      :     0.010244
      py      :     0.011564

 13 H s       :     0.913049  s :     0.913049
      pz      :     0.010147  p :     0.043749
      px      :     0.019646
      py      :     0.013956

 14 H s       :     0.898762  s :     0.898762
      pz      :     0.014921  p :     0.043867
      px      :     0.010507
      py      :     0.018439

 15 H s       :     0.931327  s :     0.931327
      pz      :     0.014675  p :     0.050291
      px      :     0.011178
      py      :     0.024439

 16 H s       :     0.934621  s :     0.934621
      pz      :     0.015044  p :     0.049248
      px      :     0.009632
      py      :     0.024572

 17 H s       :     0.936668  s :     0.936668
      pz      :     0.019612  p :     0.053266
      px      :     0.010409
      py      :     0.023245

 18 H s       :     0.935707  s :     0.935707
      pz      :     0.018679  p :     0.050837
      px      :     0.009712
      py      :     0.022446

 19 H s       :     0.933023  s :     0.933023
      pz      :     0.015506  p :     0.051878
      px      :     0.022749
      py      :     0.013624

 20 H s       :     0.705353  s :     0.705353
      pz      :     0.035356  p :     0.097997
      px      :     0.023618
      py      :     0.039023

 21 H s       :     0.914713  s :     0.914713
      pz      :     0.011856  p :     0.040755
      px      :     0.011981
      py      :     0.016919

 22 H s       :     0.893775  s :     0.893775
      pz      :     0.009173  p :     0.040379
      px      :     0.024408
      py      :     0.006798

 23 H s       :     0.914525  s :     0.914525
      pz      :     0.021164  p :     0.040753
      px      :     0.012403
      py      :     0.007185



                     *******************************
                     * LOEWDIN POPULATION ANALYSIS *
                     *******************************

----------------------
LOEWDIN ATOMIC CHARGES
----------------------
   0 C :   -0.126384
   1 C :   -0.045160
   2 C :   -0.047697
   3 C :   -0.053129
   4 C :   -0.040798
   5 C :   -0.004584
   6 C :   -0.009531
   7 C :   -0.050492
   8 C :   -0.042316
   9 O :   -0.065618
  10 O :   -0.067433
  11 C :   -0.060028
  12 H :    0.054794
  13 H :    0.051546
  14 H :    0.054524
  15 H :    0.035360
  16 H :    0.044395
  17 H :    0.041137
  18 H :    0.043353
  19 H :    0.041295
  20 H :    0.091389
  21 H :    0.044938
  22 H :    0.065238
  23 H :    0.045200

-------------------------------
LOEWDIN REDUCED ORBITAL CHARGES
-------------------------------
  0 C s       :     0.778183  s :     0.778183
      pz      :     1.059263  p :     3.109414
      px      :     1.008536
      py      :     1.041614
      dz2     :     0.052480  d :     0.238787
      dxz     :     0.027327
      dyz     :     0.051738
      dx2y2   :     0.045772
      dxy     :     0.061470

  1 C s       :     0.810370  s :     0.810370
      pz      :     0.884122  p :     2.928620
      px      :     1.013642
      py      :     1.030856
      dz2     :     0.024797  d :     0.306169
      dxz     :     0.062895
      dyz     :     0.022319
      dx2y2   :     0.113719
      dxy     :     0.082440

  2 C s       :     0.802311  s :     0.802311
      pz      :     0.912073  p :     2.944319
      px      :     1.010100
      py      :     1.022145
      dz2     :     0.022028  d :     0.301067
      dxz     :     0.064975
      dyz     :     0.022769
      dx2y2   :     0.111108
      dxy     :     0.080188

  3 C s       :     0.780855  s :     0.780855
      pz      :     0.932931  p :     2.893225
      px      :     0.985307
      py      :     0.974987
      dz2     :     0.053558  d :     0.379049
      dxz     :     0.078656
      dyz     :     0.047962
      dx2y2   :     0.094431
      dxy     :     0.104442

  4 C s       :     0.795579  s :     0.795579
      pz      :     0.960464  p :     2.957997
      px      :     0.997267
      py      :     1.000267
      dz2     :     0.023766  d :     0.287222
      dxz     :     0.067368
      dyz     :     0.036683
      dx2y2   :     0.086027
      dxy     :     0.073378

  5 C s       :     0.772784  s :     0.772784
      pz      :     0.931134  p :     2.752883
      px      :     0.861858
      py      :     0.959892
      dz2     :     0.066351  d :     0.478916
      dxz     :     0.106020
      dyz     :     0.053397
      dx2y2   :     0.136164
      dxy     :     0.116983

  6 C s       :     0.770807  s :     0.770807
      pz      :     0.929776  p :     2.753509
      px      :     0.881958
      py      :     0.941776
      dz2     :     0.068617  d :     0.485215
      dxz     :     0.103878
      dyz     :     0.057504
      dx2y2   :     0.134947
      dxy     :     0.120269

  7 C s       :     0.799329  s :     0.799329
      pz      :     0.954392  p :     2.956646
      px      :     1.005948
      py      :     0.996305
      dz2     :     0.024229  d :     0.294517
      dxz     :     0.069674
      dyz     :     0.038034
      dx2y2   :     0.089720
      dxy     :     0.072861

  8 C s       :     0.795408  s :     0.795408
      pz      :     0.942784  p :     2.946984
      px      :     1.027524
      py      :     0.976676
      dz2     :     0.043224  d :     0.299925
      dxz     :     0.054175
      dyz     :     0.042198
      dx2y2   :     0.078145
      dxy     :     0.082184

  9 O s       :     1.374150  s :     1.374150
      pz      :     1.627814  p :     4.619880
      px      :     1.524449
      py      :     1.467618
      dz2     :     0.006199  d :     0.071588
      dxz     :     0.011870
      dyz     :     0.015825
      dx2y2   :     0.023568
      dxy     :     0.014125

 10 O s       :     1.393558  s :     1.393558
      pz      :     1.620188  p :     4.572624
      px      :     1.470949
      py      :     1.481487
      dz2     :     0.015347  d :     0.101252
      dxz     :     0.017054
      dyz     :     0.017246
      dx2y2   :     0.028833
      dxy     :     0.022773

 11 C s       :     0.784841  s :     0.784841
      pz      :     0.984531  p :     2.926565
      px      :     1.083138
      py      :     0.858896
      dz2     :     0.086899  d :     0.348622
      dxz     :     0.039875
      dyz     :     0.079379
      dx2y2   :     0.092597
      dxy     :     0.049872

 12 H s       :     0.798737  s :     0.798737
      pz      :     0.063104  p :     0.146469
      px      :     0.039395
      py      :     0.043971

 13 H s       :     0.803859  s :     0.803859
      pz      :     0.040595  p :     0.144595
      px      :     0.056907
      py      :     0.047093

 14 H s       :     0.798829  s :     0.798829
      pz      :     0.049356  p :     0.146647
      px      :     0.039882
      py      :     0.057408

 15 H s       :     0.810110  s :     0.810110
      pz      :     0.047034  p :     0.154530
      px      :     0.036668
      py      :     0.070828

 16 H s       :     0.807168  s :     0.807168
      pz      :     0.046389  p :     0.148437
      px      :     0.033044
      py      :     0.069004

 17 H s       :     0.803089  s :     0.803089
      pz      :     0.056337  p :     0.155773
      px      :     0.034915
      py      :     0.064521

 18 H s       :     0.805691  s :     0.805691
      pz      :     0.054338  p :     0.150956
      px      :     0.033865
      py      :     0.062753

 19 H s       :     0.804940  s :     0.804940
      pz      :     0.046679  p :     0.153765
      px      :     0.064350
      py      :     0.042736

 20 H s       :     0.620652  s :     0.620652
      pz      :     0.103716  p :     0.287959
      px      :     0.064182
      py      :     0.120061

 21 H s       :     0.816267  s :     0.816267
      pz      :     0.040706  p :     0.138796
      px      :     0.044398
      py      :     0.053693

 22 H s       :     0.801671  s :     0.801671
      pz      :     0.035533  p :     0.133091
      px      :     0.068751
      py      :     0.028807

 23 H s       :     0.816003  s :     0.816003
      pz      :     0.063667  p :     0.138797
      px      :     0.045351
      py      :     0.029778



                      *****************************
                      * MAYER POPULATION ANALYSIS *
                      *****************************

  NA   - Mulliken gross atomic population
  ZA   - Total nuclear charge
  QA   - Mulliken gross atomic charge
  VA   - Mayer's total valence
  BVA  - Mayer's bonded valence
  FA   - Mayer's free valence

  ATOM       NA         ZA         QA         VA         BVA        FA
  0 C      4.1181     4.0000    -0.1181     3.9898     3.9898     0.0000
  1 C      4.0213     4.0000    -0.0213     3.9927     3.9927     0.0000
  2 C      4.0127     4.0000    -0.0127     4.0324     4.0324    -0.0000
  3 C      4.0774     4.0000    -0.0774     4.2110     4.2110     0.0000
  4 C      4.0123     4.0000    -0.0123     4.0183     4.0183     0.0000
  5 C      3.8880     4.0000     0.1120     4.1272     4.1272     0.0000
  6 C      3.9007     4.0000     0.0993     4.1177     4.1177    -0.0000
  7 C      4.0005     4.0000    -0.0005     4.0031     4.0031    -0.0000
  8 C      4.0025     4.0000    -0.0025     4.0994     4.0994     0.0000
  9 O      6.2892     6.0000    -0.2892     2.1225     2.1225    -0.0000
 10 O      6.3305     6.0000    -0.3305     2.0180     2.0180     0.0000
 11 C      3.9297     4.0000     0.0703     3.9499     3.9499     0.0000
 12 H      0.9425     1.0000     0.0575     1.0232     1.0232    -0.0000
 13 H      0.9568     1.0000     0.0432     1.0280     1.0280     0.0000
 14 H      0.9426     1.0000     0.0574     1.0229     1.0229    -0.0000
 15 H      0.9816     1.0000     0.0184     1.0393     1.0393     0.0000
 16 H      0.9839     1.0000     0.0161     1.0404     1.0404    -0.0000
 17 H      0.9899     1.0000     0.0101     1.0481     1.0481     0.0000
 18 H      0.9865     1.0000     0.0135     1.0525     1.0525    -0.0000
 19 H      0.9849     1.0000     0.0151     1.0413     1.0413     0.0000
 20 H      0.8034     1.0000     0.1966     1.0635     1.0635    -0.0000
 21 H      0.9555     1.0000     0.0445     1.0151     1.0151     0.0000
 22 H      0.9342     1.0000     0.0658     1.0263     1.0263     0.0000
 23 H      0.9553     1.0000     0.0447     1.0153     1.0153    -0.0000

  Mayer bond orders larger than 0.100000
B(  0-C ,  1-C ) :   1.0170 B(  0-C , 12-H ) :   0.9848 B(  0-C , 13-H ) :   0.9974 
B(  0-C , 14-H ) :   0.9841 B(  1-C ,  2-C ) :   1.8439 B(  1-C , 15-H ) :   1.0009 
B(  2-C ,  3-C ) :   1.1183 B(  2-C , 16-H ) :   0.9924 B(  3-C ,  4-C ) :   1.4163 
B(  3-C ,  8-C ) :   1.4258 B(  4-C ,  5-C ) :   1.4307 B(  4-C , 17-H ) :   0.9823 
B(  5-C ,  6-C ) :   1.4049 B(  5-C , 10-O ) :   1.0486 B(  6-C ,  7-C ) :   1.4182 
B(  6-C ,  9-O ) :   1.0707 B(  7-C ,  8-C ) :   1.4578 B(  7-C , 18-H ) :   0.9823 
B(  8-C , 19-H ) :   0.9868 B(  9-O , 20-H ) :   1.0164 B( 10-O , 11-C ) :   0.9338 
B( 11-C , 21-H ) :   0.9909 B( 11-C , 22-H ) :   1.0023 B( 11-C , 23-H ) :   0.9908 


-------
TIMINGS
-------

Total SCF time: 0 days 0 hours 0 min 49 sec 

Total time                  ....      49.138 sec
Sum of individual times     ....      47.292 sec  ( 96.2%)

SCF preparation             ....       2.167 sec  (  4.4%)
Fock matrix formation       ....      43.237 sec  ( 88.0%)
  Startup                   ....       0.189 sec  (  0.4% of F)
  Split-RI-J                ....       1.335 sec  (  3.1% of F)
  Chain of spheres X        ....      19.608 sec  ( 45.4% of F)
  XC integration            ....      21.189 sec  ( 49.0% of F)
    XC Preparation          ....       0.000 sec  (  0.0% of XC)
    Basis function eval.    ....       0.495 sec  (  2.3% of XC)
    Density eval.           ....       0.193 sec  (  0.9% of XC)
    XC-Functional eval.     ....       0.177 sec  (  0.8% of XC)
    XC-Potential eval.      ....       0.249 sec  (  1.2% of XC)
Diagonalization             ....       0.000 sec  (  0.0%)
Density matrix formation    ....       0.427 sec  (  0.9%)
Total Energy calculation    ....       0.321 sec  (  0.7%)
Population analysis         ....       0.268 sec  (  0.5%)
Orbital Transformation      ....       0.080 sec  (  0.2%)
Orbital Orthonormalization  ....       0.000 sec  (  0.0%)
DIIS solution               ....       0.494 sec  (  1.0%)
SOSCF solution              ....       0.296 sec  (  0.6%)
Finished LeanSCF after  49.3 sec

Maximum memory used throughout the entire LEANSCF-calculation: 36.5 MB


           ************************************************************
           *        Program running with 40 parallel MPI-processes    *
           *              working on a common directory               *
           ************************************************************

------------------------------------------------------------------------------
                         ORCA PROPERTY INTEGRAL CALCULATIONS
------------------------------------------------------------------------------

GBWName                                   ... ./output/isoeugenol/isoeugenol.gbw
Number of atoms                           ...     24
Number of basis functions                 ...    216
Max core memory                           ...   1024 MB

Dipole integrals                          ... YES
Quadrupole integrals                      ...  NO
Linear momentum integrals                 ...  NO
Angular momentum integrals                ...  NO
Higher moments length integrals           ...  NO
Higher moments velocity integrals         ...  NO
Kinetic energy integrals                  ...  NO
GIAO right hand sides                     ...  NO
GIAO dipole derivative integrals          ...  NO
SOC integrals                             ...  NO
EPR diamagnetic integrals (GIAO)          ...  NO
EPR gauge integrals                       ...  NO
Field gradient integrals                  ...  NO (   0 nuclei)
Spin-dipole/Fermi contact integrals       ...  NO (   0 nuclei)
Contact density integrals                 ...  NO (   0 nuclei)
Nucleus-orbit integrals                   ...  NO (   0 nuclei)
Geometric perturbations                   ...  NO (  24 nuclei)

Choice of electric origin   ... Center of mass
Position of electric origin ... ( -0.8945, -0.4793,  0.3524) 
Choice of magnetic origin   ... GIAO
Position of magnetic origin ... (  0.0000,  0.0000,  0.0000) 

Calculating integrals                     ... Electric Dipole (Length)     done (  0.0 sec)

Property integrals calculated in   0.0 sec

Maximum memory used throughout the entire PROPINT-calculation: 15.9 MB


-------------------------------------------------------------------------------
                          DFT DISPERSION CORRECTION                            
                                                                               
                                DFTD4 V3.4.0                                   
-------------------------------------------------------------------------------
The wB97X-3c composite method is recognized
Using three-body term ABC
Active option DFTDOPT                   ...         5   

-------------------------   ----------------
Dispersion correction           -0.028458820
-------------------------   ----------------


-------------------------   --------------------
FINAL SINGLE POINT ENERGY       -96.248824852190
-------------------------   --------------------



           ************************************************************
           *        Program running with 40 parallel MPI-processes    *
           *              working on a common directory               *
           ************************************************************
------------------------------------------------------------------------------
                         ORCA SCF GRADIENT CALCULATION
------------------------------------------------------------------------------

Nuc. rep. gradient        (SHARK) ... done (  0.0 sec)
HCore & Overlap gradient  (SHARK) ... done (  0.0 sec)
ECP gradient              (SHARK) ... done (  0.4 sec)
Split-RIJ-J gradient      (SHARK) ... done (  0.4 sec)
COSX-gradient                     ... done (  5.2 sec)
XC gradient                       ... done (  1.5 sec)
Dispersion correction             ... done (  0.1 sec)

-------------------
DISPERSION GRADIENT
-------------------

   1   C   :    0.000400550    0.000133810   -0.000117746
   2   C   :    0.000471098    0.000009994   -0.000113969
   3   C   :    0.000214492    0.000294373   -0.000115571
   4   C   :    0.000183506    0.000121292   -0.000028811
   5   C   :    0.000033061    0.000324896   -0.000198300
   6   C   :   -0.000338352    0.000035095   -0.000034048
   7   C   :   -0.000303443   -0.000348436    0.000220539
   8   C   :    0.000086112   -0.000503699    0.000346539
   9   C   :    0.000232185   -0.000401617    0.000320136
  10   O   :   -0.000400562   -0.000379680    0.000237155
  11   O   :   -0.000409371    0.000188500   -0.000136964
  12   C   :   -0.000354265    0.000380601   -0.000261021
  13   H   :    0.000094502    0.000027398   -0.000053964
  14   H   :    0.000085893    0.000006067   -0.000019434
  15   H   :    0.000101865    0.000045078   -0.000002936
  16   H   :    0.000136636   -0.000056822   -0.000027752
  17   H   :    0.000033481    0.000128403   -0.000031943
  18   H   :    0.000011023    0.000133229   -0.000088427
  19   H   :    0.000032199   -0.000135883    0.000092284
  20   H   :    0.000073561   -0.000136404    0.000115556
  21   H   :   -0.000089579   -0.000064601    0.000039436
  22   H   :   -0.000121116    0.000098217   -0.000029331
[...]
 11:    199.59   0.000229    1.16  0.000358  (-0.006371 -0.006802 -0.016467)
 12:    228.64   0.001296    6.55  0.001769  (-0.041227 -0.007569  0.003435)
 13:    240.81   0.000107    0.54  0.000139  ( 0.000180 -0.009899 -0.006417)
 14:    296.36   0.002477   12.52  0.002608  (-0.000505 -0.032472 -0.039417)
 15:    318.83   0.017780   89.86  0.017403  (-0.012151  0.073261  0.109034)
 16:    331.83   0.000478    2.41  0.000449  (-0.002276 -0.005533  0.020333)
 17:    339.78   0.001085    5.48  0.000996  (-0.025310 -0.018634 -0.002893)
 18:    403.21   0.000815    4.12  0.000631  ( 0.002669 -0.019318 -0.015826)
 19:    407.98   0.000192    0.97  0.000147  ( 0.008638 -0.005654  0.006345)
 20:    476.09   0.000514    2.60  0.000337  ( 0.004420 -0.010441 -0.014438)
 21:    524.49   0.000143    0.72  0.000085  (-0.006175  0.005037 -0.004647)
 22:    578.00   0.000513    2.59  0.000277  ( 0.011907  0.009061 -0.007295)
 23:    621.61   0.001586    8.01  0.000796  ( 0.023994 -0.003817 -0.014350)
 24:    647.10   0.002685   13.57  0.001295  (-0.024457 -0.024388 -0.010086)
 25:    758.43   0.000312    1.58  0.000128  (-0.000470  0.004414  0.010422)
 26:    791.96   0.001822    9.21  0.000718  (-0.021487 -0.007471 -0.014157)
 27:    820.98   0.005132   25.94  0.001951  ( 0.009639  0.028485  0.032351)
 28:    828.77   0.006195   31.31  0.002333  ( 0.040333  0.000654 -0.026560)
 29:    849.34   0.001456    7.36  0.000535  (-0.004235  0.017042  0.015055)
 30:    901.80   0.004206   21.26  0.001456  (-0.010835  0.023949  0.027652)
 31:    948.69   0.003287   16.61  0.001081  ( 0.028168 -0.009394  0.014125)
 32:    962.84   0.000699    3.53  0.000227  (-0.009800  0.011065  0.002855)
 33:   1008.69   0.004726   23.89  0.001462  (-0.010491 -0.016407 -0.032909)
 34:   1015.50   0.004956   25.04  0.001523  ( 0.000341  0.009762  0.037781)
 35:   1091.92   0.000065    0.33  0.000019  ( 0.002997  0.001265 -0.002840)
 36:   1115.09   0.005012   25.33  0.001403  ( 0.028737 -0.019225  0.014397)
 37:   1150.08   0.002665   13.47  0.000723  (-0.020590 -0.013934  0.010245)
 38:   1173.43   0.030762  155.46  0.008181  ( 0.042566  0.065857 -0.045077)
 39:   1202.56   0.017452   88.20  0.004529  ( 0.058692  0.027787 -0.017666)
 40:   1205.05   0.000157    0.79  0.000041  ( 0.000476 -0.003503 -0.005302)
 41:   1234.76   0.004394   22.21  0.001110  ( 0.032260 -0.004120  0.007268)
 42:   1247.69   0.001666    8.42  0.000417  (-0.015217  0.008972 -0.010230)
 43:   1306.65   0.026509  133.96  0.006331  ( 0.044363 -0.052792  0.039698)
 44:   1332.86   0.012165   61.48  0.002848  (-0.046676 -0.021687  0.014115)
 45:   1349.19   0.002298   11.61  0.000532  (-0.020691 -0.008665  0.005319)
 46:   1365.59   0.009042   45.69  0.002066  ( 0.042498 -0.011944  0.010837)
 47:   1368.08   0.004228   21.37  0.000964  ( 0.030995 -0.001860  0.000538)
 48:   1412.29   0.041555  210.00  0.009182  (-0.095211  0.006121 -0.008914)
 49:   1446.54   0.000872    4.41  0.000188  (-0.000112  0.012904 -0.004654)
 50:   1490.05   0.004564   23.06  0.000956  ( 0.010629 -0.024194  0.016045)
 51:   1509.69   0.002047   10.35  0.000423  ( 0.002572  0.005691  0.019601)
 52:   1516.16   0.002610   13.19  0.000537  ( 0.001834 -0.021446  0.008597)
 53:   1526.72   0.001788    9.03  0.000365  (-0.017527  0.006041  0.004663)
 54:   1529.38   0.002232   11.28  0.000455  (-0.002290  0.012860  0.016874)
 55:   1537.55   0.008662   43.77  0.001758  (-0.034517  0.017433 -0.016207)
 56:   1616.93   0.048803  246.63  0.009419  ( 0.096874  0.005844 -0.000298)
 57:   1710.39   0.010962   55.40  0.002000  (-0.028847  0.026909 -0.021068)
 58:   1722.63   0.004613   23.31  0.000836  ( 0.010138  0.022477 -0.015091)
 59:   1793.16   0.000363    1.83  0.000063  (-0.007614 -0.002217  0.000523)
 60:   3086.61   0.009721   49.13  0.000983  (-0.011557  0.023644 -0.017035)
 61:   3099.91   0.008369   42.29  0.000842  (-0.026574 -0.008943  0.007505)
 62:   3172.16   0.005201   26.28  0.000512  ( 0.001097 -0.013004 -0.018476)
 63:   3178.27   0.001524    7.70  0.000150  ( 0.001647  0.002989  0.011745)
 64:   3201.60   0.000502    2.54  0.000049  (-0.005124  0.004690 -0.000823)
 65:   3206.26   0.003005   15.19  0.000292  (-0.006651 -0.015026  0.004742)
 66:   3220.92   0.003833   19.37  0.000371  ( 0.000343  0.018912 -0.003688)
 67:   3228.23   0.001838    9.29  0.000178  (-0.012970  0.002107 -0.002235)
 68:   3235.90   0.002499   12.63  0.000241  (-0.008845 -0.010457  0.007310)
 69:   3274.27   0.000939    4.75  0.000090  ( 0.005851 -0.005010  0.005494)
 70:   3277.41   0.000571    2.88  0.000054  (-0.002790  0.005474 -0.004071)
 71:   3967.12   0.021975  111.05  0.001729  (-0.014255 -0.031944  0.022473)

* The epsilon (eps) is given for a Dirac delta lineshape.
** The dipole moment derivative (T) already includes vibrational overlap.

The first frequency considered to be a vibration is 6
The total number of vibrations considered is 66


--------------------------
THERMOCHEMISTRY AT 298.15K
--------------------------

Temperature         ...   298.15 K
Pressure            ...     1.00 atm
Total Mass          ...   164.20 AMU
Quasi RRHO          ...     True
Cut-Off Frequency   ...     1.00 cm^-1

Throughout the following assumptions are being made:
  (1) The electronic state is orbitally nondegenerate
  (2) There are no thermally accessible electronically excited states
  (3) Hindered rotations indicated by low frequency modes are not
      treated as such but are treated as vibrations and this may
      cause some error
  (4) All equations used are the standard statistical mechanics
      equations for an ideal gas
  (5) All vibrations are strictly harmonic

freq.      53.06  E(vib)   ...       0.52 
freq.      81.62  E(vib)   ...       0.48 
freq.     108.84  E(vib)   ...       0.45 
freq.     115.00  E(vib)   ...       0.44 
freq.     183.20  E(vib)   ...       0.37 
freq.     199.59  E(vib)   ...       0.35 
freq.     228.64  E(vib)   ...       0.32 
freq.     240.81  E(vib)   ...       0.31 
freq.     296.36  E(vib)   ...       0.27 
freq.     318.83  E(vib)   ...       0.25 
freq.     331.83  E(vib)   ...       0.24 
freq.     339.78  E(vib)   ...       0.23 
freq.     403.21  E(vib)   ...       0.19 
freq.     407.98  E(vib)   ...       0.19 
freq.     476.09  E(vib)   ...       0.15 
freq.     524.49  E(vib)   ...       0.13 
freq.     578.00  E(vib)   ...       0.11 
freq.     621.61  E(vib)   ...       0.09 
freq.     647.10  E(vib)   ...       0.09 
freq.     758.43  E(vib)   ...       0.06 
freq.     791.96  E(vib)   ...       0.05 
freq.     820.98  E(vib)   ...       0.05 
freq.     828.77  E(vib)   ...       0.04 
freq.     849.34  E(vib)   ...       0.04 
freq.     901.80  E(vib)   ...       0.03 
freq.     948.69  E(vib)   ...       0.03 
freq.     962.84  E(vib)   ...       0.03 
freq.    1008.69  E(vib)   ...       0.02 
freq.    1015.50  E(vib)   ...       0.02 
freq.    1091.92  E(vib)   ...       0.02 
freq.    1115.09  E(vib)   ...       0.01 
freq.    1150.08  E(vib)   ...       0.01 
freq.    1173.43  E(vib)   ...       0.01 
freq.    1202.56  E(vib)   ...       0.01 
freq.    1205.05  E(vib)   ...       0.01 
freq.    1234.76  E(vib)   ...       0.01 
freq.    1247.69  E(vib)   ...       0.01 
freq.    1306.65  E(vib)   ...       0.01 
freq.    1332.86  E(vib)   ...       0.01 
freq.    1349.19  E(vib)   ...       0.01 
freq.    1365.59  E(vib)   ...       0.01 
freq.    1368.08  E(vib)   ...       0.01 
freq.    1412.29  E(vib)   ...       0.00 
freq.    1446.54  E(vib)   ...       0.00 
freq.    1490.05  E(vib)   ...       0.00 
freq.    1509.69  E(vib)   ...       0.00 
freq.    1516.16  E(vib)   ...       0.00 
freq.    1526.72  E(vib)   ...       0.00 
freq.    1529.38  E(vib)   ...       0.00 
freq.    1537.55  E(vib)   ...       0.00 
freq.    1616.93  E(vib)   ...       0.00 
freq.    1710.39  E(vib)   ...       0.00 
freq.    1722.63  E(vib)   ...       0.00 
freq.    1793.16  E(vib)   ...       0.00 
freq.    3086.61  E(vib)   ...       0.00 
freq.    3099.91  E(vib)   ...       0.00 
freq.    3172.16  E(vib)   ...       0.00 
freq.    3178.27  E(vib)   ...       0.00 
freq.    3201.60  E(vib)   ...       0.00 
freq.    3206.26  E(vib)   ...       0.00 
freq.    3220.92  E(vib)   ...       0.00 
freq.    3228.23  E(vib)   ...       0.00 
freq.    3235.90  E(vib)   ...       0.00 
freq.    3274.27  E(vib)   ...       0.00 
freq.    3277.41  E(vib)   ...       0.00 
freq.    3967.12  E(vib)   ...       0.00 

------------
INNER ENERGY
------------

The inner energy is: U= E(el) + E(ZPE) + E(vib) + E(rot) + E(trans)
    E(el)   - is the total energy from the electronic structure calculation
              = E(kin-el) + E(nuc-el) + E(el-el) + E(nuc-nuc)
    E(ZPE)  - the the zero temperature vibrational energy from the frequency calculation
    E(vib)  - the the finite temperature correction to E(ZPE) due to population
              of excited vibrational states
    E(rot)  - is the rotational thermal energy
    E(trans)- is the translational thermal energy

Summary of contributions to the inner energy U:
Electronic energy                ...    -96.27184019 Eh
Zero point energy                ...      0.20308984 Eh     127.44 kcal/mol
Thermal vibrational correction   ...      0.00911658 Eh       5.72 kcal/mol
Thermal rotational correction    ...      0.00141627 Eh       0.89 kcal/mol
Thermal translational correction ...      0.00141627 Eh       0.89 kcal/mol
-----------------------------------------------------------------------
Total thermal energy                    -96.05680122 Eh


Summary of corrections to the electronic energy:
(perhaps to be used in another calculation)
Total thermal correction                  0.01194913 Eh       7.50 kcal/mol
Non-thermal (ZPE) correction              0.20308984 Eh     127.44 kcal/mol
-----------------------------------------------------------------------
Total correction                          0.21503897 Eh     134.94 kcal/mol


--------
ENTHALPY
--------

The enthalpy is H = U + kB*T
                kB is Boltzmann's constant
Total thermal energy              ...    -96.05680122 Eh 
Thermal Enthalpy correction       ...      0.00094421 Eh       0.59 kcal/mol
-----------------------------------------------------------------------
Total Enthalpy                    ...    -96.05585701 Eh


Note: Only C1 symmetry has been detected, increase convergence thresholds 
      if your molecule has a higher symmetry. Symmetry factor of 1.0 is   
      used for the rotational entropy correction. 
 

Note: Rotational entropy computed according to Herzberg 
Infrared and Raman Spectra, Chapter V,1, Van Nostrand Reinhold, 1945 
Point Group:  C1, Symmetry Number:   1  
Rotational constants in cm-1:     0.058856     0.016852     0.013219 

Vibrational entropy computed according to the QRRHO of S. Grimme
Chem.Eur.J. 2012 18 9955 using a reference frequency of 100.0 cm-1


-------
ENTROPY
-------

The entropy contributions are T*S = T*(S(el)+S(vib)+S(rot)+S(trans))
     S(el)   - electronic entropy
     S(vib)  - vibrational entropy
     S(rot)  - rotational entropy
     S(trans)- translational entropy
The entropies will be listed as multiplied by the temperature to get
units of energy

Electronic entropy                ...      0.00000000 Eh      0.00 kcal/mol
Vibrational entropy               ...      0.01566104 Eh      9.83 kcal/mol
Rotational entropy                ...      0.01481805 Eh      9.30 kcal/mol
Translational entropy             ...      0.01957363 Eh     12.28 kcal/mol
-----------------------------------------------------------------------
Final entropy term                ...      0.05005271 Eh     31.41 kcal/mol

In case the symmetry of your molecule has not been determined correctly
or in case you have a reason to use a different symmetry number we print 
out the resulting rotational entropy values for sn=1,12:

 non-linear molecules -----------------------------------
|  sn= 1 | S(rot)=       0.01481805 Eh      9.30 kcal/mol|
|  sn= 2 | S(rot)=       0.01416359 Eh      8.89 kcal/mol|
|  sn= 3 | S(rot)=       0.01378076 Eh      8.65 kcal/mol|
|  sn= 4 | S(rot)=       0.01350913 Eh      8.48 kcal/mol|
|  sn= 5 | S(rot)=       0.01329845 Eh      8.34 kcal/mol|
|  sn= 6 | S(rot)=       0.01312630 Eh      8.24 kcal/mol|
|  sn= 7 | S(rot)=       0.01298076 Eh      8.15 kcal/mol|
|  sn= 8 | S(rot)=       0.01285468 Eh      8.07 kcal/mol|
|  sn= 9 | S(rot)=       0.01274347 Eh      8.00 kcal/mol|
|  sn=10 | S(rot)=       0.01264399 Eh      7.93 kcal/mol|
|  sn=11 | S(rot)=       0.01255400 Eh      7.88 kcal/mol|
|  sn=12 | S(rot)=       0.01247185 Eh      7.83 kcal/mol|
 linear molecules ---------------------------------------
|  Dinfh | S(rot)=       0.00941040 Eh      5.91 kcal/mol|
|  Cinfv | S(rot)=       0.01006486 Eh      6.32 kcal/mol|
 --------------------------------------------------------


-------------------
GIBBS FREE ENERGY
-------------------

The Gibbs free energy is G = H - T*S

Total enthalpy                    ...    -96.05585701 Eh 
Total entropy correction          ...     -0.05005271 Eh    -31.41 kcal/mol
-----------------------------------------------------------------------
Final Gibbs free energy         ...    -96.10590972 Eh

For completeness - the Gibbs free energy minus the electronic energy
G-E(el)                           ...      0.16593047 Eh    104.12 kcal/mol


Maximum memory used throughout the entire PROP-calculation: 109.1 MB

--------------------------------
SUGGESTED CITATIONS FOR THIS RUN
--------------------------------

Below you find a list of papers that are relevant to this ORCA run
We neither can nor want to force you to cite these papers, but we appreciate if you do
You receive ORCA, which is the product of decades of hard work by many enthusiastic individuals, for free
The only thing we kindly ask in return is that you cite our papers,
We deeply appreciate it, if you show your appreciation for ORCA by not just citing the generic ORCA reference.

Please note that relegating all ORCA citations to the supporting information does *not* help us.
SI sections are not indexed - citations you put there will not count into any citation statistics
But we need these citations in order to attract the funding resources that allow us to do what we are doing

Therefore, if you are a happy ORCA user, please consider citing a few of the papers listed below in the main body of your paper

In addition to the list printed below, the program has created the file ./output/isoeugenol/isoeugenol.bibtex that contains the list in bibtex format
You can import this file easily into all common literature databanks and citation aid programs


List of essential papers. We consider these as the minimum necessary citations

  1. Neese,F.
     Software update: the ORCA program system, version 5.0
     WIRES Comput. Molec. Sci., 2022 12(1)e1606
     doi.org/10.1002/wcms.1606
  2. Mueller,M.; Hansen,A.; Grimme,S.
     wB97X-3c: A composite range-separated hybrid DFT method with a molecule-optimized polarized valence double-zeta basis set
     J. Chem. Phys., 2023 158 014103
     doi.org/10.1063/5.0133026

List of papers to cite with high priority. The work reported in these papers was absolutely
necessary for this run to complete.
Our perspective: the developers of density functionals and basis sets usually get cited in chemistry papers
Good! But without the algorithms to do something with them, the functionals or basis sets would not do anything.
Hence, in our opinion, the algorithm design and method developments papers are equally worthy of getting cited

  1. Neese,F.
     An improvement of the resolution of the identity approximation for the formation of the Coulomb matrix
     J. Comp. Chem., 2003 24(14)1740-1747
     doi.org/10.1002/jcc.10318
  2. Neese,F.; Wennmohs,F.; Hansen,A.; Becker,U.
     Efficient, approximate and parallel Hartree-Fock and hybrid DFT calculations. A 'chain-of-spheres' algorithm for the Hartree-Fock exchange
     Chem. Phys., 2009 356(1-3)98-109
     doi.org/10.1016/j.chemphys.2008.10.036
  3. Bykov,D.; Petrenko,T.; Izsak,R.; Kossmann,S.; Becker,U.; Valeev,E.; Neese,F.
     Efficient implementation of the analytic second derivatives of Hartree-Fock and hybrid DFT energies: a detailed analysis of different approximations
     Molec. Phys., 2015 113 1961-1977
     doi.org/10.1080/00268976.2015.1025114
  4. Helmich-Paris,B.; de Souza,B.; Neese,F.; Izsák,R.
     An improved chain of spheres for exchange algorithm
     J. Chem. Phys., 2021 155 104109
     doi.org/doi: 10.1063/5.0058766.
  5. Neese,F.
     The SHARK Integral Generation and Digestion System
     J. Comp. Chem., 2022  1-16
     doi.org/10.1002/jcc.26942
  6. Caldeweyher,E.; Bannwarth,C.; Grimme,S.
     Extension of the D3 dispersion coefficient model
     J. Chem. Phys., 2017 147 034112
     doi.org/10.1063/1.4993215
  7. Caldeweyher,E.; Ehlert,S.; Hansen,A.; Neugebauer,H.; Spicher,S.; Bannwarth,C.; Grimme,S.
     A generally applicable atomic-charge dependent London dispersion correction
     J. Chem. Phys., 2019 150 154122
     doi.org/10.1063/1.5090222
  8. Caldeweyher,E.; Mewes,J.; Ehlert,S.; Grimme,S.
     Extension and evaluation of the D4 London-dispersion model for periodic systems
     Phys. Chem. Chem. Phys., 2020 22(16)8499-8512
     doi.org/10.1039/D0CP00502A
  9. Wittmann,L.; Gordiy,I.; Friede,M.; Helmich-Paris,B.; Grimme,S.; Hansen,A.; Bursch,M.
     Extension of the D3 and D4 London Dispersion Corrections to the full Actinides Series
     Phys. Chem. Chem. Phys., 2024 26(32)21379-21394
     doi.org/https://doi.org/10.1039/D4CP01514B 

List of suggested additional citations. These are papers that are important in the 'surrounding' of 
of this run, or papers that preceded the highly important papers. If you like your results we are grateful for a citation.

  1. Izsak,R.; Neese,F.
     An overlap fitted chain of spheres exchange method
     J. Chem. Phys., 2011 135 144105
     doi.org/10.1063/1.3646921
  2. Izsak,R.; Hansen,A.; Neese,F.
     The resolution of identity and chain of spheres approximations for the LPNO-CCSD singles Fock term
     Molec. Phys., 2012 110 2413-2417
     doi.org/10.1080/00268976.2012.687466
  3. Neese,F.
     The ORCA program system
     WIRES Comput. Molec. Sci., 2012 2(1)73-78
     doi.org/10.1002/wcms.81
  4. Izsak,R.; Neese,F.; Klopper,W.
     Robust fitting techniques in the chain of spheres approximation to the Fock exchange: The role of the complementary space
     J. Chem. Phys., 2013 139 
     doi.org/10.1063/1.4819264
  5. Neese,F.
     Software update: the ORCA program system, version 4.0
     WIRES Comput. Molec. Sci., 2018 8(1)1-6
     doi.org/10.1002/wcms.1327
  6. Neese,F.; Wennmohs,F.; Becker,U.; Riplinger,C.
     The ORCA quantum chemistry program package
     J. Chem. Phys., 2020 152 Art. No. L224108
     doi.org/10.1063/5.0004608

List of optional additional citations

  1. Neese,F.
     Approximate second-order SCF convergence for spin unrestricted wavefunctions
     Chem. Phys. Lett., 2000 325(1-3)93-98
     doi.org/10.1016/s0009-2614(00)00662-x

Timings for individual modules:

Sum of individual times          ...     1386.947 sec (=  23.116 min)
Startup calculation              ...       87.710 sec (=   1.462 min)   6.3 %
SCF iterations                   ...      942.417 sec (=  15.707 min)  67.9 %
Property integrals               ...       53.937 sec (=   0.899 min)   3.9 %
SCF Response                     ...       37.552 sec (=   0.626 min)   2.7 %
Property calculations            ...       75.051 sec (=   1.251 min)   5.4 %
SCF Gradient evaluation          ...      189.737 sec (=   3.162 min)  13.7 %
Geometry relaxation              ...        0.543 sec (=   0.009 min)   0.0 %
                             ****ORCA TERMINATED NORMALLY****
TOTAL RUN TIME: 0 days 0 hours 23 minutes 18 seconds 880 msec
