
                                 *****************
                                 * O   R   C   A *
                                 *****************

                                            #,                                       
                                            ###                                      
                                            ####                                     
                                            #####                                    
                                            ######                                   
                                           ########,                                 
                                     ,,################,,,,,                         
                               ,,#################################,,                 
                          ,,##########################################,,             
                       ,#########################################, ''#####,          
                    ,#############################################,,   '####,        
                  ,##################################################,,,,####,       
                ,###########''''           ''''###############################       
              ,#####''   ,,,,##########,,,,          '''####'''          '####       
            ,##' ,,,,###########################,,,                        '##       
           ' ,,###''''                  '''############,,,                           
         ,,##''                                '''############,,,,        ,,,,,,###''
      ,#''                                            '''#######################'''  
     '                                                          ''''####''''         
             ,#######,   #######,   ,#######,      ##                                
            ,#'     '#,  ##    ##  ,#'     '#,    #''#        ,####,   ,####,        
            ##       ##  ##   ,#'  ##            #'  '#       #'       #'  '#        
            ##       ##  #######   ##           ,######,      #####,   #    #        
            '#,     ,#'  ##    ##  '#,     ,#' ,#      #,     #,   #   #,  ,#        
             '#######'   ##     ##  '#######'  #'      '#     '####' # '####'        



                #########################################################
                #                        -***-                          #
                #          Department of theory and spectroscopy        #
                #                                                       #
                #                      Frank Neese                      #
                #                                                       #
                #     Directorship, Architecture, Infrastructure        #
                #                    SHARK, DRIVERS                     #
                #        Core code/Algorithms in most modules           #
                #                                                       #
                #        Max Planck Institute fuer Kohlenforschung      #
                #                Kaiser Wilhelm Platz 1                 #
                #                 D-45470 Muelheim/Ruhr                 #
                #                      Germany                          #
                #                                                       #
                #                  All rights reserved                  #
                #                        -***-                          #
                #########################################################


                         Program Version 6.0.1  -  RELEASE   -


 With contributions from (in alphabetic order):
[Max-Planck-Institut fuer Kohlenforschung]                               
  Daniel Aravena         : Magnetic Suceptibility                        
  Michael Atanasov       : Ab Initio Ligand Field Theory (pilot matlab implementation)
  Alexander A. Auer      : GIAO ZORA, VPT2 properties, NMR spectrum      
  Ute Becker             : All parallelization in ORCA, NUMFREQ, NUMCALC 
  Giovanni Bistoni       : ED, misc. LED, open-shell LED, HFLD           
  Martin Brehm           : Molecular dynamics                            
  Dmytro Bykov           : pre 5.0 version of the SCF Hessian            
  Marcos Casanova-Páez   : Triplet and SCS-CIS(D). UHF-(DLPNO)-IP/EA/STEOM-CCSD. UHF-CVS-IP/STEOM-CCSD   
  Vijay G. Chilkuri      : MRCI spin determinant printing, contributions to CSF-ICE 
  Pauline Colinet        : FMM embedding                                 
  Dipayan Datta          : RHF DLPNO-CCSD density                        
  Achintya Kumar Dutta   : EOM-CC, STEOM-CC                              
  Nicolas Foglia         : Exact transition moments, OPA infrastructure, MCD improvements    
  Dmitry Ganyushin       : Spin-Orbit,Spin-Spin,Magnetic field MRCI      
  Miquel Garcia-Rates    : C-PCM and meta-GGA Hessian, CCSD/C-PCM, Gaussian charge scheme 
  Tiago L. C. Gouveia    : GS-ROHF, GS-ROCIS                             
  Yang Guo               : DLPNO-NEVPT2, F12-NEVPT2, CIM, IAO-localization        
  Andreas Hansen         : Spin unrestricted coupled pair/coupled cluster methods 
  Ingolf Harden          : AUTO-CI MPn and infrastructure                
  Benjamin Helmich-Paris : MC-RPA, TRAH-(SCF,CASSCF), AVAS, COSX integrals, SCF dyn. polar. 
  Lee Huntington         : MR-EOM, pCC                                   
  Robert Izsak           : Overlap fitted RIJCOSX, COSX-SCS-MP3, EOM     
  Riya Kayal             : Wick's Theorem for AUTO-CI, AUTO-CI UHF-CCSDT 
  Emily Kempfer          : AUTO-CI, RHF CISDT and CCSDT                  
  Christian Kollmar      : KDIIS, OOCD, Brueckner-CCSD(T), CCSD density, CASPT2, CASPT2-K, improved NEVPT2 
  Axel Koslowski         : Symmetry handling                             
  Simone Kossmann        : meta-GGA functionals, TD-DFT gradient, OOMP2, (MP2 Hessian; deprecated post 5.0) 
  Lucas Lang             : DCDCAS                                        
  Marvin Lechner         : AUTO-CI (C++ implementation), FIC-MRCC        
  Spencer Leger          : CASSCF response                               
  Dagmar Lenk            : GEPOL surface, SMD, ORCA-2-JSON               
  Dimitrios Liakos       : Extrapolation schemes; Compound Job, initial MDCI parallelization 
  Dimitrios Manganas     : Further ROCIS development; embedding schemes. LFT, Crystal Embedding 
  Dimitrios Pantazis     : SARC Basis sets                               
  Anastasios Papadopoulos: AUTO-CI, single reference methods and gradients 
  Taras Petrenko         : pre 6.0 DFT Hessian and TD-DFT gradient, (ASA, deprecated), ECA, 1-Electron XAS/XES, NRVS 
  Peter Pinski           : DLPNO-MP2, DLPNO-MP2 Gradient                 
  Christoph Reimann      : Effective Core Potentials                     
  Marius Retegan         : Local ZFS, SOC                                
  Christoph Riplinger    : Optimizer, TS searches, QM/MM, DLPNO-CCSD(T), (RO)-DLPNO pert. Triples 
  Michael Roemelt        : Original ROCIS implementation                 
  Masaaki Saitow         : Open-shell DLPNO-CCSD energy and density      
  Barbara Sandhoefer     : DKH picture change effects                    
  Kantharuban Sivalingam : CASSCF convergence/infrastructure, NEVPT2 and variants, FIC-MRCI 
  Bernardo de Souza      : ESD, SOC TD-DFT                               
  Georgi L. Stoychev     : AutoAux, RI-MP2 NMR, DLPNO-MP2 response, X2C  
  Van Anh Tran           : RI-MP2 g-tensors                              
  Willem Van den Heuvel  : Paramagnetic NMR                              
  Zikuan Wang            : NOTCH, Electric field optimization            
  Frank Wennmohs         : Technical directorship and infrastructure     
  Hang Xu                : AUTO-CI-Response properties                   
                                                                         
[FACCTs GmbH]                                                            
  Markus Bursch, Miquel Garcia-Rates, Christoph Riplinger, Bernardo de Souza, Georgi L. Stoychev 
                                                                 
  APM, Basis sets (HGBS, AHGBS, def-TZVP (Ac-Lr), def2-XVPD (La-Lu)), CI-OPT, improved COSX, DLPNO-Multilevel,           
  DOCKER, DRACO, updates on ESD, GOAT, IRC, LR-CPCM, MBIS, meta-GGA TD-DFT gradient, ML-optimized integration grids, 
  MM, NACMEs, nearIR, NEB, NEB-TS, NL-DFT gradient (VV10), 2- and 3-layer-ONIOM, interface openCOSMO-RS, QMMM,   
  Crystal-QMMM, SF, symmetry and pop. for TD-DFT, r2SCAN hybrids, SOLVATOR                                   
                                                                         
[Other institutions]                                                     
  V. Asgeirsson          : NEB                                           
  Christoph Bannwarth    : sTDA-DFT, sTD-DFT, PBEh-3c, B97-3c, D3        
  Sebastian Ehlert       : rSCAN, r2SCAN, r2SCAN-3c, D4, dhf basis sets  
  Marvin Friede          : D4 for Fr, Ra, Ac-Lr                          
  Lars Goerigk           : TD-DFT with DH, B97 family of functionals     
  Stefan Grimme          : VdW corrections, initial TS optimization, DFT functionals, gCP, sTDA/sTD-DF 
  Waldemar Hujo          : DFT-NL                                        
  H. Jonsson             : NEB                                           
  Holger Kruse           : gCP                                           
  Marcel Mueller         : wB97X-3c, vDZP basis set                      
  Hagen Neugebauer       : wr2SCAN                                       
  Tobias Risthaus        : range-separated hybrid DFT                    
  Lukas Wittmann         : regularized MP2, r2SCAN double-hybrids, wr2SCAN        
                                                                         
We gratefully acknowledge several colleagues who have allowed us to      
interface, adapt or use parts of their codes:                            
  Ed Valeev, F. Pavosevic, A. Kumar             : LibInt (2-el integral package), F12 methods 
  Garnet Chan, S. Sharma, J. Yang, R. Olivares  : DMRG                   
  Ulf Ekstrom                                   : XCFun DFT Library      
  Mihaly Kallay                                 : mrcc  (arbitrary order and MRCC methods)
  Frank Weinhold                                : gennbo (NPA and NBO analysis)           
  Simon Mueller                                 : openCOSMO-RS                            
  Christopher J. Cramer and Donald G. Truhlar   : smd solvation model                     
  S Lehtola, MJT Oliveira, MAL Marques          : LibXC Library                           
  Liviu Ungur et al                             : ANISO software                          


 Your calculation uses the libint2 library for the computation of 2-el integrals
 For citations please refer to: http://libint.valeyev.net

 Your ORCA version has been built with support for libXC version: 6.2.2
 For citations please refer to: https://libxc.gitlab.io

 This ORCA versions uses:
   CBLAS   interface :  Fast vector & matrix operations
   LAPACKE interface :  Fast linear algebra routines
   SCALAPACK package :  Parallel linear algebra routines
   Shared memory     :  Shared parallel matrices
   BLAS/LAPACK       :  OpenBLAS 0.3.27  USE64BITINT DYNAMIC_ARCH NO_AFFINITY SkylakeX SINGLE_THREADED
        Core in use  :  SkylakeX
   Copyright (c) 2011-2014, The OpenBLAS Project


Your calculation utilizes the atom-pairwise dispersion correction
based on EEQ partial charges (D4)


================================================================================

cite the ECPs for C  [vDZP-ECP], O  [vDZP-ECP] as follows:
   B-Ne (ecp-2-mwb), Al-Ar (ecp-10-mwb), Ga-Kr (ecp-28-mwb), Y-Cd (ecp-28-mwb), In-Xe (ecp-46-mwb):
     A. Bergner, M. Dolg, W. Küchle, H. Stoll, and H. Preuß, Mol. Phys. 80, 1431 (1993)., T. Leininger, A. Berning, A. Nicklass, H. Stoll, H.-J. Werner, and H.-J.Flad, Chem. Phys. 217, 19 (1997).
   Na-Mg, K-Ca, Rb-Sr, Cs-Ba (CRENBL):
     L. Fernandez Pacios and P. A. Christiansen, J. Chem. Phys. 82, 2664 (1985)., M. M. Hurley, L. F. Pacios, P. A. Christiansen, R. B. Ross, and W. C. Ermler, J. Chem. Phys. 84, 6840 (1986)., L. A. LaJohn, P. A. Christiansen, R. B. Ross, T. Atashroo, and W. C. Ermler, J. Chem. Phys. 87, 2812 (1987)., R. B. Ross, J. M. Powers, T. Atashroo, W. C. Ermler, L. A. LaJohn, and P. A. Christiansen, J. Chem. Phys. 93, 6654 (1990). 
   Sc-Zn (ecp-10-mdf):
     M. Dolg, U. Wedig, H. Stoll, and H. Preuss, J. Chem. Phys. 86, 866 (1986). 
   Y-Cd (ecp-28-mwb), Hf-Hg (ecp-60-mwb):
     D. Andrae, U. Häußermann, M. Dolg, H. Stoll, and H. Preuß, Theor. Chim. Acta 77, 123 (1990). 
   La (ecp-46-mwb):
     M. Dolg, H. Stoll, and H. Preuss, J. Chem. Phys. 90, 1730 (1989)., M. Dolg, H. Stoll, and H. Preuss, Theor. Chim. Acta 85, 441 (1993).
   Ce-Lu (SBKJC-ecp):
     T. R. Cundari and W. J. Stevens, J. Chem. Phys. 98, 5555 (1993).
   Tl-Rn (ecp-78-mwb):
     W. Küchle, M. Dolg, H. Stoll, and H. Preuss, Mol. Phys. 74, 1245 (1991).

ECP parameters for C  [vDZP-ECP], O  [vDZP-ECP] have been obtained from:
MM, AH, SG, J. Chem. Phys. 158, 014103 (2023), 10.1063/5.0133026

----- Orbital basis set information -----
Your calculation utilizes the basis: vDZP
   Marcel Mueller, Andreas Hansen, Stefan Grimme 
   J. Chem. Phys. 158, 014103 (2023). DOI: 10.1063/5.0133026

----- AuxJ basis set information -----
Your calculation utilizes the auxiliary basis: def2/J
   F. Weigend, Phys. Chem. Chem. Phys. 8, 1057 (2006).

================================================================================
                                        WARNINGS
                       Please study these warnings very carefully!
================================================================================

WARNING: Frozen-Core approximation turned on, but there are no core electrons.
  ===> : Turning off frozen-core approximation


WARNING: Geometry Optimization
  ===> : Switching off AutoStart
         For restart on a previous wavefunction, please use MOREAD

================================================================================
                                       INPUT FILE
================================================================================
NAME = ./output/neral/neral.inp
|  1> ! wB97X-3c OPT FREQ TightSCF
|  2> %pal
|  3>   nprocs 40
|  4> end
|  5> * xyz 0 1
|  6> C      2.463945    -0.982109     0.594007
|  7> C      2.534391    -0.184756    -0.685095
|  8> C      1.431546     0.106878    -1.411765
|  9> C      0.025522    -0.257341    -1.004798
| 10> C     -0.579861     0.827781    -0.106725
| 11> C     -1.979523     0.453483     0.321088
| 12> C     -2.143191    -0.474676     1.283153
| 13> C     -3.454814    -0.917011     1.784870
| 14> O     -3.514177    -1.793534     2.686073
| 15> C     -3.155530     1.134197    -0.332466
| 16> C      3.891431     0.249869    -1.175072
| 17> H      3.474564    -1.104802     1.038125
| 18> H      2.057013    -1.994508     0.390054
| 19> H      1.824480    -0.466125     1.338594
| 20> H      1.538874     0.656479    -2.343282
| 21> H      0.001027    -1.248588    -0.504973
| 22> H     -0.592252    -0.342004    -1.925256
| 23> H     -0.589108     1.790477    -0.662823
| 24> H      0.050894     0.987707     0.794030
| 25> H     -1.265657    -0.932717     1.726161
| 26> H     -4.376935    -0.505861     1.397511
| 27> H     -3.805404     0.378412    -0.821919
| 28> H     -3.740794     1.692386     0.428428
| 29> H     -2.828262     1.853430    -1.111941
| 30> H      3.826589     0.889166    -2.081624
| 31> H      4.500251    -0.645983    -1.418298
| 32> H      4.404980     0.829749    -0.379662
| 33> *
| 34> 
| 35>                          ****END OF INPUT****
================================================================================

                       *****************************
                       * Geometry Optimization Run *
                       *****************************

Geometry optimization settings:
Update method            Update   .... BFGS
Choice of coordinates    CoordSys .... (2022) Redundant Internals
Initial Hessian          InHess   .... Almloef's Model
Max. no of cycles        MaxIter  .... 81

Convergence Tolerances:
Energy Change            TolE     ....  5.0000e-06 Eh
Max. Gradient            TolMAXG  ....  3.0000e-04 Eh/bohr
RMS Gradient             TolRMSG  ....  1.0000e-04 Eh/bohr
Max. Displacement        TolMAXD  ....  4.0000e-03 bohr
RMS Displacement         TolRMSD  ....  2.0000e-03 bohr
Strict Convergence                .... False

------------------------------------------------------------------------------
                        ORCA OPTIMIZATION COORDINATE SETUP
------------------------------------------------------------------------------

The optimization will be done in redundant internal coordinates (2022)
Making redundant internal coordinates   ...  (2022 redundants) done
Evaluating the initial hessian          ...  (Almloef) done
Evaluating the coordinates              ...  done
Calculating the B-matrix                .... done
Calculating the G-matrix                .... done
Diagonalizing the G-matrix              .... done
Small eigenvalue found = 5.976e-03
Small eigenvalue found = 9.496e-03
Small eigenvalue found = 2.422e-02
Small eigenvalue found = 2.471e-02
The first mode is                       ....   39
The number of degrees of freedom        ....   75

    -----------------------------------------------------------------
                    Redundant Internal Coordinates


    -----------------------------------------------------------------
         Definition                    Initial Value    Approx d2E/dq
    -----------------------------------------------------------------
      1. B(C   1,C   0)                  1.5089         0.403656   
      2. B(C   2,C   1)                  1.3525         0.716972   
      3. B(C   3,C   2)                  1.5084         0.404470   
      4. B(C   4,C   3)                  1.5331         0.369292   
      5. B(C   5,C   4)                  1.5107         0.401042   
      6. B(C   6,C   5)                  1.3468         0.732288   
      7. B(C   7,C   6)                  1.4723         0.461740   
      8. B(O   8,C   7)                  1.2586         0.906929   
      9. B(C   9,C   5)                  1.5078         0.405300   
     10. B(C  10,C   1)                  1.5068         0.406767   
     11. B(H  11,C   0)                  1.1107         0.333737   
     12. B(H  12,C   0)                  1.1100         0.334568   
     13. B(H  13,C   0)                  1.1089         0.335998   
     14. B(H  14,C   2)                  1.0869         0.364253   
     15. B(H  15,C   3)                  1.1104         0.334096   
     16. B(H  16,C   3)                  1.1118         0.332410   
     17. B(H  17,C   4)                  1.1118         0.332378   
     18. B(H  18,C   4)                  1.1112         0.333107   
     19. B(H  19,C   6)                  1.0845         0.367460   
     20. B(H  20,C   7)                  1.0814         0.371676   
     21. B(H  21,C   9)                  1.1105         0.334032   
     22. B(H  22,C   9)                  1.1104         0.334055   
     23. B(H  23,C   9)                  1.1099         0.334657   
     24. B(H  24,C  10)                  1.1112         0.333132   
     25. B(H  25,C  10)                  1.1101         0.334441   
     26. B(H  26,C  10)                  1.1103         0.334275   
     27. A(H  11,C   0,H  13)          107.9165         0.284309   
     28. A(C   1,C   0,H  12)          110.0790         0.324527   
     29. A(C   1,C   0,H  11)          110.7841         0.324394   
     30. A(H  12,C   0,H  13)          109.6560         0.284419   
     31. A(H  11,C   0,H  12)          107.8356         0.284121   
     32. A(C   1,C   0,H  13)          110.5026         0.324754   
     33. A(C   0,C   1,C  10)          118.0414         0.373634   
     34. A(C   2,C   1,C  10)          119.8306         0.413158   
     35. A(C   0,C   1,C   2)          122.0938         0.412595   
     36. A(C   1,C   2,C   3)          124.2663         0.412742   
     37. A(C   3,C   2,H  14)          116.4482         0.329212   
     38. A(C   1,C   2,H  14)          119.2735         0.362442   
     39. A(C   2,C   3,C   4)          110.8066         0.367602   
     40. A(H  15,C   3,H  16)          107.0036         0.283883   
     41. A(C   4,C   3,H  16)          108.6301         0.319493   
     42. A(C   2,C   3,H  16)          108.2384         0.324289   
     43. A(C   4,C   3,H  15)          111.0660         0.319757   
     44. A(C   2,C   3,H  15)          110.9507         0.324559   
     45. A(H  17,C   4,H  18)          106.5916         0.283748   
     46. A(C   5,C   4,H  18)          109.3911         0.323948   
     47. A(C   3,C   4,H  18)          110.6440         0.319603   
     48. A(C   5,C   4,H  17)          110.3942         0.323831   
     49. A(C   3,C   4,H  17)          108.8534         0.319488   
     50. A(C   3,C   4,C   5)          110.8773         0.367066   
     51. A(C   4,C   5,C   6)          119.0544         0.413669   
     52. A(C   6,C   5,C   9)          121.7339         0.414446   
     53. A(C   4,C   5,C   9)          119.2104         0.372984   
     54. A(C   7,C   6,H  19)          117.0493         0.337012   
     55. A(C   5,C   6,H  19)          118.9825         0.364299   
     56. A(C   5,C   6,C   7)          123.9681         0.424193   
     57. A(C   6,C   7,O   8)          119.6871         0.437924   
     58. A(O   8,C   7,H  20)          118.7552         0.376318   
     59. A(C   6,C   7,H  20)          121.5577         0.337653   
     60. A(H  21,C   9,H  23)          107.7008         0.284172   
     61. A(C   5,C   9,H  23)          111.5286         0.324758   
     62. A(H  21,C   9,H  22)          109.6149         0.284092   
     63. A(C   5,C   9,H  22)          109.9382         0.324662   
     64. A(H  22,C   9,H  23)          108.1123         0.284175   
     65. A(C   5,C   9,H  21)          109.8909         0.324658   
     66. A(H  25,C  10,H  26)          108.9520         0.284175   
     67. A(H  24,C  10,H  26)          108.1186         0.284002   
     68. A(C   1,C  10,H  26)          109.5275         0.324890   
     69. A(H  24,C  10,H  25)          108.5138         0.284024   
     70. A(C   1,C  10,H  25)          109.4138         0.324916   
     71. A(C   1,C  10,H  24)          112.2519         0.324707   
     72. D(C  10,C   1,C   0,H  12)   -116.6703         0.012083   
     73. D(C   2,C   1,C   0,H  12)     61.1951         0.012083   
     74. D(C   2,C   1,C   0,H  11)   -179.6257         0.012083   
     75. D(C  10,C   1,C   0,H  11)      2.5089         0.012083   
     76. D(C   2,C   1,C   0,H  13)    -60.0731         0.012083   
     77. D(H  14,C   2,C   1,C   0)   -178.0075         0.036355   
     78. D(C   3,C   2,C   1,C   0)      3.2976         0.036355   
     79. D(H  14,C   2,C   1,C  10)     -0.1793         0.036355   
     80. D(C   3,C   2,C   1,C  10)   -178.8741         0.036355   
     81. D(H  16,C   3,C   2,C   1)   -153.9631         0.012129   
     82. D(H  15,C   3,C   2,H  14)    144.4290         0.012129   
     83. D(H  15,C   3,C   2,C   1)    -36.8426         0.012129   
     84. D(C   4,C   3,C   2,H  14)    -91.7065         0.012129   
     85. D(C   4,C   3,C   2,C   1)     87.0219         0.012129   
     86. D(C   5,C   4,C   3,C   2)   -179.0322         0.010905   
     87. D(H  17,C   4,C   3,H  16)    -59.4349         0.010905   
     88. D(H  17,C   4,C   3,C   2)     59.3435         0.010905   
     89. D(H  17,C   4,C   3,H  15)   -176.8581         0.010905   
     90. D(C   5,C   4,C   3,H  16)     62.1893         0.010905   
     91. D(C   5,C   4,C   3,H  15)    -55.2338         0.010905   
     92. D(C   9,C   5,C   4,H  17)     16.5426         0.011933   
     93. D(C   9,C   5,C   4,C   3)   -104.1735         0.011933   
     94. D(C   6,C   5,C   4,H  18)    -46.0649         0.011933   
     95. D(C   6,C   5,C   4,H  17)   -163.0542         0.011933   
     96. D(C   6,C   5,C   4,C   3)     76.2297         0.011933   
     97. D(H  19,C   6,C   5,C   9)   -179.7180         0.038070   
     98. D(H  19,C   6,C   5,C   4)     -0.1319         0.038070   
     99. D(C   7,C   6,C   5,C   9)      0.2058         0.038070   
    100. D(C   7,C   6,C   5,C   4)    179.7920         0.038070   
    101. D(O   8,C   7,C   6,H  19)     -0.2209         0.014522   
    102. D(O   8,C   7,C   6,C   5)    179.8539         0.014522   
    103. D(H  20,C   7,C   6,H  19)    179.7537         0.014522   
    104. D(H  20,C   7,C   6,C   5)     -0.1715         0.014522   
    105. D(H  23,C   9,C   5,C   4)      1.4164         0.012177   
    106. D(H  22,C   9,C   5,C   6)     61.0942         0.012177   
    107. D(H  22,C   9,C   5,C   4)   -118.4913         0.012177   
    108. D(H  21,C   9,C   5,C   6)    -59.6366         0.012177   
    109. D(H  21,C   9,C   5,C   4)    120.7779         0.012177   
    110. D(H  26,C  10,C   1,C   0)    -55.8591         0.012262   
    111. D(H  25,C  10,C   1,C   2)   -114.4102         0.012262   
    112. D(H  25,C  10,C   1,C   0)     63.5052         0.012262   
    113. D(H  24,C  10,C   1,C   2)      6.1180         0.012262   
    114. D(H  24,C  10,C   1,C   0)   -175.9666         0.012262   
    -----------------------------------------------------------------

Number of atoms                         .... 27
Number of degrees of freedom            .... 114


         *************************************************************
         *                GEOMETRY OPTIMIZATION CYCLE   1            *
         *************************************************************
---------------------------------
CARTESIAN COORDINATES (ANGSTROEM)
---------------------------------
  C      2.463945   -0.982109    0.594007
  C      2.534391   -0.184756   -0.685095
  C      1.431546    0.106878   -1.411765
  C      0.025522   -0.257341   -1.004798
  C     -0.579861    0.827781   -0.106725
  C     -1.979523    0.453483    0.321088
  C     -2.143191   -0.474676    1.283153
  C     -3.454814   -0.917011    1.784870
  O     -3.514177   -1.793534    2.686073
  C     -3.155530    1.134197   -0.332466
  C      3.891431    0.249869   -1.175072
  H      3.474564   -1.104802    1.038125
  H      2.057013   -1.994508    0.390054
  H      1.824480   -0.466125    1.338594
  H      1.538874    0.656479   -2.343282
  H      0.001027   -1.248588   -0.504973
  H     -0.592252   -0.342004   -1.925256
  H     -0.589108    1.790477   -0.662823
  H      0.050894    0.987707    0.794030
  H     -1.265657   -0.932717    1.726161
  H     -4.376935   -0.505861    1.397511
  H     -3.805404    0.378412   -0.821919
  H     -3.740794    1.692386    0.428428
  H     -2.828262    1.853430   -1.111941
  H      3.826589    0.889166   -2.081624
  H      4.500251   -0.645983   -1.418298
  H      4.404980    0.829749   -0.379662

----------------------------
CARTESIAN COORDINATES (A.U.)
----------------------------
  NO LB      ZA    FRAG     MASS         X           Y           Z
   0 C     4.0000*   0    12.011    4.656181   -1.855917    1.122511
   1 C     4.0000*   0    12.011    4.789305   -0.349138   -1.294642
   2 C     4.0000*   0    12.011    2.705230    0.201970   -2.667849
   3 C     4.0000*   0    12.011    0.048230   -0.486304   -1.898793
   4 C     4.0000*   0    12.011   -1.095778    1.564279   -0.201681
   5 C     4.0000*   0    12.011   -3.740756    0.856959    0.606768
   6 C     4.0000*   0    12.011   -4.050044   -0.897008    2.424808
   7 C     4.0000*   0    12.011   -6.528652   -1.732900    3.372915
   8 O     6.0000*   0    15.999   -6.640832   -3.389288    5.075942
   9 C     4.0000*   0    12.011   -5.963088    2.143322   -0.628270
  10 C     4.0000*   0    12.011    7.353739    0.472184   -2.220564
  11 H     1.0000    0     1.008    6.565974   -2.087773    1.961772
  12 H     1.0000    0     1.008    3.887191   -3.769074    0.737095
  13 H     1.0000    0     1.008    3.447768   -0.880849    2.529576
  14 H     1.0000    0     1.008    2.908050    1.240566   -4.428161
  15 H     1.0000    0     1.008    0.001941   -2.359489   -0.954261
  16 H     1.0000    0     1.008   -1.119194   -0.646294   -3.638207
  17 H     1.0000    0     1.008   -1.113253    3.383511   -1.252554
  18 H     1.0000    0     1.008    0.096176    1.866496    1.500499
  19 H     1.0000    0     1.008   -2.391745   -1.762580    3.261972
  20 H     1.0000    0     1.008   -8.271208   -0.955939    2.640913
  21 H     1.0000    0     1.008   -7.191171    0.715095   -1.553202
  22 H     1.0000    0     1.008   -7.069076    3.198146    0.809612
  23 H     1.0000    0     1.008   -5.344641    3.502475   -2.101264
  24 H     1.0000    0     1.008    7.231205    1.680280   -3.933699
  25 H     1.0000    0     1.008    8.504242   -1.220731   -2.680195
  26 H     1.0000    0     1.008    8.324206    1.567998   -0.717457
* core charge reduced due to ECP

--------------------------------
INTERNAL COORDINATES (ANGSTROEM)
--------------------------------
 C      0   0   0     0.000000000000     0.00000000     0.00000000
 C      1   0   0     1.508918941471     0.00000000     0.00000000
 C      2   1   0     1.352540858119   122.09375173     0.00000000
 C      3   2   1     1.508370348298   124.26632870     3.29764349
 C      4   3   2     1.533138429791   110.80656778    87.02194346
 C      5   4   3     1.510687482578   110.87726816   180.96775665
 C      6   5   4     1.346787068445   119.05444923    76.22974697
 C      7   6   5     1.472323026527   123.96813396   179.79196747
 O      8   7   6     1.258564016054   119.68705427   179.85390641
 C      6   5   4     1.507811939454   119.21039934   255.82648247
 C      2   1   3     1.506829092085   118.04135295   182.13458715
 H      1   2   3     1.110695787934   110.78414039   180.37433713
 H      1   2   3     1.110019015168   110.07901720    61.19512558
 H      1   2   3     1.108857418720   110.50257778   299.92691749
 H      3   2   1     1.086878318890   119.27346826   181.99251948
 H      4   3   2     1.110403372950   110.95067017   323.15742452
 H      4   3   2     1.111780314814   108.23836516   206.03691737
 H      5   4   3     1.111806674305   108.85344248    59.34348376
 H      5   4   3     1.111210045638   110.64396583   302.52986018
 H      7   6   5     1.084492308364   118.98250008   359.86813477
 H      8   7   6     1.081387283087   121.55774114   359.82851041
 H     10   6   5     1.110455501724   109.89088988   120.77789454
 H     10   6   5     1.110436215482   109.93817983   241.50868520
 H     10   6   5     1.109946722928   111.52864419     1.41641240
 H     11   2   1     1.111189303349   112.25192692   184.03340172
 H     11   2   1     1.110122283976   109.41384331    63.50519822
 H     11   2   1     1.110256933282   109.52747892   304.14087593

---------------------------
INTERNAL COORDINATES (A.U.)
---------------------------
 C      0   0   0     0.000000000000     0.00000000     0.00000000
 C      1   0   0     2.851443557666     0.00000000     0.00000000
 C      2   1   0     2.555931806784   122.09375173     0.00000000
 C      3   2   1     2.850406866811   124.26632870     3.29764349
 C      4   3   2     2.897211757695   110.80656778    87.02194346
 C      5   4   3     2.854785616015   110.87726816   180.96775665
 C      6   5   4     2.545058720067   119.05444923    76.22974697
 C      7   6   5     2.782287300803   123.96813396   179.79196747
 O      8   7   6     2.378341312351   119.68705427   179.85390641
 C      6   5   4     2.849351627025   119.21039934   255.82648247
 C      2   1   3     2.847494314666   118.04135295   182.13458715
 H      1   2   3     2.098910857295   110.78414039   180.37433713
 H      1   2   3     2.097631942112   110.07901720    61.19512558
 H      1   2   3     2.095436842947   110.50257778   299.92691749
 H      3   2   1     2.053902363600   119.27346826   181.99251948
 H      4   3   2     2.098358273058   110.95067017   323.15742452
 H      4   3   2     2.100960316084   108.23836516   206.03691737
 H      5   4   3     2.101010128302   108.85344248    59.34348376
 H      5   4   3     2.099882663517   110.64396583   302.52986018
 H      7   6   5     2.049393457152   118.98250008   359.86813477
 H      8   7   6     2.043525809739   121.55774114   359.82851041
 H     10   6   5     2.098456782165   109.89088988   120.77789454
 H     10   6   5     2.098420336448   109.93817983   241.50868520
 H     10   6   5     2.097495329577   111.52864419     1.41641240
 H     11   2   1     2.099843466272   112.25192692   184.03340172
 H     11   2   1     2.097827091878   109.41384331    63.50519822
 H     11   2   1     2.098081542190   109.52747892   304.14087593

---------------------
BASIS SET INFORMATION
---------------------
There are 3 groups of distinct atoms

 Group   1 Type C   : 6s6p2d contracted to 2s2p1d pattern {42/42/2}
 Group   2 Type O   : 6s6p2d contracted to 2s2p1d pattern {42/42/2}
 Group   3 Type H   : 8s2p contracted to 2s1p pattern {53/2}

Atom   0C    basis set group =>   1
Atom   1C    basis set group =>   1
Atom   2C    basis set group =>   1
Atom   3C    basis set group =>   1
Atom   4C    basis set group =>   1
Atom   5C    basis set group =>   1
Atom   6C    basis set group =>   1
Atom   7C    basis set group =>   1
Atom   8O    basis set group =>   2
Atom   9C    basis set group =>   1
Atom  10C    basis set group =>   1
Atom  11H    basis set group =>   3
Atom  12H    basis set group =>   3
Atom  13H    basis set group =>   3
Atom  14H    basis set group =>   3
Atom  15H    basis set group =>   3
Atom  16H    basis set group =>   3
Atom  17H    basis set group =>   3
Atom  18H    basis set group =>   3
Atom  19H    basis set group =>   3
Atom  20H    basis set group =>   3
Atom  21H    basis set group =>   3
Atom  22H    basis set group =>   3
Atom  23H    basis set group =>   3
Atom  24H    basis set group =>   3
Atom  25H    basis set group =>   3
Atom  26H    basis set group =>   3
---------------------------------
AUXILIARY/J BASIS SET INFORMATION
---------------------------------
There are 3 groups of distinct atoms

 Group   1 Type C   : 12s5p4d2f1g contracted to 6s4p3d1f1g pattern {711111/2111/211/2/1}
 Group   2 Type O   : 12s5p4d2f1g contracted to 6s4p3d1f1g pattern {711111/2111/211/2/1}
 Group   3 Type H   : 5s2p1d contracted to 3s1p1d pattern {311/2/1}

Atom   0C    basis set group =>   1
Atom   1C    basis set group =>   1
Atom   2C    basis set group =>   1
Atom   3C    basis set group =>   1
Atom   4C    basis set group =>   1
Atom   5C    basis set group =>   1
Atom   6C    basis set group =>   1
Atom   7C    basis set group =>   1
Atom   8O    basis set group =>   2
Atom   9C    basis set group =>   1
Atom  10C    basis set group =>   1
Atom  11H    basis set group =>   3
Atom  12H    basis set group =>   3
Atom  13H    basis set group =>   3
Atom  14H    basis set group =>   3
Atom  15H    basis set group =>   3
Atom  16H    basis set group =>   3
Atom  17H    basis set group =>   3
Atom  18H    basis set group =>   3
Atom  19H    basis set group =>   3
Atom  20H    basis set group =>   3
Atom  21H    basis set group =>   3
Atom  22H    basis set group =>   3
Atom  23H    basis set group =>   3
Atom  24H    basis set group =>   3
Atom  25H    basis set group =>   3
Atom  26H    basis set group =>   3
-------------------------
ECP PARAMETER INFORMATION
-------------------------

 Group 1, Type C  ECP vDZP-ECP (replacing 2 core electrons, lmax=3)
 Group 2, Type O  ECP vDZP-ECP (replacing 2 core electrons, lmax=3)

Atom   0C    ECP group =>   1
Atom   1C    ECP group =>   1
Atom   2C    ECP group =>   1
Atom   3C    ECP group =>   1
Atom   4C    ECP group =>   1
Atom   5C    ECP group =>   1
Atom   6C    ECP group =>   1
Atom   7C    ECP group =>   1
Atom   8O    ECP group =>   2
Atom   9C    ECP group =>   1
Atom  10C    ECP group =>   1



           ************************************************************
           *        Program running with 40 parallel MPI-processes    *
           *              working on a common directory               *
           ************************************************************
------------------------------------------------------------------------------
                             ORCA STARTUP CALCULATIONS
                           -- RI-GTO INTEGRALS CHOSEN --
------------------------------------------------------------------------------
------------------------------------------------------------------------------
                   ___                                                        
                  /   \      - P O W E R E D   B Y -                         
                 /     \                                                     
                 |  |  |   _    _      __       _____    __    __             
                 |  |  |  | |  | |    /  \     |  _  \  |  |  /  |          
                  \  \/   | |  | |   /    \    | | | |  |  | /  /          
                 / \  \   | |__| |  /  /\  \   | |_| |  |  |/  /          
                |  |  |   |  __  | /  /__\  \  |    /   |      \           
                |  |  |   | |  | | |   __   |  |    \   |  |\   \          
                \     /   | |  | | |  |  |  |  | |\  \  |  | \   \       
                 \___/    |_|  |_| |__|  |__|  |_| \__\ |__|  \__/        
                                                                              
                      - O R C A' S   B I G   F R I E N D -                    
                                      &                                       
                       - I N T E G R A L  F E E D E R -                       
                                                                              
 v1 FN, 2020, v2 2021, v3 2022-2024                                           
------------------------------------------------------------------------------


----------------------
SHARK INTEGRAL PACKAGE
----------------------

Number of atoms                             ...     27
Number of basis functions                   ...    223
Number of shells                            ...    103
Maximum angular momentum                    ...      2
Integral batch strategy                     ... SHARK/LIBINT Hybrid
RI-J (if used) integral strategy            ... SPLIT-RIJ (Revised 2003 algorithm where possible)
Printlevel                                  ...      1
Contraction scheme used                     ... SEGMENTED contraction
Prescreening option                         ... SCHWARTZ
   Thresh                                   ... 2.500e-11
   Tcut                                     ... 2.500e-12
   Tpresel                                  ... 2.500e-12 
Coulomb Range Separation                    ... NOT USED
Exchange Range Separation                   ... Long Range
   Mu parameter                             ... 3.000e-01
   Scaling (regular/separated)              ... 1.670e-01 8.330e-01
Multipole approximations                    ... NOT USED
Finite Nucleus Model                        ... NOT USED
CABS basis                                  ... NOT available
Auxiliary Coulomb fitting basis             ... AVAILABLE
   # of basis functions in Aux-J            ...    715
   # of shells in Aux-J                     ...    245
   Maximum angular momentum in Aux-J        ...      4
Auxiliary J/K fitting basis                 ... NOT available
Auxiliary Correlation fitting basis         ... NOT available
Auxiliary 'external' fitting basis          ... NOT available

Checking pre-screening integrals            ... done (  0.0 sec) Dimension = 103
Check shell pair data                       ... done (  0.0 sec)
Shell pair information
Shell pair cut-off parameter TPreSel        ...   2.5e-12
Total number of shell pairs                 ...      5356
Shell pairs after pre-screening             ...      5241
Total number of primitive shell pairs       ...     49844
Primitive shell pairs kept                  ...     37912
          la=0 lb=0:   1471 shell pairs
          la=1 lb=0:   2011 shell pairs
          la=1 lb=1:    708 shell pairs
          la=2 lb=0:    584 shell pairs
          la=2 lb=1:    402 shell pairs
          la=2 lb=2:     65 shell pairs

Calculating one electron integrals          ... done (  0.0 sec)
Calculating ECP integrals                   ... done (  0.1 sec)
Calculating RI/J V-Matrix + Cholesky decomp.... done (  0.0 sec)
Calculating Nuclear repulsion               ... done (  0.0 sec) ENN=    311.234962304934 Eh

Diagonalization of the overlap matrix:
Smallest eigenvalue                        ... 1.114e-03
Time for diagonalization                   ...    0.007 sec
Threshold for overlap eigenvalues          ... 1.000e-07
Number of eigenvalues below threshold      ... 0
Time for construction of square roots      ...    0.005 sec
Total time needed                          ...    0.015 sec

-------------------
DFT GRID GENERATION
-------------------

General Integration Accuracy     IntAcc      ... 4.388
Radial Grid Type                 RadialGrid  ... OptM3 with GC (2021)
Angular Grid (max. ang.)         AngularGrid ... 4 (Lebedev-302)
Angular grid pruning method      GridPruning ... 4 (adaptive)
Weight generation scheme         WeightScheme... mBecke (2022)
Basis function cutoff            BFCut       ... 1.0000e-11
Integration weight cutoff        WCut        ... 1.0000e-14
Partially contracted basis set               ... off
Rotationally invariant grid construction     ... off
Angular grids for H and He will be reduced by one unit

Total number of grid points                  ...   117220
Total number of batches                      ...     1845
Average number of points per batch           ...       63
Average number of grid points per atom       ...     4341

--------------------
COSX GRID GENERATION
--------------------

GRIDX 1
-------
General Integration Accuracy     IntAcc      ... 3.816
Radial Grid Type                 RadialGrid  ... OptM3 with GC (2021)
Angular Grid (max. ang.)         AngularGrid ... 1 (Lebedev-50)
Angular grid pruning method      GridPruning ... 4 (adaptive)
Weight generation scheme         WeightScheme... mBecke (2022)
Basis function cutoff            BFCut       ... 1.0000e-11
Integration weight cutoff        WCut        ... 1.0000e-14
Partially contracted basis set               ... on
Rotationally invariant grid construction     ... off
Angular grids for H and He will be reduced by one unit

Total number of grid points                  ...    14978
Total number of batches                      ...      135
Average number of points per batch           ...      110
Average number of grid points per atom       ...      555
UseSFitting                                  ... on

GRIDX 2
-------
General Integration Accuracy     IntAcc      ... 4.020
Radial Grid Type                 RadialGrid  ... OptM3 with GC (2021)
Angular Grid (max. ang.)         AngularGrid ... 2 (Lebedev-110)
Angular grid pruning method      GridPruning ... 4 (adaptive)
Weight generation scheme         WeightScheme... mBecke (2022)
Basis function cutoff            BFCut       ... 1.0000e-11
Integration weight cutoff        WCut        ... 1.0000e-14
Partially contracted basis set               ... on
Rotationally invariant grid construction     ... off
Angular grids for H and He will be reduced by one unit

Total number of grid points                  ...    31558
Total number of batches                      ...      259
Average number of points per batch           ...      121
Average number of grid points per atom       ...     1169
UseSFitting                                  ... on

GRIDX 3
-------
General Integration Accuracy     IntAcc      ... 4.338
Radial Grid Type                 RadialGrid  ... OptM3 with GC (2021)
Angular Grid (max. ang.)         AngularGrid ... 3 (Lebedev-194)
Angular grid pruning method      GridPruning ... 4 (adaptive)
Weight generation scheme         WeightScheme... mBecke (2022)
Basis function cutoff            BFCut       ... 1.0000e-11
Integration weight cutoff        WCut        ... 1.0000e-14
Partially contracted basis set               ... on
Rotationally invariant grid construction     ... off
Angular grids for H and He will be reduced by one unit

Total number of grid points                  ...    68852
Total number of batches                      ...      552
Average number of points per batch           ...      124
Average number of grid points per atom       ...     2550
UseSFitting                                  ... on
Initializing property integral containers    ... done (  0.0 sec)

SHARK setup successfully completed in   3.4 seconds

Maximum memory used throughout the entire STARTUP-calculation: 35.0 MB


           ************************************************************
           *        Program running with 40 parallel MPI-processes    *
           *              working on a common directory               *
           ************************************************************
-------------------------------------------------------------------------------
                                 ORCA GUESS
                   Start orbitals & Density for SCF / CASSCF
-------------------------------------------------------------------------------

------------
SCF SETTINGS
------------
Hamiltonian:
 Density Functional     Method          .... DFT(GTOs)
 Exchange Functional    Exchange        .... WB97X-V
 Correlation Functional Correlation     .... WB97X-V
 Gradients option       PostSCFGGA      .... off
 Hybrid DFT is turned on
   Fraction HF Exchange ScalHFX         ....  0.167000
   Scaling of DF-GGA-X  ScalDFX         ....  0.000000
   Scaling of DF-GGA-C  ScalDFC         ....  1.000000
   Scaling of DF-LDA-C  ScalLDAC        ....  1.000000
   Perturbative correction              ....  0.000000
 Long-range corrected/Screened/Range-Separated Hybrid DFT is turned on
   Amount of maximum screened exact exchange              ....  0.833000
   Range separation parameter mu (erf(mu*r12)/r12)        ....  0.300000
   NL short-range parameter             ....  6.000000
   NL long-range parameter              ....  0.010000
 RI-approximation to the Coulomb term is turned on
   Number of AuxJ basis functions       .... 715
   RIJ-COSX (HFX calculated with COS-X)).... on


General Settings:
 Integral files         IntName         .... ./output/neral/neral
 Hartree-Fock type      HFTyp           .... RHF
 Total Charge           Charge          ....    0
 Multiplicity           Mult            ....    1
 Number of Electrons    NEL             ....   62
 Basis Dimension        Dim             ....  223
 Nuclear Repulsion      ENuc            ....    311.2349623049 Eh

Convergence Acceleration:
 AO-DIIS                CNVDIIS         .... on
   Start iteration      DIISMaxIt       ....    12
   Startup error        DIISStart       ....  0.200000
   # of expansion vecs  DIISMaxEq       ....     5
   Bias factor          DIISBfac        ....   1.050
   Max. coefficient     DIISMaxC        ....  10.000
 MO-DIIS                CNVKDIIS        .... off
 Trust-Rad. Augm. Hess. CNVTRAH         .... auto
   Auto Start mean grad. ratio tolernc. ....  1.125000
   Auto Start start iteration           ....    50
   Auto Start num. interpolation iter.  ....    10
   Max. Number of Micro iterations      ....    24
   Max. Number of Macro iterations      .... Maxiter - #DIIS iter
   Number of Davidson start vectors     ....     2
   Converg. threshold    (grad. norm)   ....   1.000e-05
   Grad. Scal. Fac. for Micro threshold ....   0.100
   Minimum threshold for Micro iter.    ....   1.000e-02
   NR start threshold (gradient norm)   ....   1.000e-04
   Initial trust radius                 ....   0.400
   Minimum AH scaling param. (alpha)    ....   1.000
   Maximum AH scaling param. (alpha)    .... 1000.000
   Quad. conv. algorithm                .... NR
   White noise on init. David. guess    .... on
   Maximum white noise                  ....   0.010
   Pseudo random numbers                .... off
   Inactive MOs                         .... canonical
   Orbital update algorithm             .... Taylor
   Preconditioner                       .... Diag
   Full preconditioner red. dimension   ....   250
 SOSCF                  CNVSOSCF        .... on
   Start iteration      SOSCFMaxIt      ....   150
   Startup grad/error   SOSCFStart      ....  0.003300
   Hessian update       SOSCFHessUp     .... L-BFGS
 Level Shifting         CNVShift        .... on
   Level shift para.    LevelShift      ....    0.2500
   Turn off err/grad.   ShiftErr        ....    0.0010
 Zerner damping         CNVZerner       .... off
 Static damping         CNVDamp         .... on
   Fraction old density DampFac         ....    0.7000
   Max. Damping (<1)    DampMax         ....    0.9800
   Min. Damping (>=0)   DampMin         ....    0.0000
   Turn off err/grad.   DampErr         ....    0.1000

SCF Procedure:
 Maximum # iterations   MaxIter         ....   125
 SCF integral mode      SCFMode         .... Direct
   Integral package                     .... SHARK and LIBINT hybrid scheme
 Reset frequency        DirectResetFreq ....    20
 Integral Threshold     Thresh          ....  2.500e-11 Eh
 Primitive CutOff       TCut            ....  2.500e-12 Eh

Convergence Tolerance:
 Convergence Check Mode ConvCheckMode   .... Total+1el-Energy
 Convergence forced     ConvForced      .... 0
 Energy Change          TolE            ....  1.000e-08 Eh
 1-El. energy change                    ....  1.000e-05 Eh
 Orbital Gradient       TolG            ....  1.000e-05
 Orbital Rotation angle TolX            ....  1.000e-05
 DIIS Error             TolErr          ....  5.000e-07

------------------------------
INITIAL GUESS: MODEL POTENTIAL
------------------------------
Loading Hartree-Fock densities                     ... done
Atomic calculation to generate a density for atom 0 (C  with ECP)
  Multiplicity assumed   :    1
  Atomic configuration   : 1s2 2s2 2p2 
  Number of open shells  : 1
  Command: /home/aspe232/Project/Software/ORCA/6_0_1/build/orca ./output/neral/neral_atom6.inp "" > ./output/neral/neral_atom6.out
Returned from the atomic calculation with res=0
Atomic calculation to generate a density for atom 8 (O  with ECP)
  Multiplicity assumed   :    3
  Atomic configuration   : 1s2 2s2 2p4 
  Number of open shells  : 1
  Command: /home/aspe232/Project/Software/ORCA/6_0_1/build/orca ./output/neral/neral_atom8.inp "" > ./output/neral/neral_atom8.out
Returned from the atomic calculation with res=0
Calculating cut-offs                               ... done
Initializing the effective Hamiltonian             ... done
Setting up the integral package (SHARK)            ... done
Starting the Coulomb interaction                   ... done (   0.0 sec)
Making the grid                                    ... done (   0.8 sec)
Mapping shells                                     ... done
Starting the XC term evaluation                    ... done (   0.0 sec)
  promolecular density results
     # of electrons  =     83.992792028
     EX              =    -42.567060570
     EC              =     -3.366344636
     EX+EC           =    -45.933405206
Transforming the Hamiltonian                       ... done (   0.0 sec)
Diagonalizing the Hamiltonian                      ... done (   0.0 sec)
Back transforming the eigenvectors                 ... done (   0.0 sec)
Now organizing SCF variables                       ... done
                      ------------------
                      INITIAL GUESS DONE (   2.1 sec)
                      ------------------
             **** ENERGY FILE WAS UPDATED (./output/neral/neral.en.tmp) ****
Finished Guess after   2.7 sec
Maximum memory used throughout the entire GUESS-calculation: 21.6 MB


           ************************************************************
           *        Program running with 40 parallel MPI-processes    *
           *              working on a common directory               *
           ************************************************************

-------------------------------------------------------------------------------------------
                                      ORCA LEAN-SCF
                              memory conserving SCF solver
-------------------------------------------------------------------------------------------

----------------------------------------D-I-I-S--------------------------------------------
Iteration    Energy (Eh)           Delta-E    RMSDP     MaxDP     DIISErr   Damp  Time(sec)
-------------------------------------------------------------------------------------------
               ***  Starting incremental Fock matrix formation  ***
    1    -82.1560446181073303     0.00e+00  3.84e-03  7.63e-02  1.78e-01  0.700   4.7
    2    -82.3333525790479257    -1.77e-01  2.81e-03  5.42e-02  1.02e-01  0.700   3.6
                               ***Turning on AO-DIIS***
    3    -82.4270216558692823    -9.37e-02  1.48e-03  2.90e-02  5.46e-02  0.700   3.4
    4    -82.4825770900199586    -5.56e-02  3.13e-03  6.00e-02  3.45e-02  0.000   3.3
    5    -82.6001432361549632    -1.18e-01  2.81e-04  9.46e-03  8.89e-03  0.000   3.5
    6    -82.6005267412327839    -3.84e-04  1.31e-04  7.11e-03  6.48e-03  0.000   3.4
                              *** Initializing SOSCF ***
---------------------------------------S-O-S-C-F--------------------------------------
Iteration    Energy (Eh)           Delta-E    RMSDP     MaxDP     MaxGrad    Time(sec)
--------------------------------------------------------------------------------------
    7    -82.6006571553507456    -1.30e-04  7.92e-05  1.89e-03  1.71e-03     3.5
               *** Restarting incremental Fock matrix formation ***
    8    -82.6006468989077121     1.03e-05  4.56e-05  1.16e-03  8.14e-04     4.4
    9    -82.6006599308248042    -1.30e-05  4.40e-05  9.93e-04  3.89e-04     3.7
   10    -82.6006629522984781    -3.02e-06  1.13e-05  5.67e-04  1.79e-04     3.9
   11    -82.6006635175626798    -5.65e-07  5.86e-06  2.63e-04  1.29e-04     4.0
   12    -82.6006636474431843    -1.30e-07  2.22e-06  7.93e-05  2.61e-05     3.7
   13    -82.6006636787451498    -3.13e-08  7.38e-07  3.12e-05  1.31e-05     3.6
   14    -82.6006636788590640    -1.14e-10  3.00e-07  9.30e-06  3.80e-06     3.2
                 **** Energy Check signals convergence ****

               *****************************************************
               *                     SUCCESS                       *
               *           SCF CONVERGED AFTER  14 CYCLES          *
               *****************************************************

Recomputing exchange energy using gridx3       ... done (    3.717 sec)
Old exchange energy                            :    -11.889231585 Eh
New exchange energy                            :    -11.889210126 Eh
Exchange energy change after final integration :      0.000021459 Eh
Total energy after final integration           :    -82.600642220 Eh
             **** ENERGY FILE WAS UPDATED (./output/neral/neral.en.tmp) ****

----------------
TOTAL SCF ENERGY
----------------

Total Energy       :        -82.60064221965020 Eh           -2247.67774 eV

Components:
Nuclear Repulsion  :        311.23496230493413 Eh            8469.13389 eV
Electronic Energy  :       -393.83562598379319 Eh          -10716.81222 eV
One Electron Energy:       -740.75802144172803 Eh          -20157.05053 eV
Two Electron Energy:        346.92239545793484 Eh            9440.23831 eV

Virial components:
Potential Energy   :       -146.68729018147945 Eh           -3991.56409 eV
Kinetic Energy     :         64.08664796182924 Eh            1743.88635 eV
Virial Ratio       :          2.28889003944859

DFT components:
N(Alpha)           :       31.000076987499 electrons
N(Beta)            :       31.000076987499 electrons
N(Total)           :       62.000153974998 electrons
E(X)               :      -12.592921454795 Eh       
E(C)               :       -2.315446247577 Eh       
E(XC)              :      -14.908367702372 Eh       

---------------
SCF CONVERGENCE
---------------

  Last Energy change         ...    1.1391e-10  Tolerance :   1.0000e-08
  Last MAX-Density change    ...    9.3033e-06  Tolerance :   1.0000e-07
  Last RMS-Density change    ...    3.0017e-07  Tolerance :   5.0000e-09
  Last DIIS Error            ...    1.7118e-03  Tolerance :   5.0000e-07
  Last Orbital Gradient      ...    3.7973e-06  Tolerance :   1.0000e-05
  Last Orbital Rotation      ...    8.3839e-06  Tolerance :   1.0000e-05


----------------
ORBITAL ENERGIES
----------------

  NO   OCC          E(Eh)            E(eV) 
   0   2.0000      -1.137626       -30.9564 
   1   2.0000      -0.988218       -26.8908 
   2   2.0000      -0.958507       -26.0823 
   3   2.0000      -0.903595       -24.5881 
   4   2.0000      -0.852042       -23.1852 
   5   2.0000      -0.831450       -22.6249 
   6   2.0000      -0.825672       -22.4677 
   7   2.0000      -0.756815       -20.5940 
   8   2.0000      -0.723112       -19.6769 
   9   2.0000      -0.667107       -18.1529 
  10   2.0000      -0.642620       -17.4866 
  11   2.0000      -0.612295       -16.6614 
  12   2.0000      -0.587716       -15.9926 
  13   2.0000      -0.579860       -15.7788 
  14   2.0000      -0.562073       -15.2948 
  15   2.0000      -0.550944       -14.9920 
  16   2.0000      -0.545866       -14.8538 
  17   2.0000      -0.534827       -14.5534 
  18   2.0000      -0.519097       -14.1253 
  19   2.0000      -0.508266       -13.8306 
  20   2.0000      -0.503839       -13.7102 
  21   2.0000      -0.496015       -13.4973 
  22   2.0000      -0.490799       -13.3553 
  23   2.0000      -0.489618       -13.3232 
  24   2.0000      -0.476116       -12.9558 
  25   2.0000      -0.470603       -12.8058 
  26   2.0000      -0.445706       -12.1283 
  27   2.0000      -0.434852       -11.8329 
  28   2.0000      -0.362371        -9.8606 
  29   2.0000      -0.360575        -9.8118 
  30   2.0000      -0.334871        -9.1123 
  31   0.0000       0.010129         0.2756 
  32   0.0000       0.074085         2.0160 
  33   0.0000       0.083826         2.2810 
  34   0.0000       0.087407         2.3785 
  35   0.0000       0.095896         2.6095 
  36   0.0000       0.103876         2.8266 
  37   0.0000       0.108827         2.9613 
  38   0.0000       0.124512         3.3881 
  39   0.0000       0.130396         3.5482 
  40   0.0000       0.140246         3.8163 
  41   0.0000       0.147741         4.0202 
*Only the first 10 virtual orbitals were printed.

                    ********************************
                    * MULLIKEN POPULATION ANALYSIS *
                    ********************************

-----------------------
MULLIKEN ATOMIC CHARGES
-----------------------
   0 C :   -0.097732
   1 C :   -0.067945
   2 C :   -0.032533
   3 C :   -0.082868
   4 C :   -0.057735
   5 C :   -0.055749
   6 C :    0.024288
   7 C :    0.195382
   8 O :   -0.353454
   9 C :   -0.102332
  10 C :   -0.083226
  11 H :    0.041129
  12 H :    0.061536
  13 H :    0.044945
  14 H :    0.013078
  15 H :    0.050410
  16 H :    0.049641
  17 H :    0.047966
  18 H :    0.058184
  19 H :    0.025513
  20 H :    0.000951
  21 H :    0.067778
  22 H :    0.073164
  23 H :    0.043356
  24 H :    0.037504
  25 H :    0.051595
  26 H :    0.047153
Sum of atomic charges:    0.0000000

--------------------------------
MULLIKEN REDUCED ORBITAL CHARGES
--------------------------------
  0 C s       :     0.956256  s :     0.956256
      pz      :     0.986377  p :     3.068793
      px      :     1.052947
      py      :     1.029469
      dz2     :     0.015664  d :     0.072683
      dxz     :     0.017903
      dyz     :     0.015165
      dx2y2   :     0.014347
      dxy     :     0.009605

  1 C s       :     1.101967  s :     1.101967
      pz      :     0.950656  p :     2.845751
      px      :     0.943541
      py      :     0.951554
      dz2     :     0.027168  d :     0.120227
      dxz     :     0.030565
      dyz     :     0.016246
      dx2y2   :     0.019726
      dxy     :     0.026521

  2 C s       :     1.032027  s :     1.032027
      pz      :     0.984297  p :     2.909690
      px      :     0.915294
      py      :     1.010100
      dz2     :     0.018273  d :     0.090816
      dxz     :     0.022284
      dyz     :     0.011709
      dx2y2   :     0.018086
      dxy     :     0.020464

  3 C s       :     0.999611  s :     0.999611
      pz      :     1.022744  p :     2.981179
      px      :     0.965230
      py      :     0.993205
      dz2     :     0.015010  d :     0.102078
      dxz     :     0.026037
      dyz     :     0.017549
      dx2y2   :     0.025518
      dxy     :     0.017962

  4 C s       :     0.994591  s :     0.994591
      pz      :     1.028427  p :     2.963758
      px      :     0.929028
      py      :     1.006303
      dz2     :     0.015519  d :     0.099386
      dxz     :     0.024027
      dyz     :     0.019266
      dx2y2   :     0.025819
      dxy     :     0.014754

  5 C s       :     1.117282  s :     1.117282
      pz      :     0.927355  p :     2.814819
      px      :     0.950652
      py      :     0.936812
      dz2     :     0.027010  d :     0.123649
      dxz     :     0.028605
      dyz     :     0.013317
      dx2y2   :     0.027141
      dxy     :     0.027576

  6 C s       :     1.003439  s :     1.003439
      pz      :     0.984526  p :     2.890548
      px      :     0.924223
      py      :     0.981800
      dz2     :     0.016111  d :     0.081724
      dxz     :     0.020338
      dyz     :     0.008569
      dx2y2   :     0.016766
      dxy     :     0.019941

  7 C s       :     1.120918  s :     1.120918
      pz      :     0.769170  p :     2.509402
      px      :     0.973755
      py      :     0.766477
      dz2     :     0.033473  d :     0.174298
      dxz     :     0.049699
      dyz     :     0.017037
      dx2y2   :     0.025897
      dxy     :     0.048190

  8 O s       :     1.813635  s :     1.813635
      pz      :     1.314228  p :     4.506079
      px      :     1.877045
      py      :     1.314806
      dz2     :     0.010988  d :     0.033740
      dxz     :     0.003630
      dyz     :     0.009698
      dx2y2   :     0.005974
      dxy     :     0.003450

  9 C s       :     0.954679  s :     0.954679
      pz      :     1.041424  p :     3.076690
      px      :     0.994673
      py      :     1.040594
      dz2     :     0.007397  d :     0.070962
      dxz     :     0.016702
      dyz     :     0.019822
      dx2y2   :     0.008929
      dxy     :     0.018112

 10 C s       :     0.960216  s :     0.960216
      pz      :     1.033681  p :     3.047528
      px      :     0.979126
      py      :     1.034721
      dz2     :     0.010894  d :     0.075482
      dxz     :     0.015213
      dyz     :     0.017161
      dx2y2   :     0.010452
      dxy     :     0.021763

 11 H s       :     0.914901  s :     0.914901
      pz      :     0.012518  p :     0.043970
      px      :     0.021079
      py      :     0.010373

 12 H s       :     0.893893  s :     0.893893
      pz      :     0.010588  p :     0.044570
      px      :     0.012180
      py      :     0.021802

 13 H s       :     0.910114  s :     0.910114
      pz      :     0.016892  p :     0.044942
      px      :     0.014780
      py      :     0.013270

 14 H s       :     0.937812  s :     0.937812
      pz      :     0.022031  p :     0.049109
      px      :     0.009901
      py      :     0.017177

 15 H s       :     0.905849  s :     0.905849
      pz      :     0.012479  p :     0.043741
      px      :     0.009885
      py      :     0.021377

 16 H s       :     0.908183  s :     0.908183
      pz      :     0.018779  p :     0.042176
      px      :     0.013994
      py      :     0.009403

 17 H s       :     0.909695  s :     0.909695
      pz      :     0.013234  p :     0.042339
      px      :     0.009110
      py      :     0.019995

 18 H s       :     0.898713  s :     0.898713
      pz      :     0.018855  p :     0.043103
      px      :     0.014224
      py      :     0.010024

 19 H s       :     0.925501  s :     0.925501
      pz      :     0.014685  p :     0.048986
      px      :     0.019434
      py      :     0.014866

 20 H s       :     0.954542  s :     0.954542
      pz      :     0.010622  p :     0.044507
      px      :     0.022964
      py      :     0.010921

 21 H s       :     0.887816  s :     0.887816
      pz      :     0.012979  p :     0.044406
      px      :     0.015172
      py      :     0.016255

 22 H s       :     0.882317  s :     0.882317
      pz      :     0.016390  p :     0.044519
      px      :     0.014288
      py      :     0.013841

 23 H s       :     0.912609  s :     0.912609
      pz      :     0.017125  p :     0.044035
      px      :     0.010756
      py      :     0.016155

 24 H s       :     0.919035  s :     0.919035
      pz      :     0.019172  p :     0.043461
      px      :     0.009668
      py      :     0.014621

 25 H s       :     0.904549  s :     0.904549
      pz      :     0.010618  p :     0.043856
      px      :     0.014805
      py      :     0.018433

 26 H s       :     0.909002  s :     0.909002
      pz      :     0.016351  p :     0.043845
      px      :     0.013611
      py      :     0.013883



                     *******************************
                     * LOEWDIN POPULATION ANALYSIS *
                     *******************************

----------------------
LOEWDIN ATOMIC CHARGES
----------------------
   0 C :   -0.113057
   1 C :   -0.050551
   2 C :   -0.061819
   3 C :   -0.087494
   4 C :   -0.078277
   5 C :   -0.000212
   6 C :   -0.066975
   7 C :    0.037682
   8 O :   -0.181007
   9 C :   -0.112129
  10 C :   -0.117860
  11 H :    0.054606
  12 H :    0.056289
  13 H :    0.050366
  14 H :    0.033401
  15 H :    0.052049
  16 H :    0.053692
  17 H :    0.054568
  18 H :    0.058253
  19 H :    0.049731
  20 H :    0.034086
  21 H :    0.058829
  22 H :    0.061459
  23 H :    0.055275
  24 H :    0.054878
  25 H :    0.052890
  26 H :    0.051325

-------------------------------
LOEWDIN REDUCED ORBITAL CHARGES
-------------------------------
  0 C s       :     0.775776  s :     0.775776
      pz      :     1.000648  p :     3.103560
      px      :     1.061789
      py      :     1.041123
      dz2     :     0.047570  d :     0.233720
      dxz     :     0.061373
      dyz     :     0.047769
      dx2y2   :     0.045732
      dxy     :     0.031277

  1 C s       :     0.802114  s :     0.802114
      pz      :     0.959304  p :     2.868364
      px      :     1.014453
      py      :     0.894607
      dz2     :     0.084383  d :     0.380073
      dxz     :     0.099363
      dyz     :     0.051449
      dx2y2   :     0.066910
      dxy     :     0.077967

  2 C s       :     0.806800  s :     0.806800
      pz      :     1.014394  p :     2.957356
      px      :     0.990063
      py      :     0.952899
      dz2     :     0.058391  d :     0.297664
      dxz     :     0.075136
      dyz     :     0.037667
      dx2y2   :     0.065109
      dxy     :     0.061361

  3 C s       :     0.762319  s :     0.762319
      pz      :     1.021889  p :     3.004225
      px      :     0.977024
      py      :     1.005312
      dz2     :     0.048617  d :     0.320950
      dxz     :     0.081903
      dyz     :     0.056723
      dx2y2   :     0.081502
      dxy     :     0.052205

  4 C s       :     0.763210  s :     0.763210
      pz      :     1.025020  p :     3.000587
      px      :     0.966015
      py      :     1.009553
      dz2     :     0.048276  d :     0.314479
      dxz     :     0.076736
      dyz     :     0.061563
      dx2y2   :     0.082769
      dxy     :     0.045135

  5 C s       :     0.805376  s :     0.805376
      pz      :     0.919607  p :     2.813289
      px      :     0.981986
      py      :     0.911695
      dz2     :     0.073345  d :     0.381547
      dxz     :     0.090725
      dyz     :     0.049043
      dx2y2   :     0.081699
      dxy     :     0.086734

  6 C s       :     0.807817  s :     0.807817
      pz      :     0.990321  p :     2.984539
      px      :     1.004904
      py      :     0.989314
      dz2     :     0.043300  d :     0.274619
      dxz     :     0.070391
      dyz     :     0.039207
      dx2y2   :     0.053551
      dxy     :     0.068170

  7 C s       :     0.821152  s :     0.821152
      pz      :     0.810677  p :     2.652490
      px      :     1.036879
      py      :     0.804934
      dz2     :     0.081006  d :     0.488676
      dxz     :     0.130468
      dyz     :     0.075614
      dx2y2   :     0.074680
      dxy     :     0.126909

  8 O s       :     1.568243  s :     1.568243
      pz      :     1.382429  p :     4.542899
      px      :     1.782661
      py      :     1.377809
      dz2     :     0.015060  d :     0.069865
      dxz     :     0.011108
      dyz     :     0.023047
      dx2y2   :     0.010138
      dxy     :     0.010511

  9 C s       :     0.776186  s :     0.776186
      pz      :     1.048446  p :     3.105679
      px      :     1.010171
      py      :     1.047062
      dz2     :     0.021774  d :     0.230264
      dxz     :     0.053765
      dyz     :     0.067343
      dx2y2   :     0.029567
      dxy     :     0.057815

 10 C s       :     0.778355  s :     0.778355
      pz      :     1.053853  p :     3.097895
      px      :     0.988657
      py      :     1.055385
      dz2     :     0.034007  d :     0.241610
      dxz     :     0.048338
      dyz     :     0.057876
      dx2y2   :     0.033266
      dxy     :     0.068123

 11 H s       :     0.800822  s :     0.800822
      pz      :     0.042295  p :     0.144572
      px      :     0.061811
      py      :     0.040466

 12 H s       :     0.795860  s :     0.795860
      pz      :     0.040245  p :     0.147851
      px      :     0.045055
      py      :     0.062550

 13 H s       :     0.801029  s :     0.801029
      pz      :     0.052136  p :     0.148605
      px      :     0.050549
      py      :     0.045920

 14 H s       :     0.810961  s :     0.810961
      pz      :     0.064275  p :     0.155639
      px      :     0.035426
      py      :     0.055938

 15 H s       :     0.801683  s :     0.801683
      pz      :     0.045596  p :     0.146268
      px      :     0.037337
      py      :     0.063335

 16 H s       :     0.801135  s :     0.801135
      pz      :     0.058254  p :     0.145173
      px      :     0.047521
      py      :     0.039397

 17 H s       :     0.801597  s :     0.801597
      pz      :     0.047289  p :     0.143834
      px      :     0.034553
      py      :     0.061992

 18 H s       :     0.796419  s :     0.796419
      pz      :     0.057077  p :     0.145328
      px      :     0.047615
      py      :     0.040636

 19 H s       :     0.801424  s :     0.801424
      pz      :     0.044902  p :     0.148845
      px      :     0.058435
      py      :     0.045508

 20 H s       :     0.827618  s :     0.827618
      pz      :     0.034520  p :     0.138296
      px      :     0.068555
      py      :     0.035220

 21 H s       :     0.793535  s :     0.793535
      pz      :     0.045364  p :     0.147635
      px      :     0.050459
      py      :     0.051812

 22 H s       :     0.791296  s :     0.791296
      pz      :     0.051885  p :     0.147245
      px      :     0.048467
      py      :     0.046893

 23 H s       :     0.799890  s :     0.799890
      pz      :     0.053333  p :     0.144835
      px      :     0.039820
      py      :     0.051681

 24 H s       :     0.803600  s :     0.803600
      pz      :     0.057663  p :     0.141521
      px      :     0.035937
      py      :     0.047921

 25 H s       :     0.800260  s :     0.800260
      pz      :     0.040694  p :     0.146850
      px      :     0.049481
      py      :     0.056674

 26 H s       :     0.802186  s :     0.802186
      pz      :     0.052817  p :     0.146489
      px      :     0.046766
      py      :     0.046906



                      *****************************
                      * MAYER POPULATION ANALYSIS *
                      *****************************

  NA   - Mulliken gross atomic population
  ZA   - Total nuclear charge
  QA   - Mulliken gross atomic charge
  VA   - Mayer's total valence
  BVA  - Mayer's bonded valence
  FA   - Mayer's free valence

  ATOM       NA         ZA         QA         VA         BVA        FA
  0 C      4.0977     4.0000    -0.0977     3.9830     3.9830     0.0000
  1 C      4.0679     4.0000    -0.0679     4.0728     4.0728     0.0000
  2 C      4.0325     4.0000    -0.0325     3.9659     3.9659     0.0000
  3 C      4.0829     4.0000    -0.0829     3.9916     3.9916     0.0000
  4 C      4.0577     4.0000    -0.0577     3.9539     3.9539    -0.0000
  5 C      4.0557     4.0000    -0.0557     4.0299     4.0299     0.0000
  6 C      3.9757     4.0000     0.0243     3.9618     3.9618     0.0000
  7 C      3.8046     4.0000     0.1954     4.0190     4.0190     0.0000
  8 O      6.3535     6.0000    -0.3535     1.9619     1.9619    -0.0000
  9 C      4.1023     4.0000    -0.1023     3.9771     3.9771    -0.0000
 10 C      4.0832     4.0000    -0.0832     3.9786     3.9786     0.0000
 11 H      0.9589     1.0000     0.0411     1.0316     1.0316     0.0000
 12 H      0.9385     1.0000     0.0615     1.0201     1.0201     0.0000
 13 H      0.9551     1.0000     0.0449     1.0231     1.0231     0.0000
 14 H      0.9869     1.0000     0.0131     1.0417     1.0417     0.0000
 15 H      0.9496     1.0000     0.0504     1.0163     1.0163     0.0000
 16 H      0.9504     1.0000     0.0496     1.0157     1.0157    -0.0000
 17 H      0.9520     1.0000     0.0480     1.0180     1.0180    -0.0000
 18 H      0.9418     1.0000     0.0582     1.0184     1.0184     0.0000
 19 H      0.9745     1.0000     0.0255     1.0554     1.0554    -0.0000
 20 H      0.9990     1.0000     0.0010     1.0430     1.0430    -0.0000
 21 H      0.9322     1.0000     0.0678     1.0161     1.0161    -0.0000
 22 H      0.9268     1.0000     0.0732     1.0149     1.0149    -0.0000
 23 H      0.9566     1.0000     0.0434     1.0372     1.0372    -0.0000
 24 H      0.9625     1.0000     0.0375     1.0333     1.0333     0.0000
 25 H      0.9484     1.0000     0.0516     1.0210     1.0210     0.0000
 26 H      0.9528     1.0000     0.0472     1.0218     1.0218    -0.0000

  Mayer bond orders larger than 0.100000
B(  0-C ,  1-C ) :   1.0183 B(  0-C , 11-H ) :   0.9931 B(  0-C , 12-H ) :   0.9804 
B(  0-C , 13-H ) :   0.9859 B(  1-C ,  2-C ) :   1.8950 B(  1-C , 10-C ) :   1.0262 
B(  2-C ,  3-C ) :   1.0205 B(  2-C , 14-H ) :   0.9986 B(  3-C ,  4-C ) :   0.9468 
B(  3-C , 15-H ) :   0.9920 B(  3-C , 16-H ) :   0.9955 B(  4-C ,  5-C ) :   1.0219 
B(  4-C , 17-H ) :   0.9951 B(  4-C , 18-H ) :   0.9871 B(  5-C ,  6-C ) :   1.7961 
B(  5-C ,  9-C ) :   1.0242 B(  6-C ,  7-C ) :   1.1156 B(  6-C , 19-H ) :   0.9876 
B(  7-C ,  8-O ) :   1.8211 B(  7-C , 20-H ) :   1.0177 B(  9-C , 21-H ) :   0.9777 
B(  9-C , 22-H ) :   0.9772 B(  9-C , 23-H ) :   0.9936 B( 10-C , 24-H ) :   0.9948 
B( 10-C , 25-H ) :   0.9803 B( 10-C , 26-H ) :   0.9825 

-------
TIMINGS
-------

Total SCF time: 0 days 0 hours 0 min 59 sec 

Total time                  ....      59.994 sec
Sum of individual times     ....      57.964 sec  ( 96.6%)

SCF preparation             ....       2.446 sec  (  4.1%)
Fock matrix formation       ....      54.025 sec  ( 90.0%)
  Startup                   ....       0.331 sec  (  0.6% of F)
  Split-RI-J                ....       1.855 sec  (  3.4% of F)
  Chain of spheres X        ....      23.408 sec  ( 43.3% of F)
  XC integration            ....      27.553 sec  ( 51.0% of F)
    XC Preparation          ....       0.000 sec  (  0.0% of XC)
    Basis function eval.    ....       0.628 sec  (  2.3% of XC)
    Density eval.           ....       0.274 sec  (  1.0% of XC)
    XC-Functional eval.     ....       0.200 sec  (  0.7% of XC)
    XC-Potential eval.      ....       0.335 sec  (  1.2% of XC)
Diagonalization             ....       0.000 sec  (  0.0%)
Density matrix formation    ....       0.310 sec  (  0.5%)
Total Energy calculation    ....       0.224 sec  (  0.4%)
Population analysis         ....       0.091 sec  (  0.2%)
Orbital Transformation      ....       0.068 sec  (  0.1%)
Orbital Orthonormalization  ....       0.000 sec  (  0.0%)
DIIS solution               ....       0.550 sec  (  0.9%)
SOSCF solution              ....       0.251 sec  (  0.4%)
Finished LeanSCF after  60.0 sec

Maximum memory used throughout the entire LEANSCF-calculation: 41.0 MB


           ************************************************************
           *        Program running with 40 parallel MPI-processes    *
           *              working on a common directory               *
           ************************************************************

------------------------------------------------------------------------------
                         ORCA PROPERTY INTEGRAL CALCULATIONS
------------------------------------------------------------------------------

GBWName                                   ... ./output/neral/neral.gbw
Number of atoms                           ...     27
Number of basis functions                 ...    223
Max core memory                           ...   1024 MB

Dipole integrals                          ... YES
Quadrupole integrals                      ...  NO
Linear momentum integrals                 ...  NO
Angular momentum integrals                ...  NO
Higher moments length integrals           ...  NO
Higher moments velocity integrals         ...  NO
Kinetic energy integrals                  ...  NO
GIAO right hand sides                     ...  NO
GIAO dipole derivative integrals          ...  NO
SOC integrals                             ...  NO
EPR diamagnetic integrals (GIAO)          ...  NO
EPR gauge integrals                       ...  NO
Field gradient integrals                  ...  NO (   0 nuclei)
Spin-dipole/Fermi contact integrals       ...  NO (   0 nuclei)
Contact density integrals                 ...  NO (   0 nuclei)
Nucleus-orbit integrals                   ...  NO (   0 nuclei)
Geometric perturbations                   ...  NO (  27 nuclei)

Choice of electric origin   ... Center of mass
Position of electric origin ... ( -0.7859, -0.3397,  0.3724) 
Choice of magnetic origin   ... GIAO
Position of magnetic origin ... (  0.0000,  0.0000,  0.0000) 

Calculating integrals                     ... Electric Dipole (Length)     done (  0.0 sec)

Property integrals calculated in   0.0 sec

Maximum memory used throughout the entire PROPINT-calculation: 17.4 MB


-------------------------------------------------------------------------------
                          DFT DISPERSION CORRECTION                            
                                                                               
                                DFTD4 V3.4.0                                   
-------------------------------------------------------------------------------
The wB97X-3c composite method is recognized
[...]
 24:    553.43   0.001099    5.55  0.000620  ( 0.021275 -0.012689 -0.002458)
 25:    635.93   0.001324    6.69  0.000650  ( 0.010234 -0.022241 -0.007082)
 26:    777.95   0.000465    2.35  0.000187  (-0.001057 -0.002440 -0.013402)
 27:    836.68   0.000355    1.80  0.000133  ( 0.002473 -0.008859 -0.006924)
 28:    864.42   0.003537   17.87  0.001277  (-0.011232  0.018471  0.028451)
 29:    893.19   0.000508    2.57  0.000177  ( 0.006672 -0.011528 -0.000015)
 30:    910.35   0.002873   14.52  0.000985  ( 0.011319  0.028513  0.006607)
 31:    985.86   0.000082    0.41  0.000026  (-0.004853 -0.000625  0.001417)
 32:    996.91   0.000502    2.54  0.000157  (-0.004579 -0.006882  0.009425)
 33:   1031.75   0.000720    3.64  0.000218  ( 0.000134 -0.008339 -0.012174)
 34:   1032.31   0.001537    7.77  0.000465  ( 0.008757 -0.010388 -0.016731)
 35:   1042.60   0.001258    6.36  0.000377  ( 0.010257  0.005555 -0.015507)
 36:   1063.31   0.000601    3.03  0.000176  (-0.009432 -0.000001  0.009343)
 37:   1088.91   0.002761   13.95  0.000791  ( 0.023434  0.004908 -0.014763)
 38:   1094.69   0.000658    3.33  0.000188  ( 0.013656  0.000855  0.000644)
 39:   1129.28   0.000097    0.49  0.000027  (-0.001732  0.003396  0.003496)
 40:   1155.61   0.001876    9.48  0.000507  ( 0.005866  0.015549 -0.015183)
 41:   1172.71   0.010618   53.66  0.002825  (-0.047977 -0.012444  0.019203)
 42:   1203.37   0.000369    1.87  0.000096  ( 0.006090  0.004030 -0.006514)
 43:   1248.93   0.009278   46.89  0.002318  (-0.042099 -0.012687  0.019621)
 44:   1283.98   0.000521    2.63  0.000127  ( 0.010058  0.004147 -0.002884)
 45:   1315.34   0.000674    3.40  0.000160  (-0.012074  0.000573  0.003702)
 46:   1335.57   0.000198    1.00  0.000046  (-0.004562  0.001943 -0.004654)
 47:   1383.28   0.000318    1.61  0.000072  (-0.003353 -0.002445  0.007384)
 48:   1399.07   0.001932    9.76  0.000431  (-0.019277  0.004828  0.006007)
 49:   1421.20   0.000109    0.55  0.000024  ( 0.000059 -0.004188 -0.002534)
 50:   1451.07   0.000780    3.94  0.000168  (-0.006317 -0.009762  0.005710)
 51:   1457.65   0.005307   26.82  0.001136  ( 0.028405 -0.011427  0.014097)
 52:   1460.26   0.001953    9.87  0.000417  (-0.001394  0.016671 -0.011722)
 53:   1466.80   0.001960    9.91  0.000417  ( 0.016080 -0.004606  0.011717)
 54:   1502.20   0.000158    0.80  0.000033  ( 0.002992 -0.001926 -0.004483)
 55:   1506.61   0.001958    9.89  0.000405  (-0.016718 -0.002252  0.010995)
 56:   1509.56   0.000332    1.68  0.000069  (-0.002499  0.006183  0.004924)
 57:   1520.05   0.000991    5.01  0.000203  ( 0.013356  0.004855 -0.001240)
 58:   1522.83   0.005429   27.44  0.001113  ( 0.006540  0.023860  0.022370)
 59:   1524.92   0.003674   18.57  0.000752  (-0.005436 -0.012352  0.023868)
 60:   1528.94   0.001706    8.62  0.000348  ( 0.010290 -0.013424 -0.007883)
 61:   1539.94   0.002868   14.50  0.000581  ( 0.017160  0.016164  0.005054)
 62:   1762.31   0.012647   63.91  0.002240  ( 0.028378  0.017339 -0.033669)
 63:   1807.09   0.001143    5.78  0.000197  (-0.012596  0.005460 -0.002997)
 64:   1839.48   0.093815  474.10  0.015916  ( 0.056537  0.056415 -0.097654)
 65:   3047.48   0.012474   63.04  0.001277  (-0.032540  0.004019 -0.014226)
 66:   3095.97   0.006205   31.36  0.000625  ( 0.022244  0.008022 -0.008140)
 67:   3101.84   0.007129   36.03  0.000717  (-0.017915  0.016743 -0.010767)
 68:   3102.97   0.002714   13.72  0.000273  ( 0.013826  0.008418  0.003306)
 69:   3112.11   0.004109   20.77  0.000412  ( 0.008631  0.017715  0.004874)
 70:   3117.09   0.004623   23.36  0.000463  (-0.012036  0.002951 -0.017585)
 71:   3166.66   0.000844    4.26  0.000083  (-0.004586 -0.002742 -0.007389)
 72:   3172.40   0.000003    0.02  0.000000  ( 0.000138  0.000166 -0.000526)
 73:   3173.78   0.003627   18.33  0.000357  (-0.000244  0.012793  0.013890)
 74:   3183.08   0.001675    8.47  0.000164  (-0.008292  0.006796 -0.007021)
 75:   3191.90   0.000826    4.18  0.000081  ( 0.001050  0.006077  0.006538)
 76:   3199.50   0.003074   15.54  0.000300  (-0.003144 -0.011684  0.012388)
 77:   3208.89   0.004223   21.34  0.000411  ( 0.003768 -0.014848  0.013268)
 78:   3228.89   0.002883   14.57  0.000279  ( 0.013544  0.007089 -0.006703)
 79:   3236.96   0.000523    2.64  0.000050  ( 0.005682 -0.000362  0.004244)
 80:   3246.06   0.001825    9.22  0.000175  ( 0.013101  0.001937  0.000158)

* The epsilon (eps) is given for a Dirac delta lineshape.
** The dipole moment derivative (T) already includes vibrational overlap.

The first frequency considered to be a vibration is 6
The total number of vibrations considered is 75


--------------------------
THERMOCHEMISTRY AT 298.15K
--------------------------

Temperature         ...   298.15 K
Pressure            ...     1.00 atm
Total Mass          ...   152.24 AMU
Quasi RRHO          ...     True
Cut-Off Frequency   ...     1.00 cm^-1

Throughout the following assumptions are being made:
  (1) The electronic state is orbitally nondegenerate
  (2) There are no thermally accessible electronically excited states
  (3) Hindered rotations indicated by low frequency modes are not
      treated as such but are treated as vibrations and this may
      cause some error
  (4) All equations used are the standard statistical mechanics
      equations for an ideal gas
  (5) All vibrations are strictly harmonic

freq.      17.88  E(vib)   ...       0.57 
freq.      31.81  E(vib)   ...       0.55 
freq.      50.30  E(vib)   ...       0.52 
freq.      87.56  E(vib)   ...       0.48 
freq.     103.98  E(vib)   ...       0.46 
freq.     130.65  E(vib)   ...       0.43 
freq.     139.06  E(vib)   ...       0.42 
freq.     167.53  E(vib)   ...       0.38 
freq.     200.37  E(vib)   ...       0.35 
freq.     235.37  E(vib)   ...       0.32 
freq.     254.47  E(vib)   ...       0.30 
freq.     313.18  E(vib)   ...       0.25 
freq.     350.36  E(vib)   ...       0.23 
freq.     378.46  E(vib)   ...       0.21 
freq.     407.72  E(vib)   ...       0.19 
freq.     469.22  E(vib)   ...       0.16 
freq.     500.81  E(vib)   ...       0.14 
freq.     528.22  E(vib)   ...       0.13 
freq.     553.43  E(vib)   ...       0.12 
freq.     635.93  E(vib)   ...       0.09 
freq.     777.95  E(vib)   ...       0.05 
freq.     836.68  E(vib)   ...       0.04 
freq.     864.42  E(vib)   ...       0.04 
freq.     893.19  E(vib)   ...       0.03 
freq.     910.35  E(vib)   ...       0.03 
freq.     985.86  E(vib)   ...       0.02 
freq.     996.91  E(vib)   ...       0.02 
freq.    1031.75  E(vib)   ...       0.02 
freq.    1032.31  E(vib)   ...       0.02 
freq.    1042.60  E(vib)   ...       0.02 
freq.    1063.31  E(vib)   ...       0.02 
freq.    1088.91  E(vib)   ...       0.02 
freq.    1094.69  E(vib)   ...       0.02 
freq.    1129.28  E(vib)   ...       0.01 
freq.    1155.61  E(vib)   ...       0.01 
freq.    1172.71  E(vib)   ...       0.01 
freq.    1203.37  E(vib)   ...       0.01 
freq.    1248.93  E(vib)   ...       0.01 
freq.    1283.98  E(vib)   ...       0.01 
freq.    1315.34  E(vib)   ...       0.01 
freq.    1335.57  E(vib)   ...       0.01 
freq.    1383.28  E(vib)   ...       0.00 
freq.    1399.07  E(vib)   ...       0.00 
freq.    1421.20  E(vib)   ...       0.00 
freq.    1451.07  E(vib)   ...       0.00 
freq.    1457.65  E(vib)   ...       0.00 
freq.    1460.26  E(vib)   ...       0.00 
freq.    1466.80  E(vib)   ...       0.00 
freq.    1502.20  E(vib)   ...       0.00 
freq.    1506.61  E(vib)   ...       0.00 
freq.    1509.56  E(vib)   ...       0.00 
freq.    1520.05  E(vib)   ...       0.00 
freq.    1522.83  E(vib)   ...       0.00 
freq.    1524.92  E(vib)   ...       0.00 
freq.    1528.94  E(vib)   ...       0.00 
freq.    1539.94  E(vib)   ...       0.00 
freq.    1762.31  E(vib)   ...       0.00 
freq.    1807.09  E(vib)   ...       0.00 
freq.    1839.48  E(vib)   ...       0.00 
freq.    3047.48  E(vib)   ...       0.00 
freq.    3095.97  E(vib)   ...       0.00 
freq.    3101.84  E(vib)   ...       0.00 
freq.    3102.97  E(vib)   ...       0.00 
freq.    3112.11  E(vib)   ...       0.00 
freq.    3117.09  E(vib)   ...       0.00 
freq.    3166.66  E(vib)   ...       0.00 
freq.    3172.40  E(vib)   ...       0.00 
freq.    3173.78  E(vib)   ...       0.00 
freq.    3183.08  E(vib)   ...       0.00 
freq.    3191.90  E(vib)   ...       0.00 
freq.    3199.50  E(vib)   ...       0.00 
freq.    3208.89  E(vib)   ...       0.00 
freq.    3228.89  E(vib)   ...       0.00 
freq.    3236.96  E(vib)   ...       0.00 
freq.    3246.06  E(vib)   ...       0.00 

------------
INNER ENERGY
------------

The inner energy is: U= E(el) + E(ZPE) + E(vib) + E(rot) + E(trans)
    E(el)   - is the total energy from the electronic structure calculation
              = E(kin-el) + E(nuc-el) + E(el-el) + E(nuc-nuc)
    E(ZPE)  - the the zero temperature vibrational energy from the frequency calculation
    E(vib)  - the the finite temperature correction to E(ZPE) due to population
              of excited vibrational states
    E(rot)  - is the rotational thermal energy
    E(trans)- is the translational thermal energy

Summary of contributions to the inner energy U:
Electronic energy                ...    -82.64520405 Eh
Zero point energy                ...      0.24196149 Eh     151.83 kcal/mol
Thermal vibrational correction   ...      0.01078595 Eh       6.77 kcal/mol
Thermal rotational correction    ...      0.00141627 Eh       0.89 kcal/mol
Thermal translational correction ...      0.00141627 Eh       0.89 kcal/mol
-----------------------------------------------------------------------
Total thermal energy                    -82.38962407 Eh


Summary of corrections to the electronic energy:
(perhaps to be used in another calculation)
Total thermal correction                  0.01361849 Eh       8.55 kcal/mol
Non-thermal (ZPE) correction              0.24196149 Eh     151.83 kcal/mol
-----------------------------------------------------------------------
Total correction                          0.25557998 Eh     160.38 kcal/mol


--------
ENTHALPY
--------

The enthalpy is H = U + kB*T
                kB is Boltzmann's constant
Total thermal energy              ...    -82.38962407 Eh 
Thermal Enthalpy correction       ...      0.00094421 Eh       0.59 kcal/mol
-----------------------------------------------------------------------
Total Enthalpy                    ...    -82.38867986 Eh


Note: Only C1 symmetry has been detected, increase convergence thresholds 
      if your molecule has a higher symmetry. Symmetry factor of 1.0 is   
      used for the rotational entropy correction. 
 

Note: Rotational entropy computed according to Herzberg 
Infrared and Raman Spectra, Chapter V,1, Van Nostrand Reinhold, 1945 
Point Group:  C1, Symmetry Number:   1  
Rotational constants in cm-1:     0.073981     0.012983     0.011464 

Vibrational entropy computed according to the QRRHO of S. Grimme
Chem.Eur.J. 2012 18 9955 using a reference frequency of 100.0 cm-1


-------
ENTROPY
-------

The entropy contributions are T*S = T*(S(el)+S(vib)+S(rot)+S(trans))
     S(el)   - electronic entropy
     S(vib)  - vibrational entropy
     S(rot)  - rotational entropy
     S(trans)- translational entropy
The entropies will be listed as multiplied by the temperature to get
units of energy

Electronic entropy                ...      0.00000000 Eh      0.00 kcal/mol
Vibrational entropy               ...      0.01981980 Eh     12.44 kcal/mol
Rotational entropy                ...      0.01490048 Eh      9.35 kcal/mol
Translational entropy             ...      0.01946646 Eh     12.22 kcal/mol
-----------------------------------------------------------------------
Final entropy term                ...      0.05418673 Eh     34.00 kcal/mol

In case the symmetry of your molecule has not been determined correctly
or in case you have a reason to use a different symmetry number we print 
out the resulting rotational entropy values for sn=1,12:

 non-linear molecules -----------------------------------
|  sn= 1 | S(rot)=       0.01490048 Eh      9.35 kcal/mol|
|  sn= 2 | S(rot)=       0.01424602 Eh      8.94 kcal/mol|
|  sn= 3 | S(rot)=       0.01386319 Eh      8.70 kcal/mol|
|  sn= 4 | S(rot)=       0.01359157 Eh      8.53 kcal/mol|
|  sn= 5 | S(rot)=       0.01338088 Eh      8.40 kcal/mol|
|  sn= 6 | S(rot)=       0.01320873 Eh      8.29 kcal/mol|
|  sn= 7 | S(rot)=       0.01306319 Eh      8.20 kcal/mol|
|  sn= 8 | S(rot)=       0.01293711 Eh      8.12 kcal/mol|
|  sn= 9 | S(rot)=       0.01282590 Eh      8.05 kcal/mol|
|  sn=10 | S(rot)=       0.01272642 Eh      7.99 kcal/mol|
|  sn=11 | S(rot)=       0.01263643 Eh      7.93 kcal/mol|
|  sn=12 | S(rot)=       0.01255428 Eh      7.88 kcal/mol|
 linear molecules ---------------------------------------
|  Dinfh | S(rot)=       0.00954491 Eh      5.99 kcal/mol|
|  Cinfv | S(rot)=       0.01019937 Eh      6.40 kcal/mol|
 --------------------------------------------------------


-------------------
GIBBS FREE ENERGY
-------------------

The Gibbs free energy is G = H - T*S

Total enthalpy                    ...    -82.38867986 Eh 
Total entropy correction          ...     -0.05418673 Eh    -34.00 kcal/mol
-----------------------------------------------------------------------
Final Gibbs free energy         ...    -82.44286659 Eh

For completeness - the Gibbs free energy minus the electronic energy
G-E(el)                           ...      0.20233746 Eh    126.97 kcal/mol


Maximum memory used throughout the entire PROP-calculation: 126.2 MB

--------------------------------
SUGGESTED CITATIONS FOR THIS RUN
--------------------------------

Below you find a list of papers that are relevant to this ORCA run
We neither can nor want to force you to cite these papers, but we appreciate if you do
You receive ORCA, which is the product of decades of hard work by many enthusiastic individuals, for free
The only thing we kindly ask in return is that you cite our papers,
We deeply appreciate it, if you show your appreciation for ORCA by not just citing the generic ORCA reference.

Please note that relegating all ORCA citations to the supporting information does *not* help us.
SI sections are not indexed - citations you put there will not count into any citation statistics
But we need these citations in order to attract the funding resources that allow us to do what we are doing

Therefore, if you are a happy ORCA user, please consider citing a few of the papers listed below in the main body of your paper

In addition to the list printed below, the program has created the file ./output/neral/neral.bibtex that contains the list in bibtex format
You can import this file easily into all common literature databanks and citation aid programs


List of essential papers. We consider these as the minimum necessary citations

  1. Neese,F.
     Software update: the ORCA program system, version 5.0
     WIRES Comput. Molec. Sci., 2022 12(1)e1606
     doi.org/10.1002/wcms.1606
  2. Mueller,M.; Hansen,A.; Grimme,S.
     wB97X-3c: A composite range-separated hybrid DFT method with a molecule-optimized polarized valence double-zeta basis set
     J. Chem. Phys., 2023 158 014103
     doi.org/10.1063/5.0133026

List of papers to cite with high priority. The work reported in these papers was absolutely
necessary for this run to complete.
Our perspective: the developers of density functionals and basis sets usually get cited in chemistry papers
Good! But without the algorithms to do something with them, the functionals or basis sets would not do anything.
Hence, in our opinion, the algorithm design and method developments papers are equally worthy of getting cited

  1. Neese,F.
     An improvement of the resolution of the identity approximation for the formation of the Coulomb matrix
     J. Comp. Chem., 2003 24(14)1740-1747
     doi.org/10.1002/jcc.10318
  2. Neese,F.; Wennmohs,F.; Hansen,A.; Becker,U.
     Efficient, approximate and parallel Hartree-Fock and hybrid DFT calculations. A 'chain-of-spheres' algorithm for the Hartree-Fock exchange
     Chem. Phys., 2009 356(1-3)98-109
     doi.org/10.1016/j.chemphys.2008.10.036
  3. Bykov,D.; Petrenko,T.; Izsak,R.; Kossmann,S.; Becker,U.; Valeev,E.; Neese,F.
     Efficient implementation of the analytic second derivatives of Hartree-Fock and hybrid DFT energies: a detailed analysis of different approximations
     Molec. Phys., 2015 113 1961-1977
     doi.org/10.1080/00268976.2015.1025114
  4. Helmich-Paris,B.; de Souza,B.; Neese,F.; Izsák,R.
     An improved chain of spheres for exchange algorithm
     J. Chem. Phys., 2021 155 104109
     doi.org/doi: 10.1063/5.0058766.
  5. Neese,F.
     The SHARK Integral Generation and Digestion System
     J. Comp. Chem., 2022  1-16
     doi.org/10.1002/jcc.26942
  6. Caldeweyher,E.; Bannwarth,C.; Grimme,S.
     Extension of the D3 dispersion coefficient model
     J. Chem. Phys., 2017 147 034112
     doi.org/10.1063/1.4993215
  7. Caldeweyher,E.; Ehlert,S.; Hansen,A.; Neugebauer,H.; Spicher,S.; Bannwarth,C.; Grimme,S.
     A generally applicable atomic-charge dependent London dispersion correction
     J. Chem. Phys., 2019 150 154122
     doi.org/10.1063/1.5090222
  8. Caldeweyher,E.; Mewes,J.; Ehlert,S.; Grimme,S.
     Extension and evaluation of the D4 London-dispersion model for periodic systems
     Phys. Chem. Chem. Phys., 2020 22(16)8499-8512
     doi.org/10.1039/D0CP00502A
  9. Wittmann,L.; Gordiy,I.; Friede,M.; Helmich-Paris,B.; Grimme,S.; Hansen,A.; Bursch,M.
     Extension of the D3 and D4 London Dispersion Corrections to the full Actinides Series
     Phys. Chem. Chem. Phys., 2024 26(32)21379-21394
     doi.org/https://doi.org/10.1039/D4CP01514B 

List of suggested additional citations. These are papers that are important in the 'surrounding' of 
of this run, or papers that preceded the highly important papers. If you like your results we are grateful for a citation.

  1. Izsak,R.; Neese,F.
     An overlap fitted chain of spheres exchange method
     J. Chem. Phys., 2011 135 144105
     doi.org/10.1063/1.3646921
  2. Izsak,R.; Hansen,A.; Neese,F.
     The resolution of identity and chain of spheres approximations for the LPNO-CCSD singles Fock term
     Molec. Phys., 2012 110 2413-2417
     doi.org/10.1080/00268976.2012.687466
  3. Neese,F.
     The ORCA program system
     WIRES Comput. Molec. Sci., 2012 2(1)73-78
     doi.org/10.1002/wcms.81
  4. Izsak,R.; Neese,F.; Klopper,W.
     Robust fitting techniques in the chain of spheres approximation to the Fock exchange: The role of the complementary space
     J. Chem. Phys., 2013 139 
     doi.org/10.1063/1.4819264
  5. Neese,F.
     Software update: the ORCA program system, version 4.0
     WIRES Comput. Molec. Sci., 2018 8(1)1-6
     doi.org/10.1002/wcms.1327
  6. Neese,F.; Wennmohs,F.; Becker,U.; Riplinger,C.
     The ORCA quantum chemistry program package
     J. Chem. Phys., 2020 152 Art. No. L224108
     doi.org/10.1063/5.0004608

List of optional additional citations

  1. Neese,F.
     Approximate second-order SCF convergence for spin unrestricted wavefunctions
     Chem. Phys. Lett., 2000 325(1-3)93-98
     doi.org/10.1016/s0009-2614(00)00662-x

Timings for individual modules:

Sum of individual times          ...     1569.563 sec (=  26.159 min)
Startup calculation              ...       92.426 sec (=   1.540 min)   5.9 %
SCF iterations                   ...     1105.469 sec (=  18.424 min)  70.4 %
Property integrals               ...       61.631 sec (=   1.027 min)   3.9 %
SCF Response                     ...       37.650 sec (=   0.628 min)   2.4 %
Property calculations            ...       75.337 sec (=   1.256 min)   4.8 %
SCF Gradient evaluation          ...      196.672 sec (=   3.278 min)  12.5 %
Geometry relaxation              ...        0.377 sec (=   0.006 min)   0.0 %
                             ****ORCA TERMINATED NORMALLY****
TOTAL RUN TIME: 0 days 0 hours 26 minutes 21 seconds 744 msec
