
                                 *****************
                                 * O   R   C   A *
                                 *****************

                                            #,                                       
                                            ###                                      
                                            ####                                     
                                            #####                                    
                                            ######                                   
                                           ########,                                 
                                     ,,################,,,,,                         
                               ,,#################################,,                 
                          ,,##########################################,,             
                       ,#########################################, ''#####,          
                    ,#############################################,,   '####,        
                  ,##################################################,,,,####,       
                ,###########''''           ''''###############################       
              ,#####''   ,,,,##########,,,,          '''####'''          '####       
            ,##' ,,,,###########################,,,                        '##       
           ' ,,###''''                  '''############,,,                           
         ,,##''                                '''############,,,,        ,,,,,,###''
      ,#''                                            '''#######################'''  
     '                                                          ''''####''''         
             ,#######,   #######,   ,#######,      ##                                
            ,#'     '#,  ##    ##  ,#'     '#,    #''#        ,####,   ,####,        
            ##       ##  ##   ,#'  ##            #'  '#       #'       #'  '#        
            ##       ##  #######   ##           ,######,      #####,   #    #        
            '#,     ,#'  ##    ##  '#,     ,#' ,#      #,     #,   #   #,  ,#        
             '#######'   ##     ##  '#######'  #'      '#     '####' # '####'        



                #########################################################
                #                        -***-                          #
                #          Department of theory and spectroscopy        #
                #                                                       #
                #                      Frank Neese                      #
                #                                                       #
                #     Directorship, Architecture, Infrastructure        #
                #                    SHARK, DRIVERS                     #
                #        Core code/Algorithms in most modules           #
                #                                                       #
                #        Max Planck Institute fuer Kohlenforschung      #
                #                Kaiser Wilhelm Platz 1                 #
                #                 D-45470 Muelheim/Ruhr                 #
                #                      Germany                          #
                #                                                       #
                #                  All rights reserved                  #
                #                        -***-                          #
                #########################################################


                         Program Version 6.0.1  -  RELEASE   -


 With contributions from (in alphabetic order):
[Max-Planck-Institut fuer Kohlenforschung]                               
  Daniel Aravena         : Magnetic Suceptibility                        
  Michael Atanasov       : Ab Initio Ligand Field Theory (pilot matlab implementation)
  Alexander A. Auer      : GIAO ZORA, VPT2 properties, NMR spectrum      
  Ute Becker             : All parallelization in ORCA, NUMFREQ, NUMCALC 
  Giovanni Bistoni       : ED, misc. LED, open-shell LED, HFLD           
  Martin Brehm           : Molecular dynamics                            
  Dmytro Bykov           : pre 5.0 version of the SCF Hessian            
  Marcos Casanova-Páez   : Triplet and SCS-CIS(D). UHF-(DLPNO)-IP/EA/STEOM-CCSD. UHF-CVS-IP/STEOM-CCSD   
  Vijay G. Chilkuri      : MRCI spin determinant printing, contributions to CSF-ICE 
  Pauline Colinet        : FMM embedding                                 
  Dipayan Datta          : RHF DLPNO-CCSD density                        
  Achintya Kumar Dutta   : EOM-CC, STEOM-CC                              
  Nicolas Foglia         : Exact transition moments, OPA infrastructure, MCD improvements    
  Dmitry Ganyushin       : Spin-Orbit,Spin-Spin,Magnetic field MRCI      
  Miquel Garcia-Rates    : C-PCM and meta-GGA Hessian, CCSD/C-PCM, Gaussian charge scheme 
  Tiago L. C. Gouveia    : GS-ROHF, GS-ROCIS                             
  Yang Guo               : DLPNO-NEVPT2, F12-NEVPT2, CIM, IAO-localization        
  Andreas Hansen         : Spin unrestricted coupled pair/coupled cluster methods 
  Ingolf Harden          : AUTO-CI MPn and infrastructure                
  Benjamin Helmich-Paris : MC-RPA, TRAH-(SCF,CASSCF), AVAS, COSX integrals, SCF dyn. polar. 
  Lee Huntington         : MR-EOM, pCC                                   
  Robert Izsak           : Overlap fitted RIJCOSX, COSX-SCS-MP3, EOM     
  Riya Kayal             : Wick's Theorem for AUTO-CI, AUTO-CI UHF-CCSDT 
  Emily Kempfer          : AUTO-CI, RHF CISDT and CCSDT                  
  Christian Kollmar      : KDIIS, OOCD, Brueckner-CCSD(T), CCSD density, CASPT2, CASPT2-K, improved NEVPT2 
  Axel Koslowski         : Symmetry handling                             
  Simone Kossmann        : meta-GGA functionals, TD-DFT gradient, OOMP2, (MP2 Hessian; deprecated post 5.0) 
  Lucas Lang             : DCDCAS                                        
  Marvin Lechner         : AUTO-CI (C++ implementation), FIC-MRCC        
  Spencer Leger          : CASSCF response                               
  Dagmar Lenk            : GEPOL surface, SMD, ORCA-2-JSON               
  Dimitrios Liakos       : Extrapolation schemes; Compound Job, initial MDCI parallelization 
  Dimitrios Manganas     : Further ROCIS development; embedding schemes. LFT, Crystal Embedding 
  Dimitrios Pantazis     : SARC Basis sets                               
  Anastasios Papadopoulos: AUTO-CI, single reference methods and gradients 
  Taras Petrenko         : pre 6.0 DFT Hessian and TD-DFT gradient, (ASA, deprecated), ECA, 1-Electron XAS/XES, NRVS 
  Peter Pinski           : DLPNO-MP2, DLPNO-MP2 Gradient                 
  Christoph Reimann      : Effective Core Potentials                     
  Marius Retegan         : Local ZFS, SOC                                
  Christoph Riplinger    : Optimizer, TS searches, QM/MM, DLPNO-CCSD(T), (RO)-DLPNO pert. Triples 
  Michael Roemelt        : Original ROCIS implementation                 
  Masaaki Saitow         : Open-shell DLPNO-CCSD energy and density      
  Barbara Sandhoefer     : DKH picture change effects                    
  Kantharuban Sivalingam : CASSCF convergence/infrastructure, NEVPT2 and variants, FIC-MRCI 
  Bernardo de Souza      : ESD, SOC TD-DFT                               
  Georgi L. Stoychev     : AutoAux, RI-MP2 NMR, DLPNO-MP2 response, X2C  
  Van Anh Tran           : RI-MP2 g-tensors                              
  Willem Van den Heuvel  : Paramagnetic NMR                              
  Zikuan Wang            : NOTCH, Electric field optimization            
  Frank Wennmohs         : Technical directorship and infrastructure     
  Hang Xu                : AUTO-CI-Response properties                   
                                                                         
[FACCTs GmbH]                                                            
  Markus Bursch, Miquel Garcia-Rates, Christoph Riplinger, Bernardo de Souza, Georgi L. Stoychev 
                                                                 
  APM, Basis sets (HGBS, AHGBS, def-TZVP (Ac-Lr), def2-XVPD (La-Lu)), CI-OPT, improved COSX, DLPNO-Multilevel,           
  DOCKER, DRACO, updates on ESD, GOAT, IRC, LR-CPCM, MBIS, meta-GGA TD-DFT gradient, ML-optimized integration grids, 
  MM, NACMEs, nearIR, NEB, NEB-TS, NL-DFT gradient (VV10), 2- and 3-layer-ONIOM, interface openCOSMO-RS, QMMM,   
  Crystal-QMMM, SF, symmetry and pop. for TD-DFT, r2SCAN hybrids, SOLVATOR                                   
                                                                         
[Other institutions]                                                     
  V. Asgeirsson          : NEB                                           
  Christoph Bannwarth    : sTDA-DFT, sTD-DFT, PBEh-3c, B97-3c, D3        
  Sebastian Ehlert       : rSCAN, r2SCAN, r2SCAN-3c, D4, dhf basis sets  
  Marvin Friede          : D4 for Fr, Ra, Ac-Lr                          
  Lars Goerigk           : TD-DFT with DH, B97 family of functionals     
  Stefan Grimme          : VdW corrections, initial TS optimization, DFT functionals, gCP, sTDA/sTD-DF 
  Waldemar Hujo          : DFT-NL                                        
  H. Jonsson             : NEB                                           
  Holger Kruse           : gCP                                           
  Marcel Mueller         : wB97X-3c, vDZP basis set                      
  Hagen Neugebauer       : wr2SCAN                                       
  Tobias Risthaus        : range-separated hybrid DFT                    
  Lukas Wittmann         : regularized MP2, r2SCAN double-hybrids, wr2SCAN        
                                                                         
We gratefully acknowledge several colleagues who have allowed us to      
interface, adapt or use parts of their codes:                            
  Ed Valeev, F. Pavosevic, A. Kumar             : LibInt (2-el integral package), F12 methods 
  Garnet Chan, S. Sharma, J. Yang, R. Olivares  : DMRG                   
  Ulf Ekstrom                                   : XCFun DFT Library      
  Mihaly Kallay                                 : mrcc  (arbitrary order and MRCC methods)
  Frank Weinhold                                : gennbo (NPA and NBO analysis)           
  Simon Mueller                                 : openCOSMO-RS                            
  Christopher J. Cramer and Donald G. Truhlar   : smd solvation model                     
  S Lehtola, MJT Oliveira, MAL Marques          : LibXC Library                           
  Liviu Ungur et al                             : ANISO software                          


 Your calculation uses the libint2 library for the computation of 2-el integrals
 For citations please refer to: http://libint.valeyev.net

 Your ORCA version has been built with support for libXC version: 6.2.2
 For citations please refer to: https://libxc.gitlab.io

 This ORCA versions uses:
   CBLAS   interface :  Fast vector & matrix operations
   LAPACKE interface :  Fast linear algebra routines
   SCALAPACK package :  Parallel linear algebra routines
   Shared memory     :  Shared parallel matrices
   BLAS/LAPACK       :  OpenBLAS 0.3.27  USE64BITINT DYNAMIC_ARCH NO_AFFINITY SkylakeX SINGLE_THREADED
        Core in use  :  SkylakeX
   Copyright (c) 2011-2014, The OpenBLAS Project


Your calculation utilizes the atom-pairwise dispersion correction
based on EEQ partial charges (D4)


================================================================================

cite the ECPs for C  [vDZP-ECP], O  [vDZP-ECP] as follows:
   B-Ne (ecp-2-mwb), Al-Ar (ecp-10-mwb), Ga-Kr (ecp-28-mwb), Y-Cd (ecp-28-mwb), In-Xe (ecp-46-mwb):
     A. Bergner, M. Dolg, W. Küchle, H. Stoll, and H. Preuß, Mol. Phys. 80, 1431 (1993)., T. Leininger, A. Berning, A. Nicklass, H. Stoll, H.-J. Werner, and H.-J.Flad, Chem. Phys. 217, 19 (1997).
   Na-Mg, K-Ca, Rb-Sr, Cs-Ba (CRENBL):
     L. Fernandez Pacios and P. A. Christiansen, J. Chem. Phys. 82, 2664 (1985)., M. M. Hurley, L. F. Pacios, P. A. Christiansen, R. B. Ross, and W. C. Ermler, J. Chem. Phys. 84, 6840 (1986)., L. A. LaJohn, P. A. Christiansen, R. B. Ross, T. Atashroo, and W. C. Ermler, J. Chem. Phys. 87, 2812 (1987)., R. B. Ross, J. M. Powers, T. Atashroo, W. C. Ermler, L. A. LaJohn, and P. A. Christiansen, J. Chem. Phys. 93, 6654 (1990). 
   Sc-Zn (ecp-10-mdf):
     M. Dolg, U. Wedig, H. Stoll, and H. Preuss, J. Chem. Phys. 86, 866 (1986). 
   Y-Cd (ecp-28-mwb), Hf-Hg (ecp-60-mwb):
     D. Andrae, U. Häußermann, M. Dolg, H. Stoll, and H. Preuß, Theor. Chim. Acta 77, 123 (1990). 
   La (ecp-46-mwb):
     M. Dolg, H. Stoll, and H. Preuss, J. Chem. Phys. 90, 1730 (1989)., M. Dolg, H. Stoll, and H. Preuss, Theor. Chim. Acta 85, 441 (1993).
   Ce-Lu (SBKJC-ecp):
     T. R. Cundari and W. J. Stevens, J. Chem. Phys. 98, 5555 (1993).
   Tl-Rn (ecp-78-mwb):
     W. Küchle, M. Dolg, H. Stoll, and H. Preuss, Mol. Phys. 74, 1245 (1991).

ECP parameters for C  [vDZP-ECP], O  [vDZP-ECP] have been obtained from:
MM, AH, SG, J. Chem. Phys. 158, 014103 (2023), 10.1063/5.0133026

----- Orbital basis set information -----
Your calculation utilizes the basis: vDZP
   Marcel Mueller, Andreas Hansen, Stefan Grimme 
   J. Chem. Phys. 158, 014103 (2023). DOI: 10.1063/5.0133026

----- AuxJ basis set information -----
Your calculation utilizes the auxiliary basis: def2/J
   F. Weigend, Phys. Chem. Chem. Phys. 8, 1057 (2006).

================================================================================
                                        WARNINGS
                       Please study these warnings very carefully!
================================================================================

WARNING: Frozen-Core approximation turned on, but there are no core electrons.
  ===> : Turning off frozen-core approximation


WARNING: Geometry Optimization
  ===> : Switching off AutoStart
         For restart on a previous wavefunction, please use MOREAD

================================================================================
                                       INPUT FILE
================================================================================
NAME = ./output/methyl_anisole/methyl_anisole.inp
|  1> ! wB97X-3c OPT FREQ TightSCF
|  2> %pal
|  3>   nprocs 40
|  4> end
|  5> * xyz 0 1
|  6> C      2.757453    -0.166959    -0.487174
|  7> C      2.141686     0.726932     0.583851
|  8> O      0.892401     1.259058     0.142610
|  9> C     -0.319432     0.551732     0.075327
| 10> C     -0.462396    -0.767351     0.552902
| 11> C     -1.696264    -1.419564     0.459769
| 12> C     -2.794609    -0.766349    -0.104526
| 13> C     -2.661727     0.541726    -0.575901
| 14> C     -1.430015     1.197111    -0.484815
| 15> H      2.105493    -1.040296    -0.693570
| 16> H      3.746630    -0.534721    -0.142185
| 17> H      2.896068     0.409772    -1.426008
| 18> H      2.834034     1.574481     0.771298
| 19> H      2.023557     0.178304     1.542104
| 20> H      0.366219    -1.297831     0.999205
| 21> H     -1.801152    -2.432393     0.826949
| 22> H     -3.748395    -1.273088    -0.175166
| 23> H     -3.513040     1.048408    -1.011847
| 24> H     -1.336510     2.211028    -0.852822
| 25> *
| 26> 
| 27>                          ****END OF INPUT****
================================================================================

                       *****************************
                       * Geometry Optimization Run *
                       *****************************

Geometry optimization settings:
Update method            Update   .... BFGS
Choice of coordinates    CoordSys .... (2022) Redundant Internals
Initial Hessian          InHess   .... Almloef's Model
Max. no of cycles        MaxIter  .... 57

Convergence Tolerances:
Energy Change            TolE     ....  5.0000e-06 Eh
Max. Gradient            TolMAXG  ....  3.0000e-04 Eh/bohr
RMS Gradient             TolRMSG  ....  1.0000e-04 Eh/bohr
Max. Displacement        TolMAXD  ....  4.0000e-03 bohr
RMS Displacement         TolRMSD  ....  2.0000e-03 bohr
Strict Convergence                .... False

------------------------------------------------------------------------------
                        ORCA OPTIMIZATION COORDINATE SETUP
------------------------------------------------------------------------------

The optimization will be done in redundant internal coordinates (2022)
Making redundant internal coordinates   ...  (2022 redundants) done
Evaluating the initial hessian          ...  (Almloef) done
Evaluating the coordinates              ...  done
Calculating the B-matrix                .... done
Calculating the G-matrix                .... done
Diagonalizing the G-matrix              .... done
Small eigenvalue found = 1.240e-02
Small eigenvalue found = 2.816e-02
The first mode is                       ....   34
The number of degrees of freedom        ....   51

    -----------------------------------------------------------------
                    Redundant Internal Coordinates


    -----------------------------------------------------------------
         Definition                    Initial Value    Approx d2E/dq
    -----------------------------------------------------------------
      1. B(C   1,C   0)                  1.5249         0.380647   
      2. B(O   2,C   1)                  1.4278         0.487074   
      3. B(C   3,O   2)                  1.4048         0.530044   
      4. B(C   4,C   3)                  1.4101         0.580237   
      5. B(C   5,C   4)                  1.3987         0.605045   
      6. B(C   6,C   5)                  1.3970         0.609037   
      7. B(C   7,C   6)                  1.3968         0.609493   
      8. B(C   8,C   7)                  1.3982         0.606274   
      9. B(C   8,C   3)                  1.4013         0.599370   
     10. B(H   9,C   0)                  1.1092         0.335551   
     11. B(H  10,C   0)                  1.1103         0.334238   
     12. B(H  11,C   0)                  1.1105         0.333960   
     13. B(H  12,C   1)                  1.1103         0.334192   
     14. B(H  13,C   1)                  1.1105         0.333985   
     15. B(H  14,C   4)                  1.0804         0.373068   
     16. B(H  15,C   5)                  1.0824         0.370261   
     17. B(H  16,C   6)                  1.0824         0.370363   
     18. B(H  17,C   7)                  1.0824         0.370346   
     19. B(H  18,C   8)                  1.0827         0.369912   
     20. A(H   9,C   0,H  10)          108.7037         0.284317   
     21. A(C   1,C   0,H  11)          109.8615         0.321323   
     22. A(C   1,C   0,H  10)          109.6146         0.321367   
     23. A(H   9,C   0,H  11)          108.9628         0.284280   
     24. A(C   1,C   0,H   9)          110.7864         0.321573   
     25. A(H  10,C   0,H  11)          108.8747         0.284107   
     26. A(H  12,C   1,H  13)          107.3238         0.284104   
     27. A(C   0,C   1,H  13)          111.0647         0.321327   
     28. A(C   0,C   1,O   2)          110.7776         0.379162   
     29. A(O   2,C   1,H  13)          110.9603         0.332638   
     30. A(C   0,C   1,H  12)          108.3150         0.321360   
     31. A(O   2,C   1,H  12)          108.2571         0.332673   
     32. A(C   1,O   2,C   3)          125.5880         0.399168   
     33. A(O   2,C   3,C   4)          122.8363         0.414379   
     34. A(O   2,C   3,C   8)          118.0948         0.416777   
     35. A(C   4,C   3,C   8)          119.0677         0.426334   
     36. A(C   5,C   4,H  14)          118.3671         0.353565   
     37. A(C   3,C   4,H  14)          121.4301         0.351069   
     38. A(C   3,C   4,C   5)          120.2025         0.427054   
     39. A(C   4,C   5,H  15)          119.9468         0.353113   
     40. A(C   6,C   5,H  15)          119.8924         0.353506   
     41. A(C   4,C   5,C   6)          120.1607         0.430781   
     42. A(C   5,C   6,H  16)          120.0193         0.353523   
     43. A(C   5,C   6,C   7)          119.9627         0.431348   
     44. A(C   7,C   6,H  16)          120.0179         0.353567   
     45. A(C   8,C   7,H  17)          119.9796         0.353248   
     46. A(C   6,C   7,H  17)          119.9673         0.353565   
     47. A(C   6,C   7,C   8)          120.0531         0.430996   
     48. A(C   7,C   8,H  18)          119.5316         0.353178   
     49. A(C   3,C   8,H  18)          119.9157         0.352494   
     50. A(C   3,C   8,C   7)          120.5526         0.429702   
     51. D(O   2,C   1,C   0,H   9)    -62.4539         0.011546   
     52. D(O   2,C   1,C   0,H  10)    177.5854         0.011546   
     53. D(H  12,C   1,C   0,H   9)    178.9558         0.011546   
     54. D(O   2,C   1,C   0,H  11)     57.9893         0.011546   
     55. D(H  12,C   1,C   0,H  10)     58.9950         0.011546   
     56. D(H  12,C   1,C   0,H  11)    -60.6011         0.011546   
     57. D(C   3,O   2,C   1,C   0)     75.7704         0.018728   
     58. D(C   3,O   2,C   1,H  13)    -48.0786         0.018728   
     59. D(C   3,O   2,C   1,H  12)   -165.6041         0.018728   
     60. D(C   8,C   3,O   2,C   1)   -174.9081         0.020257   
     61. D(C   4,C   3,O   2,C   1)      5.5010         0.020257   
     62. D(H  14,C   4,C   3,O   2)      0.1018         0.023132   
     63. D(C   5,C   4,C   3,C   8)      0.3241         0.023132   
     64. D(H  14,C   4,C   3,C   8)   -179.4853         0.023132   
     65. D(C   5,C   4,C   3,O   2)    179.9112         0.023132   
     66. D(H  15,C   5,C   4,H  14)     -0.2342         0.025260   
     67. D(H  15,C   5,C   4,C   3)    179.9506         0.025260   
     68. D(C   6,C   5,C   4,H  14)    179.6804         0.025260   
     69. D(C   6,C   5,C   4,C   3)     -0.1348         0.025260   
     70. D(H  16,C   6,C   5,H  15)     -0.0662         0.025613   
     71. D(H  16,C   6,C   5,C   4)   -179.9809         0.025613   
     72. D(C   7,C   6,C   5,H  15)    179.8479         0.025613   
     73. D(C   7,C   6,C   5,C   4)     -0.0667         0.025613   
     74. D(H  17,C   7,C   6,H  16)      0.0012         0.025654   
     75. D(H  17,C   7,C   6,C   5)   -179.9129         0.025654   
     76. D(C   8,C   7,C   6,H  16)    179.9895         0.025654   
     77. D(C   8,C   7,C   6,C   5)      0.0754         0.025654   
     78. D(H  18,C   8,C   3,C   4)    179.8011         0.024763   
     79. D(H  18,C   8,C   3,O   2)      0.1943         0.024763   
     80. D(C   7,C   8,C   3,C   4)     -0.3165         0.024763   
     81. D(C   7,C   8,C   3,O   2)   -179.9232         0.024763   
     82. D(H  18,C   8,C   7,H  17)     -0.0099         0.025368   
     83. D(H  18,C   8,C   7,C   6)   -179.9982         0.025368   
     84. D(C   3,C   8,C   7,H  17)   -179.8928         0.025368   
     85. D(C   3,C   8,C   7,C   6)      0.1189         0.025368   
    -----------------------------------------------------------------

Number of atoms                         .... 19
Number of degrees of freedom            .... 85


         *************************************************************
         *                GEOMETRY OPTIMIZATION CYCLE   1            *
         *************************************************************
---------------------------------
CARTESIAN COORDINATES (ANGSTROEM)
---------------------------------
  C      2.757453   -0.166959   -0.487174
  C      2.141686    0.726932    0.583851
  O      0.892401    1.259058    0.142610
  C     -0.319432    0.551732    0.075327
  C     -0.462396   -0.767351    0.552902
  C     -1.696264   -1.419564    0.459769
  C     -2.794609   -0.766349   -0.104526
  C     -2.661727    0.541726   -0.575901
  C     -1.430015    1.197111   -0.484815
  H      2.105493   -1.040296   -0.693570
  H      3.746630   -0.534721   -0.142185
  H      2.896068    0.409772   -1.426008
  H      2.834034    1.574481    0.771298
  H      2.023557    0.178304    1.542104
  H      0.366219   -1.297831    0.999205
  H     -1.801152   -2.432393    0.826949
  H     -3.748395   -1.273088   -0.175166
  H     -3.513040    1.048408   -1.011847
  H     -1.336510    2.211028   -0.852822

----------------------------
CARTESIAN COORDINATES (A.U.)
----------------------------
  NO LB      ZA    FRAG     MASS         X           Y           Z
   0 C     4.0000*   0    12.011    5.210831   -0.315507   -0.920625
   1 C     4.0000*   0    12.011    4.047200    1.373702    1.103318
   2 O     6.0000*   0    15.999    1.686393    2.379275    0.269494
   3 C     4.0000*   0    12.011   -0.603639    1.042622    0.142347
   4 C     4.0000*   0    12.011   -0.873802   -1.450083    1.044833
   5 C     4.0000*   0    12.011   -3.205474   -2.682587    0.868837
   6 C     4.0000*   0    12.011   -5.281046   -1.448190   -0.197526
   7 C     4.0000*   0    12.011   -5.029935    1.023714   -1.088295
   8 C     4.0000*   0    12.011   -2.702337    2.262212   -0.916168
   9 H     1.0000    0     1.008    3.978805   -1.965875   -1.310657
  10 H     1.0000    0     1.008    7.080105   -1.010476   -0.268691
  11 H     1.0000    0     1.008    5.472775    0.774357   -2.694765
  12 H     1.0000    0     1.008    5.355548    2.975338    1.457542
  13 H     1.0000    0     1.008    3.823969    0.336946    2.914154
  14 H     1.0000    0     1.008    0.692054   -2.452545    1.888224
  15 H     1.0000    0     1.008   -3.403684   -4.596557    1.562707
  16 H     1.0000    0     1.008   -7.083440   -2.405788   -0.331016
  17 H     1.0000    0     1.008   -6.638683    1.981204   -1.912114
  18 H     1.0000    0     1.008   -2.525638    4.178237   -1.611600
* core charge reduced due to ECP

--------------------------------
INTERNAL COORDINATES (ANGSTROEM)
--------------------------------
 C      0   0   0     0.000000000000     0.00000000     0.00000000
 C      1   0   0     1.524894969759     0.00000000     0.00000000
 O      2   1   0     1.427783145713   110.77762834     0.00000000
 C      3   2   1     1.404769124182   125.58801733    75.77043594
 C      4   3   2     1.410140612425   122.83633768     5.50095495
 C      5   4   3     1.398744363521   120.20248901   179.91121241
 C      6   5   4     1.396953980013   120.16066048   359.86522302
 C      7   6   5     1.396750594120   119.96272054   359.93327931
 C      8   7   6     1.398191906916   120.05309071     0.07538357
 H      1   2   3     1.109219845651   110.78639237   297.54612173
 H      1   2   3     1.110287096248   109.61460175   177.58537674
 H      1   2   3     1.110514315145   109.86149654    57.98927472
 H      2   1   3     1.110324924657   108.31504534   241.40965746
 H      2   1   3     1.110493563707   111.06466804   123.78919688
 H      5   4   3     1.080369481443   121.43014923     0.10180735
 H      6   5   4     1.082425622473   119.94684512   179.95062503
 H      7   6   5     1.082350293351   120.01932438   180.01914426
 H      8   7   6     1.082362872612   119.96729027   180.08706600
 H      9   8   7     1.082681864614   119.53164685   180.00179401

---------------------------
INTERNAL COORDINATES (A.U.)
---------------------------
 C      0   0   0     0.000000000000     0.00000000     0.00000000
 C      1   0   0     2.881633875838     0.00000000     0.00000000
 O      2   1   0     2.698119124026   110.77762834     0.00000000
 C      3   2   1     2.654628926092   125.58801733    75.77043594
 C      4   3   2     2.664779567803   122.83633768     5.50095495
 C      5   4   3     2.643243778421   120.20248901   179.91121241
 C      6   5   4     2.639860443916   120.16066048   359.86522302
 C      7   6   5     2.639476100278   119.96272054   359.93327931
 C      8   7   6     2.642199786736   120.05309071     0.07538357
 H      1   2   3     2.096121730590   110.78639237   297.54612173
 H      1   2   3     2.098138541935   109.61460175   177.58537674
 H      1   2   3     2.098567923423   109.86149654    57.98927472
 H      2   1   3     2.098210027268   108.31504534   241.40965746
 H      2   1   3     2.098528708888   111.06466804   123.78919688
 H      5   4   3     2.041602443374   121.43014923     0.10180735
 H      6   5   4     2.045487986812   119.94684512   179.95062503
 H      7   6   5     2.045345635403   120.01932438   180.01914426
 H      8   7   6     2.045369406761   119.96729027   180.08706600
 H      9   8   7     2.045972214283   119.53164685   180.00179401

---------------------
BASIS SET INFORMATION
---------------------
There are 3 groups of distinct atoms

 Group   1 Type C   : 6s6p2d contracted to 2s2p1d pattern {42/42/2}
 Group   2 Type O   : 6s6p2d contracted to 2s2p1d pattern {42/42/2}
 Group   3 Type H   : 8s2p contracted to 2s1p pattern {53/2}

Atom   0C    basis set group =>   1
Atom   1C    basis set group =>   1
Atom   2O    basis set group =>   2
Atom   3C    basis set group =>   1
Atom   4C    basis set group =>   1
Atom   5C    basis set group =>   1
Atom   6C    basis set group =>   1
Atom   7C    basis set group =>   1
Atom   8C    basis set group =>   1
Atom   9H    basis set group =>   3
Atom  10H    basis set group =>   3
Atom  11H    basis set group =>   3
Atom  12H    basis set group =>   3
Atom  13H    basis set group =>   3
Atom  14H    basis set group =>   3
Atom  15H    basis set group =>   3
Atom  16H    basis set group =>   3
Atom  17H    basis set group =>   3
Atom  18H    basis set group =>   3
---------------------------------
AUXILIARY/J BASIS SET INFORMATION
---------------------------------
There are 3 groups of distinct atoms

 Group   1 Type C   : 12s5p4d2f1g contracted to 6s4p3d1f1g pattern {711111/2111/211/2/1}
 Group   2 Type O   : 12s5p4d2f1g contracted to 6s4p3d1f1g pattern {711111/2111/211/2/1}
 Group   3 Type H   : 5s2p1d contracted to 3s1p1d pattern {311/2/1}

Atom   0C    basis set group =>   1
Atom   1C    basis set group =>   1
Atom   2O    basis set group =>   2
Atom   3C    basis set group =>   1
Atom   4C    basis set group =>   1
Atom   5C    basis set group =>   1
Atom   6C    basis set group =>   1
Atom   7C    basis set group =>   1
Atom   8C    basis set group =>   1
Atom   9H    basis set group =>   3
Atom  10H    basis set group =>   3
Atom  11H    basis set group =>   3
Atom  12H    basis set group =>   3
Atom  13H    basis set group =>   3
Atom  14H    basis set group =>   3
Atom  15H    basis set group =>   3
Atom  16H    basis set group =>   3
Atom  17H    basis set group =>   3
Atom  18H    basis set group =>   3
-------------------------
ECP PARAMETER INFORMATION
-------------------------

 Group 1, Type C  ECP vDZP-ECP (replacing 2 core electrons, lmax=3)
 Group 2, Type O  ECP vDZP-ECP (replacing 2 core electrons, lmax=3)

Atom   0C    ECP group =>   1
Atom   1C    ECP group =>   1
Atom   2O    ECP group =>   2
Atom   3C    ECP group =>   1
Atom   4C    ECP group =>   1
Atom   5C    ECP group =>   1
Atom   6C    ECP group =>   1
Atom   7C    ECP group =>   1
Atom   8C    ECP group =>   1



           ************************************************************
           *        Program running with 40 parallel MPI-processes    *
           *              working on a common directory               *
           ************************************************************
------------------------------------------------------------------------------
                             ORCA STARTUP CALCULATIONS
                           -- RI-GTO INTEGRALS CHOSEN --
------------------------------------------------------------------------------
------------------------------------------------------------------------------
                   ___                                                        
                  /   \      - P O W E R E D   B Y -                         
                 /     \                                                     
                 |  |  |   _    _      __       _____    __    __             
                 |  |  |  | |  | |    /  \     |  _  \  |  |  /  |          
                  \  \/   | |  | |   /    \    | | | |  |  | /  /          
                 / \  \   | |__| |  /  /\  \   | |_| |  |  |/  /          
                |  |  |   |  __  | /  /__\  \  |    /   |      \           
                |  |  |   | |  | | |   __   |  |    \   |  |\   \          
                \     /   | |  | | |  |  |  |  | |\  \  |  | \   \       
                 \___/    |_|  |_| |__|  |__|  |_| \__\ |__|  \__/        
                                                                              
                      - O R C A' S   B I G   F R I E N D -                    
                                      &                                       
                       - I N T E G R A L  F E E D E R -                       
                                                                              
 v1 FN, 2020, v2 2021, v3 2022-2024                                           
------------------------------------------------------------------------------


----------------------
SHARK INTEGRAL PACKAGE
----------------------

Number of atoms                             ...     19
Number of basis functions                   ...    167
Number of shells                            ...     75
Maximum angular momentum                    ...      2
Integral batch strategy                     ... SHARK/LIBINT Hybrid
RI-J (if used) integral strategy            ... SPLIT-RIJ (Revised 2003 algorithm where possible)
Printlevel                                  ...      1
Contraction scheme used                     ... SEGMENTED contraction
Prescreening option                         ... SCHWARTZ
   Thresh                                   ... 2.500e-11
   Tcut                                     ... 2.500e-12
   Tpresel                                  ... 2.500e-12 
Coulomb Range Separation                    ... NOT USED
Exchange Range Separation                   ... Long Range
   Mu parameter                             ... 3.000e-01
   Scaling (regular/separated)              ... 1.670e-01 8.330e-01
Multipole approximations                    ... NOT USED
Finite Nucleus Model                        ... NOT USED
CABS basis                                  ... NOT available
Auxiliary Coulomb fitting basis             ... AVAILABLE
   # of basis functions in Aux-J            ...    551
   # of shells in Aux-J                     ...    185
   Maximum angular momentum in Aux-J        ...      4
Auxiliary J/K fitting basis                 ... NOT available
Auxiliary Correlation fitting basis         ... NOT available
Auxiliary 'external' fitting basis          ... NOT available

Checking pre-screening integrals            ... done (  0.0 sec) Dimension = 75
Check shell pair data                       ... done (  0.0 sec)
Shell pair information
Shell pair cut-off parameter TPreSel        ...   2.5e-12
Total number of shell pairs                 ...      2850
Shell pairs after pre-screening             ...      2850
Total number of primitive shell pairs       ...     25926
Primitive shell pairs kept                  ...     21506
          la=0 lb=0:    741 shell pairs
          la=1 lb=0:   1064 shell pairs
          la=1 lb=1:    406 shell pairs
          la=2 lb=0:    342 shell pairs
          la=2 lb=1:    252 shell pairs
          la=2 lb=2:     45 shell pairs

Calculating one electron integrals          ... done (  0.0 sec)
Calculating ECP integrals                   ... done (  0.1 sec)
Calculating RI/J V-Matrix + Cholesky decomp.... done (  0.0 sec)
Calculating Nuclear repulsion               ... done (  0.0 sec) ENN=    220.275342991427 Eh

Diagonalization of the overlap matrix:
Smallest eigenvalue                        ... 4.313e-04
Time for diagonalization                   ...    0.004 sec
Threshold for overlap eigenvalues          ... 1.000e-07
Number of eigenvalues below threshold      ... 0
Time for construction of square roots      ...    0.003 sec
Total time needed                          ...    0.024 sec

-------------------
DFT GRID GENERATION
-------------------

General Integration Accuracy     IntAcc      ... 4.388
Radial Grid Type                 RadialGrid  ... OptM3 with GC (2021)
Angular Grid (max. ang.)         AngularGrid ... 4 (Lebedev-302)
Angular grid pruning method      GridPruning ... 4 (adaptive)
Weight generation scheme         WeightScheme... mBecke (2022)
Basis function cutoff            BFCut       ... 1.0000e-11
Integration weight cutoff        WCut        ... 1.0000e-14
Partially contracted basis set               ... off
Rotationally invariant grid construction     ... off
Angular grids for H and He will be reduced by one unit

Total number of grid points                  ...    86361
Total number of batches                      ...     1360
Average number of points per batch           ...       63
Average number of grid points per atom       ...     4545

--------------------
COSX GRID GENERATION
--------------------

GRIDX 1
-------
General Integration Accuracy     IntAcc      ... 3.816
Radial Grid Type                 RadialGrid  ... OptM3 with GC (2021)
Angular Grid (max. ang.)         AngularGrid ... 1 (Lebedev-50)
Angular grid pruning method      GridPruning ... 4 (adaptive)
Weight generation scheme         WeightScheme... mBecke (2022)
Basis function cutoff            BFCut       ... 1.0000e-11
Integration weight cutoff        WCut        ... 1.0000e-14
Partially contracted basis set               ... on
Rotationally invariant grid construction     ... off
Angular grids for H and He will be reduced by one unit

Total number of grid points                  ...    11063
Total number of batches                      ...       97
Average number of points per batch           ...      114
Average number of grid points per atom       ...      582
UseSFitting                                  ... on

GRIDX 2
-------
General Integration Accuracy     IntAcc      ... 4.020
Radial Grid Type                 RadialGrid  ... OptM3 with GC (2021)
Angular Grid (max. ang.)         AngularGrid ... 2 (Lebedev-110)
Angular grid pruning method      GridPruning ... 4 (adaptive)
Weight generation scheme         WeightScheme... mBecke (2022)
Basis function cutoff            BFCut       ... 1.0000e-11
Integration weight cutoff        WCut        ... 1.0000e-14
Partially contracted basis set               ... on
Rotationally invariant grid construction     ... off
Angular grids for H and He will be reduced by one unit

Total number of grid points                  ...    23791
Total number of batches                      ...      196
Average number of points per batch           ...      121
Average number of grid points per atom       ...     1252
UseSFitting                                  ... on

GRIDX 3
-------
General Integration Accuracy     IntAcc      ... 4.338
Radial Grid Type                 RadialGrid  ... OptM3 with GC (2021)
Angular Grid (max. ang.)         AngularGrid ... 3 (Lebedev-194)
Angular grid pruning method      GridPruning ... 4 (adaptive)
Weight generation scheme         WeightScheme... mBecke (2022)
Basis function cutoff            BFCut       ... 1.0000e-11
Integration weight cutoff        WCut        ... 1.0000e-14
Partially contracted basis set               ... on
Rotationally invariant grid construction     ... off
Angular grids for H and He will be reduced by one unit

Total number of grid points                  ...    52043
Total number of batches                      ...      414
Average number of points per batch           ...      125
Average number of grid points per atom       ...     2739
UseSFitting                                  ... on
Initializing property integral containers    ... done (  0.0 sec)

SHARK setup successfully completed in   2.9 seconds

Maximum memory used throughout the entire STARTUP-calculation: 24.6 MB


           ************************************************************
           *        Program running with 40 parallel MPI-processes    *
           *              working on a common directory               *
           ************************************************************
-------------------------------------------------------------------------------
                                 ORCA GUESS
                   Start orbitals & Density for SCF / CASSCF
-------------------------------------------------------------------------------

------------
SCF SETTINGS
------------
Hamiltonian:
 Density Functional     Method          .... DFT(GTOs)
 Exchange Functional    Exchange        .... WB97X-V
 Correlation Functional Correlation     .... WB97X-V
 Gradients option       PostSCFGGA      .... off
 Hybrid DFT is turned on
   Fraction HF Exchange ScalHFX         ....  0.167000
   Scaling of DF-GGA-X  ScalDFX         ....  0.000000
   Scaling of DF-GGA-C  ScalDFC         ....  1.000000
   Scaling of DF-LDA-C  ScalLDAC        ....  1.000000
   Perturbative correction              ....  0.000000
 Long-range corrected/Screened/Range-Separated Hybrid DFT is turned on
   Amount of maximum screened exact exchange              ....  0.833000
   Range separation parameter mu (erf(mu*r12)/r12)        ....  0.300000
   NL short-range parameter             ....  6.000000
   NL long-range parameter              ....  0.010000
 RI-approximation to the Coulomb term is turned on
   Number of AuxJ basis functions       .... 551
   RIJ-COSX (HFX calculated with COS-X)).... on


General Settings:
 Integral files         IntName         .... ./output/methyl_anisole/methyl_anisole
 Hartree-Fock type      HFTyp           .... RHF
 Total Charge           Charge          ....    0
 Multiplicity           Mult            ....    1
 Number of Electrons    NEL             ....   48
 Basis Dimension        Dim             ....  167
 Nuclear Repulsion      ENuc            ....    220.2753429914 Eh

Convergence Acceleration:
 AO-DIIS                CNVDIIS         .... on
   Start iteration      DIISMaxIt       ....    12
   Startup error        DIISStart       ....  0.200000
   # of expansion vecs  DIISMaxEq       ....     5
   Bias factor          DIISBfac        ....   1.050
   Max. coefficient     DIISMaxC        ....  10.000
 MO-DIIS                CNVKDIIS        .... off
 Trust-Rad. Augm. Hess. CNVTRAH         .... auto
   Auto Start mean grad. ratio tolernc. ....  1.125000
   Auto Start start iteration           ....    50
   Auto Start num. interpolation iter.  ....    10
   Max. Number of Micro iterations      ....    24
   Max. Number of Macro iterations      .... Maxiter - #DIIS iter
   Number of Davidson start vectors     ....     2
   Converg. threshold    (grad. norm)   ....   1.000e-05
   Grad. Scal. Fac. for Micro threshold ....   0.100
   Minimum threshold for Micro iter.    ....   1.000e-02
   NR start threshold (gradient norm)   ....   1.000e-04
   Initial trust radius                 ....   0.400
   Minimum AH scaling param. (alpha)    ....   1.000
   Maximum AH scaling param. (alpha)    .... 1000.000
   Quad. conv. algorithm                .... NR
   White noise on init. David. guess    .... on
   Maximum white noise                  ....   0.010
   Pseudo random numbers                .... off
   Inactive MOs                         .... canonical
   Orbital update algorithm             .... Taylor
   Preconditioner                       .... Diag
   Full preconditioner red. dimension   ....   250
 SOSCF                  CNVSOSCF        .... on
   Start iteration      SOSCFMaxIt      ....   150
   Startup grad/error   SOSCFStart      ....  0.003300
   Hessian update       SOSCFHessUp     .... L-BFGS
 Level Shifting         CNVShift        .... on
   Level shift para.    LevelShift      ....    0.2500
   Turn off err/grad.   ShiftErr        ....    0.0010
 Zerner damping         CNVZerner       .... off
 Static damping         CNVDamp         .... on
   Fraction old density DampFac         ....    0.7000
   Max. Damping (<1)    DampMax         ....    0.9800
   Min. Damping (>=0)   DampMin         ....    0.0000
   Turn off err/grad.   DampErr         ....    0.1000

SCF Procedure:
 Maximum # iterations   MaxIter         ....   125
 SCF integral mode      SCFMode         .... Direct
   Integral package                     .... SHARK and LIBINT hybrid scheme
 Reset frequency        DirectResetFreq ....    20
 Integral Threshold     Thresh          ....  2.500e-11 Eh
 Primitive CutOff       TCut            ....  2.500e-12 Eh

Convergence Tolerance:
 Convergence Check Mode ConvCheckMode   .... Total+1el-Energy
 Convergence forced     ConvForced      .... 0
 Energy Change          TolE            ....  1.000e-08 Eh
 1-El. energy change                    ....  1.000e-05 Eh
 Orbital Gradient       TolG            ....  1.000e-05
 Orbital Rotation angle TolX            ....  1.000e-05
 DIIS Error             TolErr          ....  5.000e-07

------------------------------
INITIAL GUESS: MODEL POTENTIAL
------------------------------
Loading Hartree-Fock densities                     ... done
Atomic calculation to generate a density for atom 0 (C  with ECP)
  Multiplicity assumed   :    1
  Atomic configuration   : 1s2 2s2 2p2 
  Number of open shells  : 1
  Command: /home/aspe232/Project/Software/ORCA/6_0_1/build/orca ./output/methyl_anisole/methyl_anisole_atom6.inp "" > ./output/methyl_anisole/methyl_anisole_atom6.out
Returned from the atomic calculation with res=0
Atomic calculation to generate a density for atom 2 (O  with ECP)
  Multiplicity assumed   :    3
  Atomic configuration   : 1s2 2s2 2p4 
  Number of open shells  : 1
  Command: /home/aspe232/Project/Software/ORCA/6_0_1/build/orca ./output/methyl_anisole/methyl_anisole_atom8.inp "" > ./output/methyl_anisole/methyl_anisole_atom8.out
Returned from the atomic calculation with res=0
Calculating cut-offs                               ... done
Initializing the effective Hamiltonian             ... done
Setting up the integral package (SHARK)            ... done
Starting the Coulomb interaction                   ... done (   0.0 sec)
Making the grid                                    ... done (   0.7 sec)
Mapping shells                                     ... done
Starting the XC term evaluation                    ... done (   0.0 sec)
  promolecular density results
     # of electrons  =     65.989478639
     EX              =    -34.870549721
     EC              =     -2.685226888
     EX+EC           =    -37.555776609
Transforming the Hamiltonian                       ... done (   0.0 sec)
Diagonalizing the Hamiltonian                      ... done (   0.0 sec)
Back transforming the eigenvectors                 ... done (   0.0 sec)
Now organizing SCF variables                       ... done
                      ------------------
                      INITIAL GUESS DONE (   1.9 sec)
                      ------------------
             **** ENERGY FILE WAS UPDATED (./output/methyl_anisole/methyl_anisole.en.tmp) ****
Finished Guess after   2.2 sec
Maximum memory used throughout the entire GUESS-calculation: 14.7 MB


           ************************************************************
           *        Program running with 40 parallel MPI-processes    *
           *              working on a common directory               *
           ************************************************************

-------------------------------------------------------------------------------------------
                                      ORCA LEAN-SCF
                              memory conserving SCF solver
-------------------------------------------------------------------------------------------

----------------------------------------D-I-I-S--------------------------------------------
Iteration    Energy (Eh)           Delta-E    RMSDP     MaxDP     DIISErr   Damp  Time(sec)
-------------------------------------------------------------------------------------------
               ***  Starting incremental Fock matrix formation  ***
    1    -67.3221649835371352     0.00e+00  4.11e-03  6.62e-02  1.62e-01  0.700   3.0
    2    -67.4363351403748936    -1.14e-01  3.10e-03  4.88e-02  1.00e-01  0.700   2.1
                               ***Turning on AO-DIIS***
    3    -67.4981160921329604    -6.18e-02  1.71e-03  2.68e-02  5.44e-02  0.700   2.2
    4    -67.5348805129215464    -3.68e-02  3.69e-03  5.62e-02  3.49e-02  0.000   2.2
                              *** Initializing SOSCF ***
---------------------------------------S-O-S-C-F--------------------------------------
Iteration    Energy (Eh)           Delta-E    RMSDP     MaxDP     MaxGrad    Time(sec)
--------------------------------------------------------------------------------------
    5    -67.6121604323405734    -7.73e-02  2.21e-04  2.51e-03  2.92e-03     2.1
               *** Restarting incremental Fock matrix formation ***
    6    -67.6122320431731225    -7.16e-05  1.33e-04  2.23e-03  8.65e-04     2.6
    7    -67.6122592131717681    -2.72e-05  8.16e-05  1.59e-03  6.82e-04     2.4
    8    -67.6122660018495765    -6.79e-06  2.32e-05  3.22e-04  2.15e-04     2.8
    9    -67.6122668055501492    -8.04e-07  1.02e-05  1.18e-04  4.35e-05     2.4
   10    -67.6122669374031204    -1.32e-07  2.80e-06  7.18e-05  3.57e-05     2.5
   11    -67.6122669592856766    -2.19e-08  1.35e-06  3.23e-05  1.00e-05     2.5
   12    -67.6122669622592696    -2.97e-09  4.78e-07  1.95e-05  6.90e-06     2.4
                 **** Energy Check signals convergence ****

               *****************************************************
               *                     SUCCESS                       *
               *           SCF CONVERGED AFTER  12 CYCLES          *
               *****************************************************

Recomputing exchange energy using gridx3       ... done (    1.859 sec)
Old exchange energy                            :     -9.259771034 Eh
New exchange energy                            :     -9.259757885 Eh
Exchange energy change after final integration :      0.000013149 Eh
Total energy after final integration           :    -67.612253813 Eh
             **** ENERGY FILE WAS UPDATED (./output/methyl_anisole/methyl_anisole.en.tmp) ****

----------------
TOTAL SCF ENERGY
----------------

Total Energy       :        -67.61225381345923 Eh           -1839.82296 eV

Components:
Nuclear Repulsion  :        220.27534299142710 Eh            5993.99681 eV
Electronic Energy  :       -287.88760995368636 Eh           -7833.82013 eV
One Electron Energy:       -538.80006603967524 Eh          -14661.49517 eV
Two Electron Energy:        250.91245608598885 Eh            6827.67504 eV

Virial components:
Potential Energy   :       -119.93081167417245 Eh           -3263.48330 eV
Kinetic Energy     :         52.31855786071321 Eh            1423.66034 eV
Virial Ratio       :          2.29231875988368

DFT components:
N(Alpha)           :       24.000044375362 electrons
N(Beta)            :       24.000044375362 electrons
N(Total)           :       48.000088750725 electrons
E(X)               :      -10.033905994705 Eh       
E(C)               :       -1.819927151952 Eh       
E(XC)              :      -11.853833146657 Eh       

---------------
SCF CONVERGENCE
---------------

  Last Energy change         ...    2.9736e-09  Tolerance :   1.0000e-08
  Last MAX-Density change    ...    1.9539e-05  Tolerance :   1.0000e-07
  Last RMS-Density change    ...    4.7750e-07  Tolerance :   5.0000e-09
  Last DIIS Error            ...    2.9196e-03  Tolerance :   5.0000e-07
  Last Orbital Gradient      ...    6.8979e-06  Tolerance :   1.0000e-05
  Last Orbital Rotation      ...    4.4610e-06  Tolerance :   1.0000e-05


----------------
ORBITAL ENERGIES
----------------

  NO   OCC          E(Eh)            E(eV) 
   0   2.0000      -1.171492       -31.8779 
   1   2.0000      -0.995599       -27.0916 
   2   2.0000      -0.911921       -24.8146 
   3   2.0000      -0.887358       -24.1462 
   4   2.0000      -0.864662       -23.5287 
   5   2.0000      -0.772233       -21.0135 
   6   2.0000      -0.739608       -20.1258 
   7   2.0000      -0.709768       -19.3138 
   8   2.0000      -0.652817       -17.7640 
   9   2.0000      -0.608169       -16.5491 
  10   2.0000      -0.600473       -16.3397 
  11   2.0000      -0.572032       -15.5658 
  12   2.0000      -0.559683       -15.2297 
  13   2.0000      -0.548461       -14.9244 
  14   2.0000      -0.534133       -14.5345 
  15   2.0000      -0.505087       -13.7441 
  16   2.0000      -0.491977       -13.3874 
  17   2.0000      -0.484553       -13.1854 
  18   2.0000      -0.470640       -12.8068 
  19   2.0000      -0.457427       -12.4472 
  20   2.0000      -0.426487       -11.6053 
  21   2.0000      -0.421087       -11.4584 
  22   2.0000      -0.351201        -9.5567 
  23   2.0000      -0.317861        -8.6495 
  24   0.0000       0.063028         1.7151 
  25   0.0000       0.075649         2.0585 
  26   0.0000       0.086181         2.3451 
  27   0.0000       0.097009         2.6397 
  28   0.0000       0.104419         2.8414 
  29   0.0000       0.119049         3.2395 
  30   0.0000       0.121852         3.3158 
  31   0.0000       0.129109         3.5132 
  32   0.0000       0.151088         4.1113 
  33   0.0000       0.154743         4.2108 
  34   0.0000       0.176365         4.7991 
*Only the first 10 virtual orbitals were printed.

                    ********************************
                    * MULLIKEN POPULATION ANALYSIS *
                    ********************************

-----------------------
MULLIKEN ATOMIC CHARGES
-----------------------
   0 C :   -0.091680
   1 C :    0.083050
   2 O :   -0.341583
   3 C :    0.089538
   4 C :   -0.039874
   5 C :   -0.009729
   6 C :   -0.023153
   7 C :   -0.005309
   8 C :    0.008692
   9 H :    0.048126
  10 H :    0.044347
  11 H :    0.053620
  12 H :    0.059305
  13 H :    0.033463
  14 H :    0.014317
  15 H :    0.018026
  16 H :    0.016803
  17 H :    0.020015
  18 H :    0.022027
Sum of atomic charges:   -0.0000000

--------------------------------
MULLIKEN REDUCED ORBITAL CHARGES
--------------------------------
  0 C s       :     0.973512  s :     0.973512
      pz      :     1.005842  p :     3.048897
      px      :     1.022601
      py      :     1.020455
      dz2     :     0.015554  d :     0.069270
      dxz     :     0.010153
      dyz     :     0.017694
      dx2y2   :     0.010281
      dxy     :     0.015588

  1 C s       :     1.033130  s :     1.033130
      pz      :     0.974701  p :     2.740016
      px      :     0.765517
      py      :     0.999797
      dz2     :     0.028265  d :     0.143804
      dxz     :     0.028142
      dyz     :     0.026168
      dx2y2   :     0.023068
      dxy     :     0.038161

  2 O s       :     1.706293  s :     1.706293
      pz      :     1.785475  p :     4.598223
      px      :     1.177534
      py      :     1.635214
      dz2     :     0.004750  d :     0.037067
      dxz     :     0.007416
      dyz     :     0.003913
      dx2y2   :     0.006277
      dxy     :     0.014712

  3 C s       :     1.067981  s :     1.067981
      pz      :     0.948730  p :     2.674498
      px      :     0.778057
      py      :     0.947712
      dz2     :     0.016614  d :     0.167983
      dxz     :     0.035510
      dyz     :     0.024391
      dx2y2   :     0.045970
      dxy     :     0.045498

  4 C s       :     0.989522  s :     0.989522
      pz      :     1.025567  p :     2.962383
      px      :     0.988412
      py      :     0.948404
      dz2     :     0.007159  d :     0.087969
      dxz     :     0.015588
      dyz     :     0.015225
      dx2y2   :     0.025077
      dxy     :     0.024922

  5 C s       :     1.013731  s :     1.013731
      pz      :     0.948314  p :     2.899944
      px      :     0.975302
      py      :     0.976329
      dz2     :     0.009185  d :     0.096054
      dxz     :     0.021849
      dyz     :     0.010387
      dx2y2   :     0.031829
      dxy     :     0.022804

  6 C s       :     0.998328  s :     0.998328
      pz      :     0.986640  p :     2.932304
      px      :     0.975423
      py      :     0.970241
      dz2     :     0.012775  d :     0.092522
      dxz     :     0.010453
      dyz     :     0.015446
      dx2y2   :     0.024591
      dxy     :     0.029256

  7 C s       :     1.012830  s :     1.012830
      pz      :     0.953906  p :     2.896243
      px      :     0.969146
      py      :     0.973191
      dz2     :     0.007225  d :     0.096237
      dxz     :     0.017162
      dyz     :     0.017058
      dx2y2   :     0.025396
      dxy     :     0.029395

  8 C s       :     0.999810  s :     0.999810
      pz      :     0.980807  p :     2.904694
      px      :     0.940104
      py      :     0.983783
      dz2     :     0.008524  d :     0.086804
      dxz     :     0.019342
      dyz     :     0.009601
      dx2y2   :     0.027164
      dxy     :     0.022172

  9 H s       :     0.906996  s :     0.906996
      pz      :     0.010722  p :     0.044877
      px      :     0.015273
      py      :     0.018882

 10 H s       :     0.911406  s :     0.911406
      pz      :     0.011337  p :     0.044247
      px      :     0.020817
      py      :     0.012093

 11 H s       :     0.904007  s :     0.904007
      pz      :     0.019799  p :     0.042372
      px      :     0.009458
      py      :     0.013115

 12 H s       :     0.901000  s :     0.901000
      pz      :     0.010234  p :     0.039695
      px      :     0.011957
      py      :     0.017505

 13 H s       :     0.925219  s :     0.925219
      pz      :     0.020624  p :     0.041318
      px      :     0.006895
      py      :     0.013800

 14 H s       :     0.933192  s :     0.933192
      pz      :     0.017757  p :     0.052491
      px      :     0.019918
      py      :     0.014816

 15 H s       :     0.932318  s :     0.932318
      pz      :     0.015366  p :     0.049656
      px      :     0.009866
      py      :     0.024425

 16 H s       :     0.933143  s :     0.933143
      pz      :     0.014079  p :     0.050054
      px      :     0.022345
      py      :     0.013630

 17 H s       :     0.930583  s :     0.930583
      pz      :     0.015931  p :     0.049402
      px      :     0.019866
      py      :     0.013605

 18 H s       :     0.927498  s :     0.927498
      pz      :     0.015579  p :     0.050475
      px      :     0.009964
      py      :     0.024932



                     *******************************
                     * LOEWDIN POPULATION ANALYSIS *
                     *******************************

----------------------
LOEWDIN ATOMIC CHARGES
----------------------
   0 C :   -0.117706
   1 C :   -0.050262
   2 O :   -0.068948
   3 C :   -0.006340
   4 C :   -0.057131
   5 C :   -0.041250
   6 C :   -0.062868
   7 C :   -0.039789
   8 C :   -0.036571
   9 H :    0.047104
  10 H :    0.051895
  11 H :    0.053583
  12 H :    0.063857
  13 H :    0.042765
  14 H :    0.037412
  15 H :    0.046384
  16 H :    0.041780
  17 H :    0.047591
  18 H :    0.048492

-------------------------------
LOEWDIN REDUCED ORBITAL CHARGES
-------------------------------
  0 C s       :     0.785526  s :     0.785526
      pz      :     1.019436  p :     3.099813
      px      :     1.045532
      py      :     1.034845
      dz2     :     0.054103  d :     0.232366
      dxz     :     0.032386
      dyz     :     0.057707
      dx2y2   :     0.034865
      dxy     :     0.053306

  1 C s       :     0.770423  s :     0.770423
      pz      :     1.008660  p :     2.853422
      px      :     0.820173
      py      :     1.024589
      dz2     :     0.085611  d :     0.426417
      dxz     :     0.078649
      dyz     :     0.080185
      dx2y2   :     0.062813
      dxy     :     0.119159

  2 O s       :     1.390236  s :     1.390236
      pz      :     1.700650  p :     4.578926
      px      :     1.261358
      py      :     1.616918
      dz2     :     0.011378  d :     0.099786
      dxz     :     0.021517
      dyz     :     0.007200
      dx2y2   :     0.024478
      dxy     :     0.035213

  3 C s       :     0.776693  s :     0.776693
      pz      :     0.910849  p :     2.739263
      px      :     0.847358
      py      :     0.981055
      dz2     :     0.052755  d :     0.490384
      dxz     :     0.092219
      dyz     :     0.069551
      dx2y2   :     0.129484
      dxy     :     0.146375

  4 C s       :     0.797999  s :     0.797999
      pz      :     0.951568  p :     2.973276
      px      :     1.026103
      py      :     0.995606
      dz2     :     0.022261  d :     0.285856
      dxz     :     0.045978
      dyz     :     0.046590
      dx2y2   :     0.082496
      dxy     :     0.088530

  5 C s       :     0.801785  s :     0.801785
      pz      :     0.905424  p :     2.932689
      px      :     1.010216
      py      :     1.017049
      dz2     :     0.027933  d :     0.306775
      dxz     :     0.065533
      dyz     :     0.031063
      dx2y2   :     0.109285
      dxy     :     0.072962

  6 C s       :     0.799657  s :     0.799657
      pz      :     0.931261  p :     2.963528
      px      :     1.024172
      py      :     1.008095
      dz2     :     0.039139  d :     0.299683
      dxz     :     0.030044
      dyz     :     0.049389
      dx2y2   :     0.082203
      dxy     :     0.098907

  7 C s       :     0.802562  s :     0.802562
      pz      :     0.904523  p :     2.932105
      px      :     1.018476
      py      :     1.009106
      dz2     :     0.022703  d :     0.305122
      dxz     :     0.049017
      dyz     :     0.050313
      dx2y2   :     0.081671
      dxy     :     0.101416

  8 C s       :     0.799885  s :     0.799885
      pz      :     0.931929  p :     2.952246
      px      :     0.998211
      py      :     1.022105
      dz2     :     0.026530  d :     0.284440
      dxz     :     0.058898
      dyz     :     0.029027
      dx2y2   :     0.096556
      dxy     :     0.073430

  9 H s       :     0.804813  s :     0.804813
      pz      :     0.041530  p :     0.148083
      px      :     0.049862
      py      :     0.056691

 10 H s       :     0.802571  s :     0.802571
      pz      :     0.041324  p :     0.145533
      px      :     0.060946
      py      :     0.043263

 11 H s       :     0.801872  s :     0.801872
      pz      :     0.059583  p :     0.144545
      px      :     0.039199
      py      :     0.045763

 12 H s       :     0.801958  s :     0.801958
      pz      :     0.039241  p :     0.134185
      px      :     0.039084
      py      :     0.055860

 13 H s       :     0.816549  s :     0.816549
      pz      :     0.064380  p :     0.140686
      px      :     0.028434
      py      :     0.047872

 14 H s       :     0.805478  s :     0.805478
      pz      :     0.052782  p :     0.157111
      px      :     0.058594
      py      :     0.045734

 15 H s       :     0.804706  s :     0.804706
      pz      :     0.046069  p :     0.148909
      px      :     0.035546
      py      :     0.067294

 16 H s       :     0.806381  s :     0.806381
      pz      :     0.044748  p :     0.151839
      px      :     0.063042
      py      :     0.044048

 17 H s       :     0.803742  s :     0.803742
      pz      :     0.047530  p :     0.148667
      px      :     0.057151
      py      :     0.043986

 18 H s       :     0.801239  s :     0.801239
      pz      :     0.047514  p :     0.150269
      px      :     0.034286
      py      :     0.068469



                      *****************************
                      * MAYER POPULATION ANALYSIS *
                      *****************************

  NA   - Mulliken gross atomic population
  ZA   - Total nuclear charge
  QA   - Mulliken gross atomic charge
  VA   - Mayer's total valence
  BVA  - Mayer's bonded valence
  FA   - Mayer's free valence

  ATOM       NA         ZA         QA         VA         BVA        FA
  0 C      4.0917     4.0000    -0.0917     3.9530     3.9530    -0.0000
  1 C      3.9170     4.0000     0.0830     3.9700     3.9700     0.0000
  2 O      6.3416     6.0000    -0.3416     1.9794     1.9794     0.0000
  3 C      3.9105     4.0000     0.0895     4.1401     4.1401    -0.0000
  4 C      4.0399     4.0000    -0.0399     4.0407     4.0407    -0.0000
  5 C      4.0097     4.0000    -0.0097     4.1000     4.1000    -0.0000
  6 C      4.0232     4.0000    -0.0232     4.0671     4.0671    -0.0000
  7 C      4.0053     4.0000    -0.0053     4.0726     4.0726     0.0000
  8 C      3.9913     4.0000     0.0087     4.0465     4.0465    -0.0000
  9 H      0.9519     1.0000     0.0481     1.0250     1.0250    -0.0000
 10 H      0.9557     1.0000     0.0443     1.0337     1.0337    -0.0000
 11 H      0.9464     1.0000     0.0536     1.0278     1.0278    -0.0000
 12 H      0.9407     1.0000     0.0593     1.0189     1.0189     0.0000
 13 H      0.9665     1.0000     0.0335     1.0178     1.0178     0.0000
 14 H      0.9857     1.0000     0.0143     1.0418     1.0418    -0.0000
 15 H      0.9820     1.0000     0.0180     1.0450     1.0450    -0.0000
 16 H      0.9832     1.0000     0.0168     1.0475     1.0475    -0.0000
 17 H      0.9800     1.0000     0.0200     1.0455     1.0455     0.0000
 18 H      0.9780     1.0000     0.0220     1.0571     1.0571    -0.0000

  Mayer bond orders larger than 0.100000
B(  0-C ,  1-C ) :   0.9909 B(  0-C ,  9-H ) :   0.9940 B(  0-C , 10-H ) :   0.9919 
B(  0-C , 11-H ) :   0.9907 B(  1-C ,  2-O ) :   0.9112 B(  1-C , 12-H ) :   1.0068 
B(  1-C , 13-H ) :   0.9987 B(  2-O ,  3-C ) :   1.0473 B(  3-C ,  4-C ) :   1.4230 
B(  3-C ,  8-C ) :   1.4343 B(  4-C ,  5-C ) :   1.4599 B(  4-C , 14-H ) :   0.9874 
B(  5-C ,  6-C ) :   1.4510 B(  5-C , 15-H ) :   0.9926 B(  6-C ,  7-C ) :   1.4403 
B(  6-C , 16-H ) :   0.9948 B(  7-C ,  8-C ) :   1.4581 B(  7-C , 17-H ) :   0.9930 
B(  8-C , 18-H ) :   0.9852 

-------
TIMINGS
-------

Total SCF time: 0 days 0 hours 0 min 34 sec 

Total time                  ....      34.227 sec
Sum of individual times     ....      32.775 sec  ( 95.8%)

SCF preparation             ....       1.681 sec  (  4.9%)
Fock matrix formation       ....      29.979 sec  ( 87.6%)
  Startup                   ....       0.192 sec  (  0.6% of F)
  Split-RI-J                ....       0.925 sec  (  3.1% of F)
  Chain of spheres X        ....      12.201 sec  ( 40.7% of F)
  XC integration            ....      16.280 sec  ( 54.3% of F)
    XC Preparation          ....       0.000 sec  (  0.0% of XC)
    Basis function eval.    ....       0.314 sec  (  1.9% of XC)
    Density eval.           ....       0.108 sec  (  0.7% of XC)
    XC-Functional eval.     ....       0.135 sec  (  0.8% of XC)
    XC-Potential eval.      ....       0.167 sec  (  1.0% of XC)
Diagonalization             ....       0.000 sec  (  0.0%)
Density matrix formation    ....       0.246 sec  (  0.7%)
Total Energy calculation    ....       0.183 sec  (  0.5%)
Population analysis         ....       0.049 sec  (  0.1%)
Orbital Transformation      ....       0.046 sec  (  0.1%)
Orbital Orthonormalization  ....       0.000 sec  (  0.0%)
DIIS solution               ....       0.326 sec  (  1.0%)
SOSCF solution              ....       0.265 sec  (  0.8%)
Finished LeanSCF after  34.3 sec

Maximum memory used throughout the entire LEANSCF-calculation: 25.6 MB


           ************************************************************
           *        Program running with 40 parallel MPI-processes    *
           *              working on a common directory               *
           ************************************************************

------------------------------------------------------------------------------
                         ORCA PROPERTY INTEGRAL CALCULATIONS
------------------------------------------------------------------------------

GBWName                                   ... ./output/methyl_anisole/methyl_anisole.gbw
Number of atoms                           ...     19
Number of basis functions                 ...    167
Max core memory                           ...   1024 MB

Dipole integrals                          ... YES
Quadrupole integrals                      ...  NO
Linear momentum integrals                 ...  NO
Angular momentum integrals                ...  NO
Higher moments length integrals           ...  NO
Higher moments velocity integrals         ...  NO
Kinetic energy integrals                  ...  NO
GIAO right hand sides                     ...  NO
GIAO dipole derivative integrals          ...  NO
SOC integrals                             ...  NO
EPR diamagnetic integrals (GIAO)          ...  NO
EPR gauge integrals                       ...  NO
Field gradient integrals                  ...  NO (   0 nuclei)
Spin-dipole/Fermi contact integrals       ...  NO (   0 nuclei)
Contact density integrals                 ...  NO (   0 nuclei)
Nucleus-orbit integrals                   ...  NO (   0 nuclei)
Geometric perturbations                   ...  NO (  19 nuclei)

Choice of electric origin   ... Center of mass
Position of electric origin ... ( -0.5531,  0.2745,  0.0364) 
Choice of magnetic origin   ... GIAO
Position of magnetic origin ... (  0.0000,  0.0000,  0.0000) 

Calculating integrals                     ... Electric Dipole (Length)     done (  0.0 sec)

Property integrals calculated in   0.0 sec

Maximum memory used throughout the entire PROPINT-calculation: 12.2 MB


-------------------------------------------------------------------------------
                          DFT DISPERSION CORRECTION                            
                                                                               
                                DFTD4 V3.4.0                                   
-------------------------------------------------------------------------------
The wB97X-3c composite method is recognized
Using three-body term ABC
Active option DFTDOPT                   ...         5   

-------------------------   ----------------
Dispersion correction           -0.021281058
-------------------------   ----------------


-------------------------   --------------------
FINAL SINGLE POINT ENERGY       -67.633534870974
-------------------------   --------------------



           ************************************************************
           *        Program running with 40 parallel MPI-processes    *
           *              working on a common directory               *
           ************************************************************
------------------------------------------------------------------------------
                         ORCA SCF GRADIENT CALCULATION
------------------------------------------------------------------------------

Nuc. rep. gradient        (SHARK) ... done (  0.0 sec)
HCore & Overlap gradient  (SHARK) ... done (  0.0 sec)
ECP gradient              (SHARK) ... done (  0.2 sec)
Split-RIJ-J gradient      (SHARK) ... done (  0.3 sec)
COSX-gradient                     ... done (  3.5 sec)
XC gradient                       ... done (  1.2 sec)
Dispersion correction             ... done (  0.1 sec)

-------------------
DISPERSION GRADIENT
-------------------

   1   C   :    0.000515811   -0.000146253   -0.000204114
   2   C   :    0.000476038    0.000148664    0.000175865
   3   O   :    0.000194361    0.000397119    0.000081211
   4   C   :   -0.000024853    0.000268889    0.000025630
   5   C   :   -0.000063318   -0.000433507    0.000277259
   6   C   :   -0.000179528   -0.000536570    0.000181367
   7   C   :   -0.000465877   -0.000234749   -0.000038842
   8   C   :   -0.000464204    0.000215650   -0.000212852
   9   C   :   -0.000219611    0.000490248   -0.000218590
  10   H   :    0.000174640   -0.000074202   -0.000097347
  11   H   :    0.000090405   -0.000041975   -0.000033139
  12   H   :    0.000097932   -0.000018260   -0.000078273
  13   H   :    0.000058625    0.000060918    0.000033408
  14   H   :    0.000116130    0.000053279    0.000089340
  15   H   :   -0.000003360   -0.000160553    0.000110308
  16   H   :   -0.000025702   -0.000142940    0.000048968
  17   H   :   -0.000129392   -0.000069522   -0.000011432
  18   H   :   -0.000117927    0.000068022   -0.000061788
  19   H   :   -0.000030169    0.000155741   -0.000066977

Difference to translation invariance:
           :   -0.0000000000   -0.0000000000   -0.0000000000

Difference to rotation invariance:
           :    0.0000000000    0.0000000000    0.0000000000

Norm of the Dispersion gradient    ...    0.0016321295
RMS gradient                       ...    0.0002161808
MAX gradient                       ...    0.0005365700

------------------
CARTESIAN GRADIENT
------------------

   1   C   :   -0.001617447    0.003623577    0.001349388
   2   C   :    0.002971074    0.013103068    0.001441533
   3   O   :    0.023623008   -0.000723867    0.001696082
   4   C   :   -0.022185920    0.008967010   -0.009002547
   5   C   :    0.007162933   -0.008424808    0.005107377
   6   C   :   -0.000103455   -0.017273102    0.006285676
   7   C   :   -0.006955603   -0.002263273   -0.001030171
   8   C   :   -0.016042634    0.007944730   -0.007844779
   9   C   :   -0.000305238    0.004611182   -0.001291273
  10   H   :   -0.009125473   -0.010470271   -0.000872702
  11   H   :    0.011724841   -0.003885437    0.005021073
  12   H   :    0.001944317    0.008234634   -0.011826271
  13   H   :    0.016480794    0.005561150    0.002129221
  14   H   :    0.000336845   -0.006189079    0.009644946
  15   H   :   -0.001380150   -0.002217979    0.000718646
  16   H   :   -0.001154006   -0.001182039    0.000148550
  17   H   :   -0.000962049   -0.000384723   -0.000027159
  18   H   :   -0.001772403   -0.000404210   -0.000392750
  19   H   :   -0.002639437    0.001373437   -0.001254840

Difference to translation invariance:
           :    0.0000000000   -0.0000000000    0.0000000000

Difference to rotation invariance:
           :   -0.0001225689    0.0000694922    0.0002542945

Norm of the Cartesian gradient     ...    0.0583747106
RMS gradient                       ...    0.0077319193
MAX gradient                       ...    0.0236230078

-------
TIMINGS
-------

Total SCF gradient time     ....        5.313 sec

Densities                   ....       0.001 sec  (  0.0%)
One electron gradient       ....       0.031 sec  (  0.6%)
RI-J Coulomb gradient       ....       0.334 sec  (  6.3%)
COSX gradient               ....       3.464 sec  ( 65.2%)
XC gradient                 ....       1.180 sec  ( 22.2%)

Maximum memory used throughout the entire SCFGRAD-calculation: 32.1 MB
------------------------------------------------------------------------------
                         ORCA GEOMETRY RELAXATION STEP
------------------------------------------------------------------------------

Reading the OPT-File                    .... done
Getting information on internals        .... done
Copying old internal coords+grads       .... done
Making the new internal coordinates     .... (2022 redundants) done
Validating the new internal coordinates .... (2022 redundants) done
Calculating the B-matrix                .... done
Calculating the G,G- and P matrices     .... done
Transforming gradient to internals      .... done
Projecting the internal gradient        .... done
Number of atoms                         ....  19
Number of internal coordinates          ....  85
Current Energy                          ....   -67.633534871 Eh
Current gradient norm                   ....     0.058374711 Eh/bohr
Maximum allowed component of the step   ....  0.300
Current trust radius                    ....  0.300
Evaluating the initial hessian          ....  (Almloef) done
Projecting the Hessian                  .... done
Forming the augmented Hessian           .... done
Diagonalizing the augmented Hessian     .... done
Last element of RFO vector              ....  0.983154003
Lowest eigenvalues of augmented Hessian:
 -0.014067759  0.011545915  0.018782620  0.020271154  0.023300184
Length of the computed step             ....  0.185910977
The final length of the internal step   ....  0.185910977
Converting the step to Cartesian space:
 Initial RMS(Int)=    0.0201648767
Transforming coordinates:
 Iter   0:  RMS(Cart)=    0.0873393148 RMS(Int)=    0.9637951531
 Iter   5:  RMS(Cart)=    0.0000000221 RMS(Int)=    0.0000000093
done
Storing new coordinates                 .... done

                                .--------------------.
          ----------------------|Geometry convergence|-------------------------
          Item                value                   Tolerance       Converged
          ---------------------------------------------------------------------
          RMS gradient        0.0087785431            0.0001000000      NO
          MAX gradient        0.0450369126            0.0003000000      NO
          RMS step            0.0201648767            0.0020000000      NO
          MAX step            0.0827713734            0.0040000000      NO
          ........................................................
          Max(Bonds)      0.0438      Max(Angles)    4.52
          Max(Dihed)        2.08      Max(Improp)    0.00
          ---------------------------------------------------------------------

The optimization has not yet converged - more geometry cycles are needed


    ---------------------------------------------------------------------------
                         Redundant Internal Coordinates
                            (Angstroem and degrees)

        Definition                    Value    dE/dq     Step     New-Value
    ----------------------------------------------------------------------------
     1. B(C   1,C   0)                1.5249  0.007094 -0.0095    1.5154   
     2. B(O   2,C   1)                1.4278  0.018294 -0.0193    1.4085   
     3. B(C   3,O   2)                1.4048  0.045037 -0.0438    1.3610   
     4. B(C   4,C   3)                1.4101  0.022122 -0.0198    1.3903   
     5. B(C   5,C   4)                1.3987  0.014097 -0.0120    1.3867   
     6. B(C   6,C   5)                1.3970  0.013628 -0.0114    1.3855   
     7. B(C   7,C   6)                1.3968  0.011718 -0.0098    1.3869   
     8. B(C   8,C   7)                1.3982  0.016207 -0.0138    1.3844   
     9. B(C   8,C   3)                1.4013  0.018872 -0.0164    1.3849   
    10. B(H   9,C   0)                1.1092  0.013771 -0.0208    1.0884   
    11. B(H  10,C   0)                1.1103  0.013294 -0.0202    1.0901   
    12. B(H  11,C   0)                1.1105  0.014516 -0.0221    1.0884   
    13. B(H  12,C   1)                1.1103  0.014879 -0.0226    1.0877   
    14. B(H  13,C   1)                1.1105  0.011347 -0.0173    1.0932   
    15. B(H  14,C   4)                1.0804  0.000326 -0.0004    1.0799   
    16. B(H  15,C   5)                1.0824  0.001267 -0.0017    1.0807   
    17. B(H  16,C   6)                1.0824  0.001029 -0.0014    1.0809   
    18. B(H  17,C   7)                1.0824  0.001364 -0.0019    1.0805   
    19. B(H  18,C   8)                1.0827  0.001486 -0.0020    1.0806   
    20. A(H   9,C   0,H  10)          108.70  0.001354   -0.17    108.54   
    21. A(C   1,C   0,H  11)          109.86 -0.000195    0.01    109.87   
    22. A(C   1,C   0,H  10)          109.61 -0.001077    0.22    109.84   
[...]
     30      -0.001880  -0.002009  -0.006328
     31       0.000678   0.000679   0.001950
     32      -0.000742  -0.000776  -0.002517
     33      -0.000194  -0.000576  -0.001136
     34      -0.000716  -0.001455  -0.002965
     35       0.001221   0.002360   0.005160
     36      -0.001406  -0.001833  -0.003639
     37      -0.002661  -0.002120  -0.006364
     38      -0.000525  -0.000590  -0.001526
     39      -0.002038  -0.001731  -0.008433
     40      -0.004231  -0.004795  -0.020547
     41       0.006319   0.007206   0.028986
     42       0.131427   0.142624   0.737921
     43      -0.083089  -0.087980  -0.451271
     44       0.067134   0.072037   0.371004
     45       0.017409   0.009994  -0.024131
     46       0.242049   0.155620  -0.261127
     47      -0.089822  -0.058082   0.095440
     48       0.578954   0.482082  -0.132158
     49       0.309507   0.260755  -0.069273
     50       0.035716   0.028561  -0.008534
     51      -0.011691   0.377871  -0.049936
     52       0.000902  -0.226326   0.030834
     53      -0.003503   0.190804  -0.025580
     54       0.067876  -0.065864   0.001165
     55       0.637498  -0.591198   0.016260
     56      -0.230245   0.212678  -0.006198


-----------
IR SPECTRUM
-----------

 Mode   freq       eps      Int      T**2         TX        TY        TZ
       cm**-1   L/(mol*cm) km/mol    a.u.
----------------------------------------------------------------------------
  6:     52.99   0.000366    1.85  0.002155  ( 0.002795 -0.017067 -0.043081)
  7:    120.60   0.000021    0.11  0.000055  (-0.001288 -0.006652 -0.003043)
  8:    195.68   0.000156    0.79  0.000249  ( 0.011256  0.010576 -0.003308)
  9:    231.45   0.000007    0.03  0.000009  (-0.002900  0.000511 -0.000409)
 10:    300.05   0.000220    1.11  0.000229  ( 0.007002  0.012017 -0.005974)
 11:    382.07   0.000876    4.42  0.000715  ( 0.011112 -0.016606 -0.017774)
 12:    430.28   0.000006    0.03  0.000005  ( 0.000484  0.002107 -0.000176)
 13:    494.76   0.000715    3.61  0.000451  ( 0.004729 -0.002139 -0.020594)
 14:    532.25   0.001652    8.35  0.000969  ( 0.004878 -0.014849 -0.026916)
 15:    580.04   0.001288    6.51  0.000693  ( 0.017630  0.018994 -0.004633)
 16:    639.80   0.000127    0.64  0.000062  (-0.006995  0.002500 -0.002592)
 17:    721.42   0.006832   34.53  0.002955  (-0.014468  0.017546  0.049378)
 18:    783.81   0.012657   63.96  0.005039  (-0.017531  0.022873  0.064875)
 19:    803.82   0.003060   15.46  0.001188  (-0.023287 -0.025410  0.000165)
 20:    843.17   0.000102    0.52  0.000038  ( 0.003593  0.002799  0.004138)
 21:    851.58   0.000153    0.77  0.000056  ( 0.000455 -0.005149 -0.005416)
 22:    920.72   0.001596    8.06  0.000541  (-0.004544  0.006990  0.021710)
 23:    946.07   0.001330    6.72  0.000439  ( 0.020873 -0.000147  0.001749)
 24:   1003.36   0.000015    0.07  0.000005  ( 0.000221 -0.001688 -0.001276)
 25:   1021.10   0.000043    0.22  0.000013  ( 0.001238 -0.000746 -0.003305)
 26:   1034.77   0.000129    0.65  0.000039  ( 0.003211  0.005110 -0.001589)
 27:   1076.49   0.000778    3.93  0.000226  (-0.009973 -0.011203 -0.000812)
 28:   1120.32   0.006150   31.08  0.001713  (-0.038202  0.015431  0.003937)
 29:   1131.34   0.001784    9.01  0.000492  ( 0.000972 -0.021587  0.005011)
 30:   1152.93   0.008979   45.37  0.002430  ( 0.042990 -0.009460  0.022195)
 31:   1190.89   0.000418    2.11  0.000109  (-0.006262 -0.007905  0.002778)
 32:   1216.28   0.000940    4.75  0.000241  ( 0.011851 -0.008177  0.005807)
 33:   1219.20   0.003116   15.75  0.000798  (-0.027025 -0.007532 -0.003251)
 34:   1309.98   0.041620  210.33  0.009915  ( 0.096537  0.023527  0.006475)
 35:   1335.93   0.000147    0.74  0.000034  (-0.000255  0.003796 -0.004447)
 36:   1368.50   0.016712   84.46  0.003811  ( 0.059877  0.014925  0.001727)
 37:   1384.70   0.010004   50.55  0.002254  (-0.046856  0.000400 -0.007669)
 38:   1428.03   0.001116    5.64  0.000244  (-0.013649  0.004252  0.006280)
 39:   1459.21   0.005238   26.47  0.001120  ( 0.028425 -0.013124 -0.011833)
 40:   1514.18   0.001643    8.30  0.000339  (-0.003043 -0.017058  0.006198)
 41:   1528.27   0.000255    1.29  0.000052  (-0.005570 -0.004586  0.000304)
 42:   1534.16   0.000374    1.89  0.000076  (-0.006963 -0.000511  0.005235)
 43:   1553.49   0.001248    6.31  0.000251  (-0.001870 -0.004866  0.014952)
 44:   1574.28   0.027399  138.46  0.005431  (-0.068845 -0.025248 -0.007354)
 45:   1698.21   0.004211   21.28  0.000774  ( 0.014098  0.022868 -0.007219)
 46:   1718.30   0.019727   99.69  0.003583  (-0.057299 -0.016024 -0.006530)
 47:   3114.01   0.006939   35.07  0.000695  (-0.004338 -0.006588 -0.025163)
 48:   3116.97   0.003942   19.92  0.000395  (-0.017783  0.004569 -0.007588)
 49:   3180.64   0.002092   10.57  0.000205  (-0.010805 -0.009350  0.001067)
 50:   3209.86   0.002358   11.92  0.000229  ( 0.010076 -0.003160  0.010851)
 51:   3219.58   0.002654   13.41  0.000257  ( 0.011824  0.010648 -0.002021)
 52:   3249.43   0.000305    1.54  0.000029  (-0.004844 -0.002407 -0.000150)
 53:   3256.75   0.001330    6.72  0.000127  ( 0.004400 -0.009224  0.004792)
 54:   3273.39   0.002022   10.22  0.000193  (-0.009922 -0.009649  0.001099)
 55:   3280.16   0.001266    6.40  0.000120  (-0.010428  0.001384 -0.003128)
 56:   3290.35   0.000774    3.91  0.000073  (-0.006151  0.004505 -0.003905)

* The epsilon (eps) is given for a Dirac delta lineshape.
** The dipole moment derivative (T) already includes vibrational overlap.

The first frequency considered to be a vibration is 6
The total number of vibrations considered is 51


--------------------------
THERMOCHEMISTRY AT 298.15K
--------------------------

Temperature         ...   298.15 K
Pressure            ...     1.00 atm
Total Mass          ...   122.17 AMU
Quasi RRHO          ...     True
Cut-Off Frequency   ...     1.00 cm^-1

Throughout the following assumptions are being made:
  (1) The electronic state is orbitally nondegenerate
  (2) There are no thermally accessible electronically excited states
  (3) Hindered rotations indicated by low frequency modes are not
      treated as such but are treated as vibrations and this may
      cause some error
  (4) All equations used are the standard statistical mechanics
      equations for an ideal gas
  (5) All vibrations are strictly harmonic

freq.      52.99  E(vib)   ...       0.52 
freq.     120.60  E(vib)   ...       0.44 
freq.     195.68  E(vib)   ...       0.36 
freq.     231.45  E(vib)   ...       0.32 
freq.     300.05  E(vib)   ...       0.26 
freq.     382.07  E(vib)   ...       0.21 
freq.     430.28  E(vib)   ...       0.18 
freq.     494.76  E(vib)   ...       0.14 
freq.     532.25  E(vib)   ...       0.13 
freq.     580.04  E(vib)   ...       0.11 
freq.     639.80  E(vib)   ...       0.09 
freq.     721.42  E(vib)   ...       0.07 
freq.     783.81  E(vib)   ...       0.05 
freq.     803.82  E(vib)   ...       0.05 
freq.     843.17  E(vib)   ...       0.04 
freq.     851.58  E(vib)   ...       0.04 
freq.     920.72  E(vib)   ...       0.03 
freq.     946.07  E(vib)   ...       0.03 
freq.    1003.36  E(vib)   ...       0.02 
freq.    1021.10  E(vib)   ...       0.02 
freq.    1034.77  E(vib)   ...       0.02 
freq.    1076.49  E(vib)   ...       0.02 
freq.    1120.32  E(vib)   ...       0.01 
freq.    1131.34  E(vib)   ...       0.01 
freq.    1152.93  E(vib)   ...       0.01 
freq.    1190.89  E(vib)   ...       0.01 
freq.    1216.28  E(vib)   ...       0.01 
freq.    1219.20  E(vib)   ...       0.01 
freq.    1309.98  E(vib)   ...       0.01 
freq.    1335.93  E(vib)   ...       0.01 
freq.    1368.50  E(vib)   ...       0.01 
freq.    1384.70  E(vib)   ...       0.00 
freq.    1428.03  E(vib)   ...       0.00 
freq.    1459.21  E(vib)   ...       0.00 
freq.    1514.18  E(vib)   ...       0.00 
freq.    1528.27  E(vib)   ...       0.00 
freq.    1534.16  E(vib)   ...       0.00 
freq.    1553.49  E(vib)   ...       0.00 
freq.    1574.28  E(vib)   ...       0.00 
freq.    1698.21  E(vib)   ...       0.00 
freq.    1718.30  E(vib)   ...       0.00 
freq.    3114.01  E(vib)   ...       0.00 
freq.    3116.97  E(vib)   ...       0.00 
freq.    3180.64  E(vib)   ...       0.00 
freq.    3209.86  E(vib)   ...       0.00 
freq.    3219.58  E(vib)   ...       0.00 
freq.    3249.43  E(vib)   ...       0.00 
freq.    3256.75  E(vib)   ...       0.00 
freq.    3273.39  E(vib)   ...       0.00 
freq.    3280.16  E(vib)   ...       0.00 
freq.    3290.35  E(vib)   ...       0.00 

------------
INNER ENERGY
------------

The inner energy is: U= E(el) + E(ZPE) + E(vib) + E(rot) + E(trans)
    E(el)   - is the total energy from the electronic structure calculation
              = E(kin-el) + E(nuc-el) + E(el-el) + E(nuc-nuc)
    E(ZPE)  - the the zero temperature vibrational energy from the frequency calculation
    E(vib)  - the the finite temperature correction to E(ZPE) due to population
              of excited vibrational states
    E(rot)  - is the rotational thermal energy
    E(trans)- is the translational thermal energy

Summary of contributions to the inner energy U:
Electronic energy                ...    -67.64214229 Eh
Zero point energy                ...      0.16538495 Eh     103.78 kcal/mol
Thermal vibrational correction   ...      0.00518332 Eh       3.25 kcal/mol
Thermal rotational correction    ...      0.00141627 Eh       0.89 kcal/mol
Thermal translational correction ...      0.00141627 Eh       0.89 kcal/mol
-----------------------------------------------------------------------
Total thermal energy                    -67.46874147 Eh


Summary of corrections to the electronic energy:
(perhaps to be used in another calculation)
Total thermal correction                  0.00801587 Eh       5.03 kcal/mol
Non-thermal (ZPE) correction              0.16538495 Eh     103.78 kcal/mol
-----------------------------------------------------------------------
Total correction                          0.17340081 Eh     108.81 kcal/mol


--------
ENTHALPY
--------

The enthalpy is H = U + kB*T
                kB is Boltzmann's constant
Total thermal energy              ...    -67.46874147 Eh 
Thermal Enthalpy correction       ...      0.00094421 Eh       0.59 kcal/mol
-----------------------------------------------------------------------
Total Enthalpy                    ...    -67.46779727 Eh


Note: Only C1 symmetry has been detected, increase convergence thresholds 
      if your molecule has a higher symmetry. Symmetry factor of 1.0 is   
      used for the rotational entropy correction. 
 

Note: Rotational entropy computed according to Herzberg 
Infrared and Raman Spectra, Chapter V,1, Van Nostrand Reinhold, 1945 
Point Group:  C1, Symmetry Number:   1  
Rotational constants in cm-1:     0.131077     0.035945     0.030438 

Vibrational entropy computed according to the QRRHO of S. Grimme
Chem.Eur.J. 2012 18 9955 using a reference frequency of 100.0 cm-1


-------
ENTROPY
-------

The entropy contributions are T*S = T*(S(el)+S(vib)+S(rot)+S(trans))
     S(el)   - electronic entropy
     S(vib)  - vibrational entropy
     S(rot)  - rotational entropy
     S(trans)- translational entropy
The entropies will be listed as multiplied by the temperature to get
units of energy

Electronic entropy                ...      0.00000000 Eh      0.00 kcal/mol
Vibrational entropy               ...      0.00860185 Eh      5.40 kcal/mol
Rotational entropy                ...      0.01368871 Eh      8.59 kcal/mol
Translational entropy             ...      0.01915481 Eh     12.02 kcal/mol
-----------------------------------------------------------------------
Final entropy term                ...      0.04144537 Eh     26.01 kcal/mol

In case the symmetry of your molecule has not been determined correctly
or in case you have a reason to use a different symmetry number we print 
out the resulting rotational entropy values for sn=1,12:

 non-linear molecules -----------------------------------
|  sn= 1 | S(rot)=       0.01368871 Eh      8.59 kcal/mol|
|  sn= 2 | S(rot)=       0.01303426 Eh      8.18 kcal/mol|
|  sn= 3 | S(rot)=       0.01265143 Eh      7.94 kcal/mol|
|  sn= 4 | S(rot)=       0.01237980 Eh      7.77 kcal/mol|
|  sn= 5 | S(rot)=       0.01216911 Eh      7.64 kcal/mol|
|  sn= 6 | S(rot)=       0.01199697 Eh      7.53 kcal/mol|
|  sn= 7 | S(rot)=       0.01185142 Eh      7.44 kcal/mol|
|  sn= 8 | S(rot)=       0.01172534 Eh      7.36 kcal/mol|
|  sn= 9 | S(rot)=       0.01161414 Eh      7.29 kcal/mol|
|  sn=10 | S(rot)=       0.01151466 Eh      7.23 kcal/mol|
|  sn=11 | S(rot)=       0.01142467 Eh      7.17 kcal/mol|
|  sn=12 | S(rot)=       0.01134251 Eh      7.12 kcal/mol|
 linear molecules ---------------------------------------
|  Dinfh | S(rot)=       0.00862293 Eh      5.41 kcal/mol|
|  Cinfv | S(rot)=       0.00927739 Eh      5.82 kcal/mol|
 --------------------------------------------------------


-------------------
GIBBS FREE ENERGY
-------------------

The Gibbs free energy is G = H - T*S

Total enthalpy                    ...    -67.46779727 Eh 
Total entropy correction          ...     -0.04144537 Eh    -26.01 kcal/mol
-----------------------------------------------------------------------
Final Gibbs free energy         ...    -67.50924263 Eh

For completeness - the Gibbs free energy minus the electronic energy
G-E(el)                           ...      0.13289965 Eh     83.40 kcal/mol


Maximum memory used throughout the entire PROP-calculation: 71.8 MB

--------------------------------
SUGGESTED CITATIONS FOR THIS RUN
--------------------------------

Below you find a list of papers that are relevant to this ORCA run
We neither can nor want to force you to cite these papers, but we appreciate if you do
You receive ORCA, which is the product of decades of hard work by many enthusiastic individuals, for free
The only thing we kindly ask in return is that you cite our papers,
We deeply appreciate it, if you show your appreciation for ORCA by not just citing the generic ORCA reference.

Please note that relegating all ORCA citations to the supporting information does *not* help us.
SI sections are not indexed - citations you put there will not count into any citation statistics
But we need these citations in order to attract the funding resources that allow us to do what we are doing

Therefore, if you are a happy ORCA user, please consider citing a few of the papers listed below in the main body of your paper

In addition to the list printed below, the program has created the file ./output/methyl_anisole/methyl_anisole.bibtex that contains the list in bibtex format
You can import this file easily into all common literature databanks and citation aid programs


List of essential papers. We consider these as the minimum necessary citations

  1. Neese,F.
     Software update: the ORCA program system, version 5.0
     WIRES Comput. Molec. Sci., 2022 12(1)e1606
     doi.org/10.1002/wcms.1606
  2. Mueller,M.; Hansen,A.; Grimme,S.
     wB97X-3c: A composite range-separated hybrid DFT method with a molecule-optimized polarized valence double-zeta basis set
     J. Chem. Phys., 2023 158 014103
     doi.org/10.1063/5.0133026

List of papers to cite with high priority. The work reported in these papers was absolutely
necessary for this run to complete.
Our perspective: the developers of density functionals and basis sets usually get cited in chemistry papers
Good! But without the algorithms to do something with them, the functionals or basis sets would not do anything.
Hence, in our opinion, the algorithm design and method developments papers are equally worthy of getting cited

  1. Neese,F.
     An improvement of the resolution of the identity approximation for the formation of the Coulomb matrix
     J. Comp. Chem., 2003 24(14)1740-1747
     doi.org/10.1002/jcc.10318
  2. Neese,F.; Wennmohs,F.; Hansen,A.; Becker,U.
     Efficient, approximate and parallel Hartree-Fock and hybrid DFT calculations. A 'chain-of-spheres' algorithm for the Hartree-Fock exchange
     Chem. Phys., 2009 356(1-3)98-109
     doi.org/10.1016/j.chemphys.2008.10.036
  3. Bykov,D.; Petrenko,T.; Izsak,R.; Kossmann,S.; Becker,U.; Valeev,E.; Neese,F.
     Efficient implementation of the analytic second derivatives of Hartree-Fock and hybrid DFT energies: a detailed analysis of different approximations
     Molec. Phys., 2015 113 1961-1977
     doi.org/10.1080/00268976.2015.1025114
  4. Helmich-Paris,B.; de Souza,B.; Neese,F.; Izsák,R.
     An improved chain of spheres for exchange algorithm
     J. Chem. Phys., 2021 155 104109
     doi.org/doi: 10.1063/5.0058766.
  5. Neese,F.
     The SHARK Integral Generation and Digestion System
     J. Comp. Chem., 2022  1-16
     doi.org/10.1002/jcc.26942
  6. Caldeweyher,E.; Bannwarth,C.; Grimme,S.
     Extension of the D3 dispersion coefficient model
     J. Chem. Phys., 2017 147 034112
     doi.org/10.1063/1.4993215
  7. Caldeweyher,E.; Ehlert,S.; Hansen,A.; Neugebauer,H.; Spicher,S.; Bannwarth,C.; Grimme,S.
     A generally applicable atomic-charge dependent London dispersion correction
     J. Chem. Phys., 2019 150 154122
     doi.org/10.1063/1.5090222
  8. Caldeweyher,E.; Mewes,J.; Ehlert,S.; Grimme,S.
     Extension and evaluation of the D4 London-dispersion model for periodic systems
     Phys. Chem. Chem. Phys., 2020 22(16)8499-8512
     doi.org/10.1039/D0CP00502A
  9. Wittmann,L.; Gordiy,I.; Friede,M.; Helmich-Paris,B.; Grimme,S.; Hansen,A.; Bursch,M.
     Extension of the D3 and D4 London Dispersion Corrections to the full Actinides Series
     Phys. Chem. Chem. Phys., 2024 26(32)21379-21394
     doi.org/https://doi.org/10.1039/D4CP01514B 

List of suggested additional citations. These are papers that are important in the 'surrounding' of 
of this run, or papers that preceded the highly important papers. If you like your results we are grateful for a citation.

  1. Izsak,R.; Neese,F.
     An overlap fitted chain of spheres exchange method
     J. Chem. Phys., 2011 135 144105
     doi.org/10.1063/1.3646921
  2. Izsak,R.; Hansen,A.; Neese,F.
     The resolution of identity and chain of spheres approximations for the LPNO-CCSD singles Fock term
     Molec. Phys., 2012 110 2413-2417
     doi.org/10.1080/00268976.2012.687466
  3. Neese,F.
     The ORCA program system
     WIRES Comput. Molec. Sci., 2012 2(1)73-78
     doi.org/10.1002/wcms.81
  4. Izsak,R.; Neese,F.; Klopper,W.
     Robust fitting techniques in the chain of spheres approximation to the Fock exchange: The role of the complementary space
     J. Chem. Phys., 2013 139 
     doi.org/10.1063/1.4819264
  5. Neese,F.
     Software update: the ORCA program system, version 4.0
     WIRES Comput. Molec. Sci., 2018 8(1)1-6
     doi.org/10.1002/wcms.1327
  6. Neese,F.; Wennmohs,F.; Becker,U.; Riplinger,C.
     The ORCA quantum chemistry program package
     J. Chem. Phys., 2020 152 Art. No. L224108
     doi.org/10.1063/5.0004608

List of optional additional citations

  1. Neese,F.
     Approximate second-order SCF convergence for spin unrestricted wavefunctions
     Chem. Phys. Lett., 2000 325(1-3)93-98
     doi.org/10.1016/s0009-2614(00)00662-x

Timings for individual modules:

Sum of individual times          ...      344.413 sec (=   5.740 min)
Startup calculation              ...       21.464 sec (=   0.358 min)   6.2 %
SCF iterations                   ...      193.065 sec (=   3.218 min)  56.1 %
Property integrals               ...       25.274 sec (=   0.421 min)   7.3 %
SCF Response                     ...       22.271 sec (=   0.371 min)   6.5 %
Property calculations            ...       47.103 sec (=   0.785 min)  13.7 %
SCF Gradient evaluation          ...       35.043 sec (=   0.584 min)  10.2 %
Geometry relaxation              ...        0.192 sec (=   0.003 min)   0.1 %
                             ****ORCA TERMINATED NORMALLY****
TOTAL RUN TIME: 0 days 0 hours 5 minutes 47 seconds 859 msec
