
                                 *****************
                                 * O   R   C   A *
                                 *****************

                                            #,                                       
                                            ###                                      
                                            ####                                     
                                            #####                                    
                                            ######                                   
                                           ########,                                 
                                     ,,################,,,,,                         
                               ,,#################################,,                 
                          ,,##########################################,,             
                       ,#########################################, ''#####,          
                    ,#############################################,,   '####,        
                  ,##################################################,,,,####,       
                ,###########''''           ''''###############################       
              ,#####''   ,,,,##########,,,,          '''####'''          '####       
            ,##' ,,,,###########################,,,                        '##       
           ' ,,###''''                  '''############,,,                           
         ,,##''                                '''############,,,,        ,,,,,,###''
      ,#''                                            '''#######################'''  
     '                                                          ''''####''''         
             ,#######,   #######,   ,#######,      ##                                
            ,#'     '#,  ##    ##  ,#'     '#,    #''#        ,####,   ,####,        
            ##       ##  ##   ,#'  ##            #'  '#       #'       #'  '#        
            ##       ##  #######   ##           ,######,      #####,   #    #        
            '#,     ,#'  ##    ##  '#,     ,#' ,#      #,     #,   #   #,  ,#        
             '#######'   ##     ##  '#######'  #'      '#     '####' # '####'        



                #########################################################
                #                        -***-                          #
                #          Department of theory and spectroscopy        #
                #                                                       #
                #                      Frank Neese                      #
                #                                                       #
                #     Directorship, Architecture, Infrastructure        #
                #                    SHARK, DRIVERS                     #
                #        Core code/Algorithms in most modules           #
                #                                                       #
                #        Max Planck Institute fuer Kohlenforschung      #
                #                Kaiser Wilhelm Platz 1                 #
                #                 D-45470 Muelheim/Ruhr                 #
                #                      Germany                          #
                #                                                       #
                #                  All rights reserved                  #
                #                        -***-                          #
                #########################################################


                         Program Version 6.0.1  -  RELEASE   -


 With contributions from (in alphabetic order):
[Max-Planck-Institut fuer Kohlenforschung]                               
  Daniel Aravena         : Magnetic Suceptibility                        
  Michael Atanasov       : Ab Initio Ligand Field Theory (pilot matlab implementation)
  Alexander A. Auer      : GIAO ZORA, VPT2 properties, NMR spectrum      
  Ute Becker             : All parallelization in ORCA, NUMFREQ, NUMCALC 
  Giovanni Bistoni       : ED, misc. LED, open-shell LED, HFLD           
  Martin Brehm           : Molecular dynamics                            
  Dmytro Bykov           : pre 5.0 version of the SCF Hessian            
  Marcos Casanova-Páez   : Triplet and SCS-CIS(D). UHF-(DLPNO)-IP/EA/STEOM-CCSD. UHF-CVS-IP/STEOM-CCSD   
  Vijay G. Chilkuri      : MRCI spin determinant printing, contributions to CSF-ICE 
  Pauline Colinet        : FMM embedding                                 
  Dipayan Datta          : RHF DLPNO-CCSD density                        
  Achintya Kumar Dutta   : EOM-CC, STEOM-CC                              
  Nicolas Foglia         : Exact transition moments, OPA infrastructure, MCD improvements    
  Dmitry Ganyushin       : Spin-Orbit,Spin-Spin,Magnetic field MRCI      
  Miquel Garcia-Rates    : C-PCM and meta-GGA Hessian, CCSD/C-PCM, Gaussian charge scheme 
  Tiago L. C. Gouveia    : GS-ROHF, GS-ROCIS                             
  Yang Guo               : DLPNO-NEVPT2, F12-NEVPT2, CIM, IAO-localization        
  Andreas Hansen         : Spin unrestricted coupled pair/coupled cluster methods 
  Ingolf Harden          : AUTO-CI MPn and infrastructure                
  Benjamin Helmich-Paris : MC-RPA, TRAH-(SCF,CASSCF), AVAS, COSX integrals, SCF dyn. polar. 
  Lee Huntington         : MR-EOM, pCC                                   
  Robert Izsak           : Overlap fitted RIJCOSX, COSX-SCS-MP3, EOM     
  Riya Kayal             : Wick's Theorem for AUTO-CI, AUTO-CI UHF-CCSDT 
  Emily Kempfer          : AUTO-CI, RHF CISDT and CCSDT                  
  Christian Kollmar      : KDIIS, OOCD, Brueckner-CCSD(T), CCSD density, CASPT2, CASPT2-K, improved NEVPT2 
  Axel Koslowski         : Symmetry handling                             
  Simone Kossmann        : meta-GGA functionals, TD-DFT gradient, OOMP2, (MP2 Hessian; deprecated post 5.0) 
  Lucas Lang             : DCDCAS                                        
  Marvin Lechner         : AUTO-CI (C++ implementation), FIC-MRCC        
  Spencer Leger          : CASSCF response                               
  Dagmar Lenk            : GEPOL surface, SMD, ORCA-2-JSON               
  Dimitrios Liakos       : Extrapolation schemes; Compound Job, initial MDCI parallelization 
  Dimitrios Manganas     : Further ROCIS development; embedding schemes. LFT, Crystal Embedding 
  Dimitrios Pantazis     : SARC Basis sets                               
  Anastasios Papadopoulos: AUTO-CI, single reference methods and gradients 
  Taras Petrenko         : pre 6.0 DFT Hessian and TD-DFT gradient, (ASA, deprecated), ECA, 1-Electron XAS/XES, NRVS 
  Peter Pinski           : DLPNO-MP2, DLPNO-MP2 Gradient                 
  Christoph Reimann      : Effective Core Potentials                     
  Marius Retegan         : Local ZFS, SOC                                
  Christoph Riplinger    : Optimizer, TS searches, QM/MM, DLPNO-CCSD(T), (RO)-DLPNO pert. Triples 
  Michael Roemelt        : Original ROCIS implementation                 
  Masaaki Saitow         : Open-shell DLPNO-CCSD energy and density      
  Barbara Sandhoefer     : DKH picture change effects                    
  Kantharuban Sivalingam : CASSCF convergence/infrastructure, NEVPT2 and variants, FIC-MRCI 
  Bernardo de Souza      : ESD, SOC TD-DFT                               
  Georgi L. Stoychev     : AutoAux, RI-MP2 NMR, DLPNO-MP2 response, X2C  
  Van Anh Tran           : RI-MP2 g-tensors                              
  Willem Van den Heuvel  : Paramagnetic NMR                              
  Zikuan Wang            : NOTCH, Electric field optimization            
  Frank Wennmohs         : Technical directorship and infrastructure     
  Hang Xu                : AUTO-CI-Response properties                   
                                                                         
[FACCTs GmbH]                                                            
  Markus Bursch, Miquel Garcia-Rates, Christoph Riplinger, Bernardo de Souza, Georgi L. Stoychev 
                                                                 
  APM, Basis sets (HGBS, AHGBS, def-TZVP (Ac-Lr), def2-XVPD (La-Lu)), CI-OPT, improved COSX, DLPNO-Multilevel,           
  DOCKER, DRACO, updates on ESD, GOAT, IRC, LR-CPCM, MBIS, meta-GGA TD-DFT gradient, ML-optimized integration grids, 
  MM, NACMEs, nearIR, NEB, NEB-TS, NL-DFT gradient (VV10), 2- and 3-layer-ONIOM, interface openCOSMO-RS, QMMM,   
  Crystal-QMMM, SF, symmetry and pop. for TD-DFT, r2SCAN hybrids, SOLVATOR                                   
                                                                         
[Other institutions]                                                     
  V. Asgeirsson          : NEB                                           
  Christoph Bannwarth    : sTDA-DFT, sTD-DFT, PBEh-3c, B97-3c, D3        
  Sebastian Ehlert       : rSCAN, r2SCAN, r2SCAN-3c, D4, dhf basis sets  
  Marvin Friede          : D4 for Fr, Ra, Ac-Lr                          
  Lars Goerigk           : TD-DFT with DH, B97 family of functionals     
  Stefan Grimme          : VdW corrections, initial TS optimization, DFT functionals, gCP, sTDA/sTD-DF 
  Waldemar Hujo          : DFT-NL                                        
  H. Jonsson             : NEB                                           
  Holger Kruse           : gCP                                           
  Marcel Mueller         : wB97X-3c, vDZP basis set                      
  Hagen Neugebauer       : wr2SCAN                                       
  Tobias Risthaus        : range-separated hybrid DFT                    
  Lukas Wittmann         : regularized MP2, r2SCAN double-hybrids, wr2SCAN        
                                                                         
We gratefully acknowledge several colleagues who have allowed us to      
interface, adapt or use parts of their codes:                            
  Ed Valeev, F. Pavosevic, A. Kumar             : LibInt (2-el integral package), F12 methods 
  Garnet Chan, S. Sharma, J. Yang, R. Olivares  : DMRG                   
  Ulf Ekstrom                                   : XCFun DFT Library      
  Mihaly Kallay                                 : mrcc  (arbitrary order and MRCC methods)
  Frank Weinhold                                : gennbo (NPA and NBO analysis)           
  Simon Mueller                                 : openCOSMO-RS                            
  Christopher J. Cramer and Donald G. Truhlar   : smd solvation model                     
  S Lehtola, MJT Oliveira, MAL Marques          : LibXC Library                           
  Liviu Ungur et al                             : ANISO software                          


 Your calculation uses the libint2 library for the computation of 2-el integrals
 For citations please refer to: http://libint.valeyev.net

 Your ORCA version has been built with support for libXC version: 6.2.2
 For citations please refer to: https://libxc.gitlab.io

 This ORCA versions uses:
   CBLAS   interface :  Fast vector & matrix operations
   LAPACKE interface :  Fast linear algebra routines
   SCALAPACK package :  Parallel linear algebra routines
   Shared memory     :  Shared parallel matrices
   BLAS/LAPACK       :  OpenBLAS 0.3.27  USE64BITINT DYNAMIC_ARCH NO_AFFINITY SkylakeX SINGLE_THREADED
        Core in use  :  SkylakeX
   Copyright (c) 2011-2014, The OpenBLAS Project


Your calculation utilizes the atom-pairwise dispersion correction
based on EEQ partial charges (D4)


================================================================================

cite the ECPs for C  [vDZP-ECP], O  [vDZP-ECP] as follows:
   B-Ne (ecp-2-mwb), Al-Ar (ecp-10-mwb), Ga-Kr (ecp-28-mwb), Y-Cd (ecp-28-mwb), In-Xe (ecp-46-mwb):
     A. Bergner, M. Dolg, W. Küchle, H. Stoll, and H. Preuß, Mol. Phys. 80, 1431 (1993)., T. Leininger, A. Berning, A. Nicklass, H. Stoll, H.-J. Werner, and H.-J.Flad, Chem. Phys. 217, 19 (1997).
   Na-Mg, K-Ca, Rb-Sr, Cs-Ba (CRENBL):
     L. Fernandez Pacios and P. A. Christiansen, J. Chem. Phys. 82, 2664 (1985)., M. M. Hurley, L. F. Pacios, P. A. Christiansen, R. B. Ross, and W. C. Ermler, J. Chem. Phys. 84, 6840 (1986)., L. A. LaJohn, P. A. Christiansen, R. B. Ross, T. Atashroo, and W. C. Ermler, J. Chem. Phys. 87, 2812 (1987)., R. B. Ross, J. M. Powers, T. Atashroo, W. C. Ermler, L. A. LaJohn, and P. A. Christiansen, J. Chem. Phys. 93, 6654 (1990). 
   Sc-Zn (ecp-10-mdf):
     M. Dolg, U. Wedig, H. Stoll, and H. Preuss, J. Chem. Phys. 86, 866 (1986). 
   Y-Cd (ecp-28-mwb), Hf-Hg (ecp-60-mwb):
     D. Andrae, U. Häußermann, M. Dolg, H. Stoll, and H. Preuß, Theor. Chim. Acta 77, 123 (1990). 
   La (ecp-46-mwb):
     M. Dolg, H. Stoll, and H. Preuss, J. Chem. Phys. 90, 1730 (1989)., M. Dolg, H. Stoll, and H. Preuss, Theor. Chim. Acta 85, 441 (1993).
   Ce-Lu (SBKJC-ecp):
     T. R. Cundari and W. J. Stevens, J. Chem. Phys. 98, 5555 (1993).
   Tl-Rn (ecp-78-mwb):
     W. Küchle, M. Dolg, H. Stoll, and H. Preuss, Mol. Phys. 74, 1245 (1991).

ECP parameters for C  [vDZP-ECP], O  [vDZP-ECP] have been obtained from:
MM, AH, SG, J. Chem. Phys. 158, 014103 (2023), 10.1063/5.0133026

----- Orbital basis set information -----
Your calculation utilizes the basis: vDZP
   Marcel Mueller, Andreas Hansen, Stefan Grimme 
   J. Chem. Phys. 158, 014103 (2023). DOI: 10.1063/5.0133026

----- AuxJ basis set information -----
Your calculation utilizes the auxiliary basis: def2/J
   F. Weigend, Phys. Chem. Chem. Phys. 8, 1057 (2006).

================================================================================
                                        WARNINGS
                       Please study these warnings very carefully!
================================================================================

WARNING: Frozen-Core approximation turned on, but there are no core electrons.
  ===> : Turning off frozen-core approximation


WARNING: Geometry Optimization
  ===> : Switching off AutoStart
         For restart on a previous wavefunction, please use MOREAD

================================================================================
                                       INPUT FILE
================================================================================
NAME = ./output/ethyl_cinnamate/ethyl_cinnamate.inp
|  1> ! wB97X-3c OPT FREQ TightSCF
|  2> %pal
|  3>   nprocs 40
|  4> end
|  5> * xyz 0 1
|  6> C     -4.423020    -0.985591     1.039123
|  7> C     -3.899914     0.416698     0.750486
|  8> O     -2.502439     0.384265     0.467507
|  9> C     -1.971122    -0.057727    -0.751228
| 10> O     -2.734290    -0.407688    -1.691931
| 11> C     -0.514901    -0.114365    -0.953477
| 12> C      0.347847     0.263299    -0.000328
| 13> C      1.822440     0.233062    -0.163561
| 14> C      2.464822    -0.586590    -1.115150
| 15> C      3.859472    -0.586789    -1.220946
| 16> C      4.627772     0.219089    -0.378327
| 17> C      4.003710     1.022686     0.577707
| 18> C      2.609987     1.026676     0.688865
| 19> H     -4.313539    -1.632110     0.143619
| 20> H     -5.498035    -0.934060     1.312107
| 21> H     -3.858149    -1.434059     1.883582
| 22> H     -4.457137     0.870249    -0.097916
| 23> H     -4.063928     1.049777     1.647800
| 24> H     -0.160477    -0.451581    -1.917762
| 25> H     -0.040364     0.653379     0.933589
| 26> H      1.903731    -1.245700    -1.762438
| 27> H      4.345570    -1.218817    -1.953020
| 28> H      5.706893     0.215846    -0.461885
| 29> H      4.600133     1.642716     1.234524
| 30> H      2.144936     1.657334     1.436975
| 31> *
| 32> 
| 33>                          ****END OF INPUT****
================================================================================

                       *****************************
                       * Geometry Optimization Run *
                       *****************************

Geometry optimization settings:
Update method            Update   .... BFGS
Choice of coordinates    CoordSys .... (2022) Redundant Internals
Initial Hessian          InHess   .... Almloef's Model
Max. no of cycles        MaxIter  .... 75

Convergence Tolerances:
Energy Change            TolE     ....  5.0000e-06 Eh
Max. Gradient            TolMAXG  ....  3.0000e-04 Eh/bohr
RMS Gradient             TolRMSG  ....  1.0000e-04 Eh/bohr
Max. Displacement        TolMAXD  ....  4.0000e-03 bohr
RMS Displacement         TolRMSD  ....  2.0000e-03 bohr
Strict Convergence                .... False

------------------------------------------------------------------------------
                        ORCA OPTIMIZATION COORDINATE SETUP
------------------------------------------------------------------------------

The optimization will be done in redundant internal coordinates (2022)
Making redundant internal coordinates   ...  (2022 redundants) done
Evaluating the initial hessian          ...  (Almloef) done
Evaluating the coordinates              ...  done
Calculating the B-matrix                .... done
Calculating the G-matrix                .... done
Diagonalizing the G-matrix              .... done
Small eigenvalue found = 4.456e-03
Small eigenvalue found = 1.164e-02
Small eigenvalue found = 2.737e-02
Small eigenvalue found = 2.896e-02
The first mode is                       ....   43
The number of degrees of freedom        ....   69

    -----------------------------------------------------------------
                    Redundant Internal Coordinates


    -----------------------------------------------------------------
         Definition                    Initial Value    Approx d2E/dq
    -----------------------------------------------------------------
      1. B(C   1,C   0)                  1.5243         0.381537   
      2. B(O   2,C   1)                  1.4262         0.489903   
      3. B(C   3,O   2)                  1.4011         0.537316   
      4. B(O   4,C   3)                  1.2609         0.899243   
      5. B(C   5,C   3)                  1.4713         0.463497   
      6. B(C   6,C   5)                  1.3399         0.750923   
      7. B(C   7,C   6)                  1.4839         0.442501   
      8. B(C   8,C   7)                  1.4107         0.579098   
      9. B(C   9,C   8)                  1.3987         0.605239   
     10. B(C  10,C   9)                  1.3963         0.610440   
     11. B(C  11,C  10)                  1.3961         0.610849   
     12. B(C  12,C  11)                  1.3982         0.606357   
     13. B(C  12,C   7)                  1.4059         0.589248   
     14. B(H  13,C   0)                  1.1099         0.334702   
     15. B(H  14,C   0)                  1.1103         0.334186   
     16. B(H  15,C   0)                  1.1105         0.333920   
     17. B(H  16,C   1)                  1.1118         0.332445   
     18. B(H  17,C   1)                  1.1103         0.334170   
     19. B(H  18,C   5)                  1.0813         0.371816   
     20. B(H  19,C   6)                  1.0840         0.368116   
     21. B(H  20,C   8)                  1.0808         0.372414   
     22. B(H  21,C   9)                  1.0824         0.370237   
     23. B(H  22,C  10)                  1.0824         0.370355   
     24. B(H  23,C  11)                  1.0824         0.370310   
     25. B(H  24,C  12)                  1.0834         0.368991   
     26. A(H  13,C   0,H  15)          109.1541         0.284163   
     27. A(C   1,C   0,H  13)          110.4416         0.321563   
     28. A(H  14,C   0,H  15)          108.9205         0.284095   
     29. A(C   1,C   0,H  14)          109.6413         0.321481   
     30. A(C   1,C   0,H  15)          109.9344         0.321440   
     31. A(H  13,C   0,H  14)          108.7174         0.284198   
     32. A(C   0,C   1,H  16)          110.3536         0.321207   
     33. A(O   2,C   1,H  17)          108.5451         0.332989   
     34. A(C   0,C   1,O   2)          110.6663         0.379696   
     35. A(H  16,C   1,H  17)          108.0634         0.283897   
     36. A(O   2,C   1,H  16)          110.4248         0.332703   
     37. A(C   0,C   1,H  17)          108.7123         0.321479   
     38. A(C   1,O   2,C   3)          123.4599         0.400534   
     39. A(O   4,C   3,C   5)          119.0665         0.437552   
     40. A(O   2,C   3,C   5)          120.4682         0.399204   
     41. A(O   2,C   3,O   4)          120.4647         0.446442   
     42. A(C   6,C   5,H  18)          120.7449         0.366609   
     43. A(C   3,C   5,H  18)          117.3238         0.337888   
     44. A(C   3,C   5,C   6)          121.9137         0.426394   
     45. A(C   7,C   6,H  19)          117.2569         0.334734   
     46. A(C   5,C   6,H  19)          118.9261         0.365981   
     47. A(C   5,C   6,C   7)          123.7682         0.422873   
     48. A(C   8,C   7,C  12)          118.8086         0.424887   
     49. A(C   6,C   7,C  12)          118.5837         0.405044   
     50. A(C   6,C   7,C   8)          122.5854         0.403804   
     51. A(C   7,C   8,H  20)          121.4600         0.350849   
     52. A(C   7,C   8,C   9)          120.3429         0.426929   
     53. A(C   9,C   8,H  20)          118.1803         0.353479   
     54. A(C   8,C   9,C  10)          120.1937         0.430984   
     55. A(C  10,C   9,H  21)          119.8690         0.353640   
     56. A(C   8,C   9,H  21)          119.9358         0.353128   
     57. A(C   9,C  10,C  11)          119.9650         0.431699   
     58. A(C  11,C  10,H  22)          120.0160         0.353699   
     59. A(C   9,C  10,H  22)          120.0178         0.353659   
     60. A(C  10,C  11,C  12)          120.1096         0.431179   
     61. A(C  12,C  11,H  23)          119.9602         0.353250   
     62. A(C  10,C  11,H  23)          119.9301         0.353692   
     63. A(C   7,C  12,C  11)          120.5683         0.428402   
     64. A(C  11,C  12,H  24)          118.9776         0.353037   
     65. A(C   7,C  12,H  24)          120.4521         0.351332   
     66. D(H  16,C   1,C   0,H  13)     59.1800         0.011597   
     67. D(H  16,C   1,C   0,H  14)    -60.5984         0.011597   
     68. D(O   2,C   1,C   0,H  14)    176.8711         0.011597   
     69. D(O   2,C   1,C   0,H  15)     57.1573         0.011597   
     70. D(O   2,C   1,C   0,H  13)    -63.3504         0.011597   
     71. D(H  16,C   1,C   0,H  15)    179.6877         0.011597   
     72. D(C   3,O   2,C   1,C   0)     75.9164         0.018952   
     73. D(C   3,O   2,C   1,H  17)   -164.8615         0.018952   
     74. D(C   3,O   2,C   1,H  16)    -46.5725         0.018952   
     75. D(C   5,C   3,O   2,C   1)   -177.5306         0.020839   
     76. D(O   4,C   3,O   2,C   1)      2.7430         0.020839   
     77. D(H  18,C   5,C   3,O   2)   -179.2555         0.014632   
     78. D(C   6,C   5,C   3,O   4)    178.9560         0.014632   
     79. D(H  18,C   5,C   3,O   4)      0.4747         0.014632   
     80. D(C   6,C   5,C   3,O   2)     -0.7742         0.014632   
     81. D(H  19,C   6,C   5,H  18)    176.3028         0.040223   
     82. D(H  19,C   6,C   5,C   3)     -2.1273         0.040223   
     83. D(C   7,C   6,C   5,H  18)     -1.0848         0.040223   
     84. D(C   7,C   6,C   5,C   3)   -179.5149         0.040223   
     85. D(C  12,C   7,C   6,C   5)    159.8075         0.013357   
     86. D(C   8,C   7,C   6,H  19)    160.6412         0.013357   
     87. D(C   8,C   7,C   6,C   5)    -21.9307         0.013357   
     88. D(C  12,C   7,C   6,H  19)    -17.6206         0.013357   
     89. D(H  20,C   8,C   7,C  12)    177.3048         0.023037   
     90. D(H  20,C   8,C   7,C   6)     -0.9533         0.023037   
     91. D(C   9,C   8,C   7,C  12)     -1.1792         0.023037   
     92. D(C   9,C   8,C   7,C   6)   -179.4373         0.023037   
     93. D(H  21,C   9,C   8,H  20)      1.4264         0.025277   
     94. D(H  21,C   9,C   8,C   7)    179.9594         0.025277   
     95. D(C  10,C   9,C   8,H  20)   -178.1189         0.025277   
     96. D(C  10,C   9,C   8,C   7)      0.4141         0.025277   
     97. D(H  22,C  10,C   9,H  21)      0.3829         0.025738   
     98. D(H  22,C  10,C   9,C   8)    179.9285         0.025738   
     99. D(C  11,C  10,C   9,H  21)   -179.2124         0.025738   
    100. D(C  11,C  10,C   9,C   8)      0.3332         0.025738   
    101. D(H  23,C  11,C  10,H  22)      0.0416         0.025775   
    102. D(H  23,C  11,C  10,C   9)    179.6369         0.025775   
    103. D(C  12,C  11,C  10,H  22)   -179.8915         0.025775   
    104. D(C  12,C  11,C  10,C   9)     -0.2962         0.025775   
    105. D(H  24,C  12,C  11,C  10)   -179.9884         0.025376   
    106. D(C   7,C  12,C  11,H  23)    179.5754         0.025376   
    107. D(C   7,C  12,C  11,C  10)     -0.4915         0.025376   
    108. D(H  24,C  12,C   7,C   8)   -179.2917         0.023891   
    109. D(H  24,C  12,C   7,C   6)     -0.9632         0.023891   
    110. D(C  11,C  12,C   7,C   8)      1.2188         0.023891   
    111. D(H  24,C  12,C  11,H  23)      0.0785         0.025376   
    112. D(C  11,C  12,C   7,C   6)    179.5474         0.023891   
    -----------------------------------------------------------------

Number of atoms                         .... 25
Number of degrees of freedom            .... 112


         *************************************************************
         *                GEOMETRY OPTIMIZATION CYCLE   1            *
         *************************************************************
---------------------------------
CARTESIAN COORDINATES (ANGSTROEM)
---------------------------------
  C     -4.423020   -0.985591    1.039123
  C     -3.899914    0.416698    0.750486
  O     -2.502439    0.384265    0.467507
  C     -1.971122   -0.057727   -0.751228
  O     -2.734290   -0.407688   -1.691931
  C     -0.514901   -0.114365   -0.953477
  C      0.347847    0.263299   -0.000328
  C      1.822440    0.233062   -0.163561
  C      2.464822   -0.586590   -1.115150
  C      3.859472   -0.586789   -1.220946
  C      4.627772    0.219089   -0.378327
  C      4.003710    1.022686    0.577707
  C      2.609987    1.026676    0.688865
  H     -4.313539   -1.632110    0.143619
  H     -5.498035   -0.934060    1.312107
  H     -3.858149   -1.434059    1.883582
  H     -4.457137    0.870249   -0.097916
  H     -4.063928    1.049777    1.647800
  H     -0.160477   -0.451581   -1.917762
  H     -0.040364    0.653379    0.933589
  H      1.903731   -1.245700   -1.762438
  H      4.345570   -1.218817   -1.953020
  H      5.706893    0.215846   -0.461885
  H      4.600133    1.642716    1.234524
  H      2.144936    1.657334    1.436975

----------------------------
CARTESIAN COORDINATES (A.U.)
----------------------------
  NO LB      ZA    FRAG     MASS         X           Y           Z
   0 C     4.0000*   0    12.011   -8.358296   -1.862497    1.963658
   1 C     4.0000*   0    12.011   -7.369769    0.787445    1.418213
   2 O     6.0000*   0    15.999   -4.728924    0.726156    0.883460
   3 C     4.0000*   0    12.011   -3.724881   -0.109088   -1.419615
   4 O     6.0000*   0    15.999   -5.167059   -0.770419   -3.197286
   5 C     4.0000*   0    12.011   -0.973022   -0.216119   -1.801810
   6 C     4.0000*   0    12.011    0.657336    0.497563   -0.000620
   7 C     4.0000*   0    12.011    3.443912    0.440423   -0.309085
   8 C     4.0000*   0    12.011    4.657839   -1.108494   -2.107328
   9 C     4.0000*   0    12.011    7.293345   -1.108871   -2.307254
  10 C     4.0000*   0    12.011    8.745222    0.414018   -0.714934
  11 C     4.0000*   0    12.011    7.565915    1.932596    1.091708
  12 C     4.0000*   0    12.011    4.932161    1.940136    1.301766
  13 H     1.0000    0     1.008   -8.151407   -3.084241    0.271401
  14 H     1.0000    0     1.008  -10.389780   -1.765118    2.479523
  15 H     1.0000    0     1.008   -7.290845   -2.709979    3.559454
  16 H     1.0000    0     1.008   -8.422768    1.644532   -0.185034
  17 H     1.0000    0     1.008   -7.679711    1.983791    3.113891
  18 H     1.0000    0     1.008   -0.303258   -0.853364   -3.624045
  19 H     1.0000    0     1.008   -0.076277    1.234707    1.764228
  20 H     1.0000    0     1.008    3.597530   -2.354032   -3.330525
  21 H     1.0000    0     1.008    8.211937   -2.303230   -3.690673
  22 H     1.0000    0     1.008   10.784465    0.407890   -0.872836
  23 H     1.0000    0     1.008    8.692992    3.104283    2.332912
  24 H     1.0000    0     1.008    4.053342    3.131907    2.715489
* core charge reduced due to ECP

--------------------------------
INTERNAL COORDINATES (ANGSTROEM)
--------------------------------
 C      0   0   0     0.000000000000     0.00000000     0.00000000
 C      1   0   0     1.524259047710     0.00000000     0.00000000
 O      2   1   0     1.426206643357   110.66628965     0.00000000
 C      3   2   1     1.401060199555   123.45986498    75.91635008
 O      4   3   2     1.260880736610   120.46468130     2.74300700
 C      4   3   2     1.471289271994   120.46822111   182.46942019
 C      6   4   3     1.339946724538   121.91365432   359.22582883
 C      7   6   4     1.483908286959   123.76819023   180.48505504
 C      8   7   6     1.410675604081   122.58539842   338.06925985
 C      9   8   7     1.398657018614   120.34294534   180.56274080
 C     10   9   8     1.396327690782   120.19368095     0.41409811
 C     11  10   9     1.396145596780   119.96499479     0.33324560
 C     12  11  10     1.398154434171   120.10964128   359.70382075
 H      1   2   3     1.109910050742   110.44155402   296.64959803
 H      1   2   3     1.110330112373   109.64133874   176.87114820
 H      1   2   3     1.110546620519   109.93439198    57.15730286
 H      2   1   3     1.111751741593   110.35360660   122.53040591
 H      2   1   3     1.110343202363   108.71227079   240.87875732
 H      6   4   3     1.081284682060   117.32379387   180.74451844
 H      7   6   4     1.084006987897   118.92612251   357.87273985
 H      9   8   7     1.080847286773   121.45997509   359.04673998
 H     10   9   8     1.082443070034   119.93576303   179.95939436
 H     11  10   9     1.082356036179   120.01776544   179.92854176
 H     12  11  10     1.082389101626   119.93007751   179.63692178
 H     13  12  11     1.083360751396   118.97764906   180.01155751

---------------------------
INTERNAL COORDINATES (A.U.)
---------------------------
 C      0   0   0     0.000000000000     0.00000000     0.00000000
 C      1   0   0     2.880432157324     0.00000000     0.00000000
 O      2   1   0     2.695139966323   110.66628965     0.00000000
 C      3   2   1     2.647620074297   123.45986498    75.91635008
 O      4   3   2     2.382719279730   120.46468130     2.74300700
 C      4   3   2     2.780333787846   120.46822111   182.46942019
 C      6   4   3     2.532132343422   121.91365432   359.22582883
 C      7   6   4     2.804180270210   123.76819023   180.48505504
 C      8   7   6     2.665790555517   122.58539842   338.06925985
 C      9   8   7     2.643078720466   120.34294534   180.56274080
 C     10   9   8     2.638676928789   120.19368095     0.41409811
 C     11  10   9     2.638332820995   119.96499479     0.33324560
 C     12  11  10     2.642128973511   120.10964128   359.70382075
 H      1   2   3     2.097426029189   110.44155402   296.64959803
 H      1   2   3     2.098219830631   109.64133874   176.87114820
 H      1   2   3     2.098628971733   109.93439198    57.15730286
 H      2   1   3     2.100906320520   110.35360660   122.53040591
 H      2   1   3     2.098244567127   108.71227079   240.87875732
 H      6   4   3     2.043331921897   117.32379387   180.74451844
 H      7   6   4     2.048476334383   118.92612251   357.87273985
 H      9   8   7     2.042505364593   121.45997509   359.04673998
 H     10   9   8     2.045520957925   119.93576303   179.95939436
 H     11  10   9     2.045356487776   120.01776544   179.92854176
 H     12  11  10     2.045418972414   119.93007751   179.63692178
 H     13  12  11     2.047255124377   118.97764906   180.01155751

---------------------
BASIS SET INFORMATION
---------------------
There are 3 groups of distinct atoms

 Group   1 Type C   : 6s6p2d contracted to 2s2p1d pattern {42/42/2}
 Group   2 Type O   : 6s6p2d contracted to 2s2p1d pattern {42/42/2}
 Group   3 Type H   : 8s2p contracted to 2s1p pattern {53/2}

Atom   0C    basis set group =>   1
Atom   1C    basis set group =>   1
Atom   2O    basis set group =>   2
Atom   3C    basis set group =>   1
Atom   4O    basis set group =>   2
Atom   5C    basis set group =>   1
Atom   6C    basis set group =>   1
Atom   7C    basis set group =>   1
Atom   8C    basis set group =>   1
Atom   9C    basis set group =>   1
Atom  10C    basis set group =>   1
Atom  11C    basis set group =>   1
Atom  12C    basis set group =>   1
Atom  13H    basis set group =>   3
Atom  14H    basis set group =>   3
Atom  15H    basis set group =>   3
Atom  16H    basis set group =>   3
Atom  17H    basis set group =>   3
Atom  18H    basis set group =>   3
Atom  19H    basis set group =>   3
Atom  20H    basis set group =>   3
Atom  21H    basis set group =>   3
Atom  22H    basis set group =>   3
Atom  23H    basis set group =>   3
Atom  24H    basis set group =>   3
---------------------------------
AUXILIARY/J BASIS SET INFORMATION
---------------------------------
There are 3 groups of distinct atoms

 Group   1 Type C   : 12s5p4d2f1g contracted to 6s4p3d1f1g pattern {711111/2111/211/2/1}
 Group   2 Type O   : 12s5p4d2f1g contracted to 6s4p3d1f1g pattern {711111/2111/211/2/1}
 Group   3 Type H   : 5s2p1d contracted to 3s1p1d pattern {311/2/1}

Atom   0C    basis set group =>   1
Atom   1C    basis set group =>   1
Atom   2O    basis set group =>   2
Atom   3C    basis set group =>   1
Atom   4O    basis set group =>   2
Atom   5C    basis set group =>   1
Atom   6C    basis set group =>   1
Atom   7C    basis set group =>   1
Atom   8C    basis set group =>   1
Atom   9C    basis set group =>   1
Atom  10C    basis set group =>   1
Atom  11C    basis set group =>   1
Atom  12C    basis set group =>   1
Atom  13H    basis set group =>   3
Atom  14H    basis set group =>   3
Atom  15H    basis set group =>   3
Atom  16H    basis set group =>   3
Atom  17H    basis set group =>   3
Atom  18H    basis set group =>   3
Atom  19H    basis set group =>   3
Atom  20H    basis set group =>   3
Atom  21H    basis set group =>   3
Atom  22H    basis set group =>   3
Atom  23H    basis set group =>   3
Atom  24H    basis set group =>   3
-------------------------
ECP PARAMETER INFORMATION
-------------------------

 Group 1, Type C  ECP vDZP-ECP (replacing 2 core electrons, lmax=3)
 Group 2, Type O  ECP vDZP-ECP (replacing 2 core electrons, lmax=3)

Atom   0C    ECP group =>   1
Atom   1C    ECP group =>   1
Atom   2O    ECP group =>   2
Atom   3C    ECP group =>   1
Atom   4O    ECP group =>   2
Atom   5C    ECP group =>   1
Atom   6C    ECP group =>   1
Atom   7C    ECP group =>   1
Atom   8C    ECP group =>   1
Atom   9C    ECP group =>   1
Atom  10C    ECP group =>   1
Atom  11C    ECP group =>   1
Atom  12C    ECP group =>   1



           ************************************************************
           *        Program running with 40 parallel MPI-processes    *
           *              working on a common directory               *
           ************************************************************
------------------------------------------------------------------------------
                             ORCA STARTUP CALCULATIONS
                           -- RI-GTO INTEGRALS CHOSEN --
------------------------------------------------------------------------------
------------------------------------------------------------------------------
                   ___                                                        
                  /   \      - P O W E R E D   B Y -                         
                 /     \                                                     
                 |  |  |   _    _      __       _____    __    __             
                 |  |  |  | |  | |    /  \     |  _  \  |  |  /  |          
                  \  \/   | |  | |   /    \    | | | |  |  | /  /          
                 / \  \   | |__| |  /  /\  \   | |_| |  |  |/  /          
                |  |  |   |  __  | /  /__\  \  |    /   |      \           
                |  |  |   | |  | | |   __   |  |    \   |  |\   \          
                \     /   | |  | | |  |  |  |  | |\  \  |  | \   \       
                 \___/    |_|  |_| |__|  |__|  |_| \__\ |__|  \__/        
                                                                              
                      - O R C A' S   B I G   F R I E N D -                    
                                      &                                       
                       - I N T E G R A L  F E E D E R -                       
                                                                              
 v1 FN, 2020, v2 2021, v3 2022-2024                                           
------------------------------------------------------------------------------


----------------------
SHARK INTEGRAL PACKAGE
----------------------

Number of atoms                             ...     25
Number of basis functions                   ...    229
Number of shells                            ...    101
Maximum angular momentum                    ...      2
Integral batch strategy                     ... SHARK/LIBINT Hybrid
RI-J (if used) integral strategy            ... SPLIT-RIJ (Revised 2003 algorithm where possible)
Printlevel                                  ...      1
Contraction scheme used                     ... SEGMENTED contraction
Prescreening option                         ... SCHWARTZ
   Thresh                                   ... 2.500e-11
   Tcut                                     ... 2.500e-12
   Tpresel                                  ... 2.500e-12 
Coulomb Range Separation                    ... NOT USED
Exchange Range Separation                   ... Long Range
   Mu parameter                             ... 3.000e-01
   Scaling (regular/separated)              ... 1.670e-01 8.330e-01
Multipole approximations                    ... NOT USED
Finite Nucleus Model                        ... NOT USED
CABS basis                                  ... NOT available
Auxiliary Coulomb fitting basis             ... AVAILABLE
   # of basis functions in Aux-J            ...    769
   # of shells in Aux-J                     ...    255
   Maximum angular momentum in Aux-J        ...      4
Auxiliary J/K fitting basis                 ... NOT available
Auxiliary Correlation fitting basis         ... NOT available
Auxiliary 'external' fitting basis          ... NOT available

Checking pre-screening integrals            ... done (  0.0 sec) Dimension = 101
Check shell pair data                       ... done (  0.0 sec)
Shell pair information
Shell pair cut-off parameter TPreSel        ...   2.5e-12
Total number of shell pairs                 ...      5151
Shell pairs after pre-screening             ...      4865
Total number of primitive shell pairs       ...     46116
Primitive shell pairs kept                  ...     32778
          la=0 lb=0:   1237 shell pairs
          la=1 lb=0:   1800 shell pairs
          la=1 lb=1:    676 shell pairs
          la=2 lb=0:    621 shell pairs
          la=2 lb=1:    445 shell pairs
          la=2 lb=2:     86 shell pairs

Calculating one electron integrals          ... done (  0.0 sec)
Calculating ECP integrals                   ... done (  0.1 sec)
Calculating RI/J V-Matrix + Cholesky decomp.... done (  0.0 sec)
Calculating Nuclear repulsion               ... done (  0.0 sec) ENN=    364.928838064911 Eh

Diagonalization of the overlap matrix:
Smallest eigenvalue                        ... 4.511e-04
Time for diagonalization                   ...    0.007 sec
Threshold for overlap eigenvalues          ... 1.000e-07
Number of eigenvalues below threshold      ... 0
Time for construction of square roots      ...    0.005 sec
Total time needed                          ...    0.016 sec

-------------------
DFT GRID GENERATION
-------------------

General Integration Accuracy     IntAcc      ... 4.388
Radial Grid Type                 RadialGrid  ... OptM3 with GC (2021)
Angular Grid (max. ang.)         AngularGrid ... 4 (Lebedev-302)
Angular grid pruning method      GridPruning ... 4 (adaptive)
Weight generation scheme         WeightScheme... mBecke (2022)
Basis function cutoff            BFCut       ... 1.0000e-11
Integration weight cutoff        WCut        ... 1.0000e-14
Partially contracted basis set               ... off
Rotationally invariant grid construction     ... off
Angular grids for H and He will be reduced by one unit

Total number of grid points                  ...   116852
Total number of batches                      ...     1840
Average number of points per batch           ...       63
Average number of grid points per atom       ...     4674

--------------------
COSX GRID GENERATION
--------------------

GRIDX 1
-------
General Integration Accuracy     IntAcc      ... 3.816
Radial Grid Type                 RadialGrid  ... OptM3 with GC (2021)
Angular Grid (max. ang.)         AngularGrid ... 1 (Lebedev-50)
Angular grid pruning method      GridPruning ... 4 (adaptive)
Weight generation scheme         WeightScheme... mBecke (2022)
Basis function cutoff            BFCut       ... 1.0000e-11
Integration weight cutoff        WCut        ... 1.0000e-14
Partially contracted basis set               ... on
Rotationally invariant grid construction     ... off
Angular grids for H and He will be reduced by one unit

Total number of grid points                  ...    14866
Total number of batches                      ...      130
Average number of points per batch           ...      114
Average number of grid points per atom       ...      595
UseSFitting                                  ... on

GRIDX 2
-------
General Integration Accuracy     IntAcc      ... 4.020
Radial Grid Type                 RadialGrid  ... OptM3 with GC (2021)
Angular Grid (max. ang.)         AngularGrid ... 2 (Lebedev-110)
Angular grid pruning method      GridPruning ... 4 (adaptive)
Weight generation scheme         WeightScheme... mBecke (2022)
Basis function cutoff            BFCut       ... 1.0000e-11
Integration weight cutoff        WCut        ... 1.0000e-14
Partially contracted basis set               ... on
Rotationally invariant grid construction     ... off
Angular grids for H and He will be reduced by one unit

Total number of grid points                  ...    32358
Total number of batches                      ...      266
Average number of points per batch           ...      121
Average number of grid points per atom       ...     1294
UseSFitting                                  ... on

GRIDX 3
-------
General Integration Accuracy     IntAcc      ... 4.338
Radial Grid Type                 RadialGrid  ... OptM3 with GC (2021)
Angular Grid (max. ang.)         AngularGrid ... 3 (Lebedev-194)
Angular grid pruning method      GridPruning ... 4 (adaptive)
Weight generation scheme         WeightScheme... mBecke (2022)
Basis function cutoff            BFCut       ... 1.0000e-11
Integration weight cutoff        WCut        ... 1.0000e-14
Partially contracted basis set               ... on
Rotationally invariant grid construction     ... off
Angular grids for H and He will be reduced by one unit

Total number of grid points                  ...    71033
Total number of batches                      ...      565
Average number of points per batch           ...      125
Average number of grid points per atom       ...     2841
UseSFitting                                  ... on
Initializing property integral containers    ... done (  0.0 sec)

SHARK setup successfully completed in   3.7 seconds

Maximum memory used throughout the entire STARTUP-calculation: 33.2 MB


           ************************************************************
           *        Program running with 40 parallel MPI-processes    *
           *              working on a common directory               *
           ************************************************************
-------------------------------------------------------------------------------
                                 ORCA GUESS
                   Start orbitals & Density for SCF / CASSCF
-------------------------------------------------------------------------------

------------
SCF SETTINGS
------------
Hamiltonian:
 Density Functional     Method          .... DFT(GTOs)
 Exchange Functional    Exchange        .... WB97X-V
 Correlation Functional Correlation     .... WB97X-V
 Gradients option       PostSCFGGA      .... off
 Hybrid DFT is turned on
   Fraction HF Exchange ScalHFX         ....  0.167000
   Scaling of DF-GGA-X  ScalDFX         ....  0.000000
   Scaling of DF-GGA-C  ScalDFC         ....  1.000000
   Scaling of DF-LDA-C  ScalLDAC        ....  1.000000
   Perturbative correction              ....  0.000000
 Long-range corrected/Screened/Range-Separated Hybrid DFT is turned on
   Amount of maximum screened exact exchange              ....  0.833000
   Range separation parameter mu (erf(mu*r12)/r12)        ....  0.300000
   NL short-range parameter             ....  6.000000
   NL long-range parameter              ....  0.010000
 RI-approximation to the Coulomb term is turned on
   Number of AuxJ basis functions       .... 769
   RIJ-COSX (HFX calculated with COS-X)).... on


General Settings:
 Integral files         IntName         .... ./output/ethyl_cinnamate/ethyl_cinnamate
 Hartree-Fock type      HFTyp           .... RHF
 Total Charge           Charge          ....    0
 Multiplicity           Mult            ....    1
 Number of Electrons    NEL             ....   68
 Basis Dimension        Dim             ....  229
 Nuclear Repulsion      ENuc            ....    364.9288380649 Eh

Convergence Acceleration:
 AO-DIIS                CNVDIIS         .... on
   Start iteration      DIISMaxIt       ....    12
   Startup error        DIISStart       ....  0.200000
   # of expansion vecs  DIISMaxEq       ....     5
   Bias factor          DIISBfac        ....   1.050
   Max. coefficient     DIISMaxC        ....  10.000
 MO-DIIS                CNVKDIIS        .... off
 Trust-Rad. Augm. Hess. CNVTRAH         .... auto
   Auto Start mean grad. ratio tolernc. ....  1.125000
   Auto Start start iteration           ....    50
   Auto Start num. interpolation iter.  ....    10
   Max. Number of Micro iterations      ....    24
   Max. Number of Macro iterations      .... Maxiter - #DIIS iter
   Number of Davidson start vectors     ....     2
   Converg. threshold    (grad. norm)   ....   1.000e-05
   Grad. Scal. Fac. for Micro threshold ....   0.100
   Minimum threshold for Micro iter.    ....   1.000e-02
   NR start threshold (gradient norm)   ....   1.000e-04
   Initial trust radius                 ....   0.400
   Minimum AH scaling param. (alpha)    ....   1.000
   Maximum AH scaling param. (alpha)    .... 1000.000
   Quad. conv. algorithm                .... NR
   White noise on init. David. guess    .... on
   Maximum white noise                  ....   0.010
   Pseudo random numbers                .... off
   Inactive MOs                         .... canonical
   Orbital update algorithm             .... Taylor
   Preconditioner                       .... Diag
   Full preconditioner red. dimension   ....   250
 SOSCF                  CNVSOSCF        .... on
   Start iteration      SOSCFMaxIt      ....   150
   Startup grad/error   SOSCFStart      ....  0.003300
   Hessian update       SOSCFHessUp     .... L-BFGS
 Level Shifting         CNVShift        .... on
   Level shift para.    LevelShift      ....    0.2500
   Turn off err/grad.   ShiftErr        ....    0.0010
 Zerner damping         CNVZerner       .... off
 Static damping         CNVDamp         .... on
   Fraction old density DampFac         ....    0.7000
   Max. Damping (<1)    DampMax         ....    0.9800
   Min. Damping (>=0)   DampMin         ....    0.0000
   Turn off err/grad.   DampErr         ....    0.1000

SCF Procedure:
 Maximum # iterations   MaxIter         ....   125
 SCF integral mode      SCFMode         .... Direct
   Integral package                     .... SHARK and LIBINT hybrid scheme
 Reset frequency        DirectResetFreq ....    20
 Integral Threshold     Thresh          ....  2.500e-11 Eh
 Primitive CutOff       TCut            ....  2.500e-12 Eh

Convergence Tolerance:
 Convergence Check Mode ConvCheckMode   .... Total+1el-Energy
 Convergence forced     ConvForced      .... 0
 Energy Change          TolE            ....  1.000e-08 Eh
 1-El. energy change                    ....  1.000e-05 Eh
 Orbital Gradient       TolG            ....  1.000e-05
 Orbital Rotation angle TolX            ....  1.000e-05
 DIIS Error             TolErr          ....  5.000e-07

------------------------------
INITIAL GUESS: MODEL POTENTIAL
------------------------------
Loading Hartree-Fock densities                     ... done
Atomic calculation to generate a density for atom 0 (C  with ECP)
  Multiplicity assumed   :    1
  Atomic configuration   : 1s2 2s2 2p2 
  Number of open shells  : 1
  Command: /home/aspe232/Project/Software/ORCA/6_0_1/build/orca ./output/ethyl_cinnamate/ethyl_cinnamate_atom6.inp "" > ./output/ethyl_cinnamate/ethyl_cinnamate_atom6.out
Returned from the atomic calculation with res=0
Atomic calculation to generate a density for atom 2 (O  with ECP)
  Multiplicity assumed   :    3
  Atomic configuration   : 1s2 2s2 2p4 
  Number of open shells  : 1
  Command: /home/aspe232/Project/Software/ORCA/6_0_1/build/orca ./output/ethyl_cinnamate/ethyl_cinnamate_atom8.inp "" > ./output/ethyl_cinnamate/ethyl_cinnamate_atom8.out
Returned from the atomic calculation with res=0
Calculating cut-offs                               ... done
Initializing the effective Hamiltonian             ... done
Setting up the integral package (SHARK)            ... done
Starting the Coulomb interaction                   ... done (   0.0 sec)
Making the grid                                    ... done (   0.6 sec)
Mapping shells                                     ... done
Starting the XC term evaluation                    ... done (   0.0 sec)
  promolecular density results
     # of electrons  =     93.991517120
     EX              =    -51.274186132
     EC              =     -3.862767408
     EX+EC           =    -55.136953541
Transforming the Hamiltonian                       ... done (   0.0 sec)
Diagonalizing the Hamiltonian                      ... done (   0.1 sec)
Back transforming the eigenvectors                 ... done (   0.0 sec)
Now organizing SCF variables                       ... done
                      ------------------
                      INITIAL GUESS DONE (   1.9 sec)
                      ------------------
             **** ENERGY FILE WAS UPDATED (./output/ethyl_cinnamate/ethyl_cinnamate.en.tmp) ****
Finished Guess after   2.4 sec
Maximum memory used throughout the entire GUESS-calculation: 20.3 MB


           ************************************************************
           *        Program running with 40 parallel MPI-processes    *
           *              working on a common directory               *
           ************************************************************

-------------------------------------------------------------------------------------------
                                      ORCA LEAN-SCF
                              memory conserving SCF solver
-------------------------------------------------------------------------------------------

----------------------------------------D-I-I-S--------------------------------------------
Iteration    Energy (Eh)           Delta-E    RMSDP     MaxDP     DIISErr   Damp  Time(sec)
-------------------------------------------------------------------------------------------
               ***  Starting incremental Fock matrix formation  ***
    1    -101.5603399998603322     0.00e+00  3.72e-03  8.63e-02  1.98e-01  0.700   4.0
    2    -101.7151195361312261    -1.55e-01  2.76e-03  5.63e-02  1.08e-01  0.700   3.7
                               ***Turning on AO-DIIS***
    3    -101.7959075478023578    -8.08e-02  1.58e-03  2.96e-02  5.87e-02  0.700   3.6
    4    -101.8444026871015353    -4.85e-02  3.41e-03  6.17e-02  3.72e-02  0.000   3.2
    5    -101.9481386378076877    -1.04e-01  2.56e-04  9.97e-03  8.70e-03  0.000   3.3
    6    -101.9484850418018596    -3.46e-04  1.09e-04  5.53e-03  4.54e-03  0.000   3.3
                              *** Initializing SOSCF ***
---------------------------------------S-O-S-C-F--------------------------------------
Iteration    Energy (Eh)           Delta-E    RMSDP     MaxDP     MaxGrad    Time(sec)
--------------------------------------------------------------------------------------
    7    -101.9485712919234288    -8.63e-05  6.45e-05  2.63e-03  1.66e-03     3.2
               *** Restarting incremental Fock matrix formation ***
    8    -101.9486971939050477    -1.26e-04  4.07e-05  1.22e-03  4.10e-04     3.9
    9    -101.9487052370663491    -8.04e-06  4.07e-05  1.84e-03  2.71e-04     3.8
   10    -101.9487070078129705    -1.77e-06  1.59e-05  6.78e-04  1.94e-04     3.8
   11    -101.9487080068889782    -9.99e-07  3.93e-06  8.17e-05  3.26e-05     3.7
   12    -101.9487080281205635    -2.12e-08  1.71e-06  6.89e-05  2.03e-05     3.4
   13    -101.9487080558056959    -2.77e-08  5.19e-07  1.78e-05  4.63e-06     3.2
   14    -101.9487080561719381    -3.66e-10  2.35e-07  6.91e-06  2.48e-06     3.1
                 **** Energy Check signals convergence ****

               *****************************************************
               *                     SUCCESS                       *
               *           SCF CONVERGED AFTER  14 CYCLES          *
               *****************************************************

Recomputing exchange energy using gridx3       ... done (    3.424 sec)
Old exchange energy                            :    -13.229766648 Eh
New exchange energy                            :    -13.229727080 Eh
Exchange energy change after final integration :      0.000039568 Eh
Total energy after final integration           :   -101.948668488 Eh
             **** ENERGY FILE WAS UPDATED (./output/ethyl_cinnamate/ethyl_cinnamate.en.tmp) ****

----------------
TOTAL SCF ENERGY
----------------

Total Energy       :       -101.94866848832176 Eh           -2774.16431 eV

Components:
Nuclear Repulsion  :        364.92883806491102 Eh            9930.21853 eV
Electronic Energy  :       -466.87754612108296 Eh          -12704.38391 eV
One Electron Energy:       -880.12634458426294 Eh          -23949.45540 eV
Two Electron Energy:        413.24879846317998 Eh           11245.07149 eV

Virial components:
Potential Energy   :       -180.32585057450115 Eh           -4906.91586 eV
Kinetic Energy     :         78.37718208617937 Eh            2132.75155 eV
Virial Ratio       :          2.30074424436725

DFT components:
N(Alpha)           :       33.999949496838 electrons
N(Beta)            :       33.999949496838 electrons
N(Total)           :       67.999898993676 electrons
E(X)               :      -14.692263622710 Eh       
E(C)               :       -2.603272603058 Eh       
E(XC)              :      -17.295536225768 Eh       

---------------
SCF CONVERGENCE
---------------

  Last Energy change         ...    3.6624e-10  Tolerance :   1.0000e-08
  Last MAX-Density change    ...    6.9076e-06  Tolerance :   1.0000e-07
  Last RMS-Density change    ...    2.3506e-07  Tolerance :   5.0000e-09
  Last DIIS Error            ...    1.6619e-03  Tolerance :   5.0000e-07
  Last Orbital Gradient      ...    2.4821e-06  Tolerance :   1.0000e-05
  Last Orbital Rotation      ...    5.8648e-06  Tolerance :   1.0000e-05


----------------
ORBITAL ENERGIES
----------------

  NO   OCC          E(Eh)            E(eV) 
   0   2.0000      -1.208622       -32.8883 
   1   2.0000      -1.118125       -30.4257 
   2   2.0000      -1.019312       -27.7369 
   3   2.0000      -0.961409       -26.1613 
   4   2.0000      -0.909236       -24.7416 
   5   2.0000      -0.900829       -24.5128 
   6   2.0000      -0.884101       -24.0576 
   7   2.0000      -0.799790       -21.7634 
   8   2.0000      -0.769991       -20.9525 
   9   2.0000      -0.749886       -20.4054 
  10   2.0000      -0.717198       -19.5160 
  11   2.0000      -0.674799       -18.3622 
  12   2.0000      -0.653783       -17.7903 
  13   2.0000      -0.635527       -17.2936 
  14   2.0000      -0.599810       -16.3217 
  15   2.0000      -0.592300       -16.1173 
  16   2.0000      -0.581023       -15.8105 
  17   2.0000      -0.567247       -15.4356 
  18   2.0000      -0.564680       -15.3657 
  19   2.0000      -0.548360       -14.9216 
  20   2.0000      -0.546746       -14.8777 
  21   2.0000      -0.514196       -13.9920 
  22   2.0000      -0.509384       -13.8611 
  23   2.0000      -0.505523       -13.7560 
  24   2.0000      -0.490775       -13.3547 
  25   2.0000      -0.479249       -13.0410 
  26   2.0000      -0.469428       -12.7738 
  27   2.0000      -0.464846       -12.6491 
  28   2.0000      -0.441357       -12.0099 
  29   2.0000      -0.418778       -11.3955 
  30   2.0000      -0.403351       -10.9757 
  31   2.0000      -0.382519       -10.4089 
  32   2.0000      -0.363680        -9.8962 
  33   2.0000      -0.337944        -9.1959 
  34   0.0000      -0.004412        -0.1201 
  35   0.0000       0.050867         1.3842 
  36   0.0000       0.079031         2.1505 
  37   0.0000       0.081722         2.2238 
  38   0.0000       0.090170         2.4536 
  39   0.0000       0.096058         2.6139 
  40   0.0000       0.105023         2.8578 
  41   0.0000       0.117205         3.1893 
  42   0.0000       0.123395         3.3578 
  43   0.0000       0.129652         3.5280 
  44   0.0000       0.134813         3.6685 
*Only the first 10 virtual orbitals were printed.

                    ********************************
                    * MULLIKEN POPULATION ANALYSIS *
                    ********************************

-----------------------
MULLIKEN ATOMIC CHARGES
-----------------------
   0 C :   -0.096148
   1 C :    0.096885
   2 O :   -0.342729
   3 C :    0.259978
   4 O :   -0.368135
   5 C :    0.037864
   6 C :    0.040768
   7 C :   -0.079794
   8 C :   -0.003900
   9 C :   -0.008338
  10 C :   -0.008266
  11 C :   -0.005266
  12 C :    0.006529
  13 H :    0.066045
  14 H :    0.044305
  15 H :    0.045655
  16 H :    0.056696
  17 H :    0.055315
  18 H :    0.041529
  19 H :    0.041768
  20 H :    0.026583
  21 H :    0.022487
  22 H :    0.023808
  23 H :    0.022122
  24 H :    0.024237
Sum of atomic charges:    0.0000000

--------------------------------
MULLIKEN REDUCED ORBITAL CHARGES
--------------------------------
  0 C s       :     0.976802  s :     0.976802
      pz      :     1.056842  p :     3.050571
      px      :     1.033616
      py      :     0.960114
      dz2     :     0.010151  d :     0.068774
      dxz     :     0.009092
      dyz     :     0.022650
      dx2y2   :     0.018286
      dxy     :     0.008595

  1 C s       :     1.034156  s :     1.034156
      pz      :     1.050241  p :     2.729546
      px      :     0.681464
      py      :     0.997841
      dz2     :     0.016351  d :     0.139412
      dxz     :     0.028729
      dyz     :     0.027550
      dx2y2   :     0.031987
      dxy     :     0.034795

  2 O s       :     1.699130  s :     1.699130
      pz      :     1.478917  p :     4.607884
      px      :     1.377100
      py      :     1.751867
      dz2     :     0.010390  d :     0.035714
      dxz     :     0.006874
      dyz     :     0.006207
      dx2y2   :     0.007319
      dxy     :     0.004924

  3 C s       :     1.124135  s :     1.124135
      pz      :     0.727840  p :     2.368303
      px      :     0.913534
      py      :     0.726929
      dz2     :     0.077091  d :     0.247583
      dxz     :     0.055576
      dyz     :     0.046070
      dx2y2   :     0.034315
      dxy     :     0.034531

  4 O s       :     1.796245  s :     1.796245
      pz      :     1.470992  p :     4.538350
      px      :     1.633221
      py      :     1.434137
      dz2     :     0.007925  d :     0.033540
      dxz     :     0.009621
      dyz     :     0.007064
      dx2y2   :     0.003603
      dxy     :     0.005327

  5 C s       :     1.009126  s :     1.009126
      pz      :     1.007157  p :     2.869491
      px      :     0.855975
      py      :     1.006359
      dz2     :     0.023762  d :     0.083519
      dxz     :     0.020025
      dyz     :     0.010765
      dx2y2   :     0.016028
      dxy     :     0.012940

  6 C s       :     1.040726  s :     1.040726
      pz      :     0.998893  p :     2.821032
      px      :     0.943303
      py      :     0.878836
      dz2     :     0.021986  d :     0.097473
      dxz     :     0.026451
      dyz     :     0.011323
      dx2y2   :     0.016109
      dxy     :     0.021604

  7 C s       :     1.030114  s :     1.030114
      pz      :     0.972767  p :     2.931025
      px      :     0.942199
      py      :     1.016059
      dz2     :     0.025837  d :     0.118655
      dxz     :     0.027339
      dyz     :     0.013002
      dx2y2   :     0.027282
      dxy     :     0.025195

  8 C s       :     1.008967  s :     1.008967
      pz      :     0.943137  p :     2.902427
      px      :     0.979964
      py      :     0.979326
      dz2     :     0.014097  d :     0.092507
      dxz     :     0.026252
      dyz     :     0.010217
      dx2y2   :     0.016880
      dxy     :     0.025061

  9 C s       :     1.011296  s :     1.011296
      pz      :     0.969995  p :     2.903317
      px      :     0.974680
      py      :     0.958642
      dz2     :     0.013839  d :     0.093725
      dxz     :     0.025902
      dyz     :     0.010544
      dx2y2   :     0.018680
      dxy     :     0.024762

 10 C s       :     1.011534  s :     1.011534
      pz      :     0.964219  p :     2.902751
      px      :     0.981944
      py      :     0.956588
      dz2     :     0.024635  d :     0.093981
      dxz     :     0.016764
      dyz     :     0.012628
      dx2y2   :     0.025403
      dxy     :     0.014552

 11 C s       :     1.009243  s :     1.009243
      pz      :     0.969787  p :     2.902550
      px      :     0.970220
      py      :     0.962543
      dz2     :     0.014961  d :     0.093473
      dxz     :     0.026638
      dyz     :     0.010115
      dx2y2   :     0.016999
      dxy     :     0.024760

 12 C s       :     1.011377  s :     1.011377
      pz      :     0.953382  p :     2.888830
      px      :     0.970706
      py      :     0.964742
      dz2     :     0.013390  d :     0.093264
      dxz     :     0.026427
      dyz     :     0.010405
      dx2y2   :     0.018565
      dxy     :     0.024477

 13 H s       :     0.889607  s :     0.889607
      pz      :     0.020009  p :     0.044348
      px      :     0.009818
      py      :     0.014521

 14 H s       :     0.911187  s :     0.911187
      pz      :     0.011325  p :     0.044507
      px      :     0.022633
      py      :     0.010550

 15 H s       :     0.911766  s :     0.911766
      pz      :     0.017499  p :     0.042579
      px      :     0.013106
      py      :     0.011974

 16 H s       :     0.902216  s :     0.902216
      pz      :     0.019286  p :     0.041088
      px      :     0.009673
      py      :     0.012129

 17 H s       :     0.904592  s :     0.904592
      pz      :     0.019529  p :     0.040093
      px      :     0.005242
      py      :     0.015322

 18 H s       :     0.906975  s :     0.906975
      pz      :     0.024668  p :     0.051496
      px      :     0.011595
      py      :     0.015233

 19 H s       :     0.908619  s :     0.908619
      pz      :     0.023032  p :     0.049613
      px      :     0.012799
      py      :     0.013782

 20 H s       :     0.922214  s :     0.922214
      pz      :     0.017635  p :     0.051203
      px      :     0.014920
      py      :     0.018648

 21 H s       :     0.927990  s :     0.927990
      pz      :     0.019191  p :     0.049523
      px      :     0.012664
      py      :     0.017668

 22 H s       :     0.926824  s :     0.926824
      pz      :     0.011475  p :     0.049368
      px      :     0.025973
      py      :     0.011921

 23 H s       :     0.928274  s :     0.928274
      pz      :     0.017587  p :     0.049604
      px      :     0.014479
      py      :     0.017538

 24 H s       :     0.925606  s :     0.925606
      pz      :     0.019488  p :     0.050157
      px      :     0.012629
      py      :     0.018040



                     *******************************
                     * LOEWDIN POPULATION ANALYSIS *
                     *******************************

----------------------
LOEWDIN ATOMIC CHARGES
----------------------
   0 C :   -0.115825
   1 C :   -0.040532
   2 O :   -0.060087
   3 C :    0.016708
   4 O :   -0.199289
   5 C :   -0.034387
   6 C :    0.013265
   7 C :   -0.045946
   8 C :   -0.020818
   9 C :   -0.037922
  10 C :   -0.036987
  11 C :   -0.039484
  12 C :   -0.025658
  13 H :    0.054043
  14 H :    0.053279
  15 H :    0.048514
  16 H :    0.054359
  17 H :    0.060635
  18 H :    0.058304
  19 H :    0.058057
  20 H :    0.046750
  21 H :    0.048566
  22 H :    0.047960
  23 H :    0.047957
  24 H :    0.048537

-------------------------------
LOEWDIN REDUCED ORBITAL CHARGES
-------------------------------
  0 C s       :     0.785846  s :     0.785846
      pz      :     1.068486  p :     3.099225
      px      :     1.050838
      py      :     0.979901
      dz2     :     0.032278  d :     0.230754
      dxz     :     0.029202
      dyz     :     0.077522
      dx2y2   :     0.062100
      dxy     :     0.029654

  1 C s       :     0.771219  s :     0.771219
      pz      :     1.069349  p :     2.851363
      px      :     0.762969
      py      :     1.019045
      dz2     :     0.051200  d :     0.417949
      dxz     :     0.080723
      dyz     :     0.086294
      dx2y2   :     0.102822
      dxy     :     0.096911

  2 O s       :     1.396262  s :     1.396262
      pz      :     1.501525  p :     4.566874
      px      :     1.403671
      py      :     1.661677
      dz2     :     0.024071  d :     0.096951
      dxz     :     0.026850
      dyz     :     0.012850
      dx2y2   :     0.016984
      dxy     :     0.016196

  3 C s       :     0.780326  s :     0.780326
      pz      :     0.832777  p :     2.532794
      px      :     0.967809
      py      :     0.732207
      dz2     :     0.205215  d :     0.670172
      dxz     :     0.164424
      dyz     :     0.123754
      dx2y2   :     0.090149
      dxy     :     0.086630

  4 O s       :     1.560855  s :     1.560855
      pz      :     1.532157  p :     4.571047
      px      :     1.635334
      py      :     1.403556
      dz2     :     0.015876  d :     0.067386
      dxz     :     0.022840
      dyz     :     0.011930
      dx2y2   :     0.008066
      dxy     :     0.008673

  5 C s       :     0.807971  s :     0.807971
      pz      :     1.047853  p :     2.952440
      px      :     0.968259
      py      :     0.936328
      dz2     :     0.077292  d :     0.273976
      dxz     :     0.071222
      dyz     :     0.029880
      dx2y2   :     0.056063
      dxy     :     0.039519

  6 C s       :     0.810729  s :     0.810729
      pz      :     1.035436  p :     2.873068
      px      :     0.998381
      py      :     0.839250
      dz2     :     0.071506  d :     0.302938
      dxz     :     0.084772
      dyz     :     0.032342
      dx2y2   :     0.053630
      dxy     :     0.060688

  7 C s       :     0.783563  s :     0.783563
      pz      :     0.965075  p :     2.894932
      px      :     0.973009
      py      :     0.956849
      dz2     :     0.073644  d :     0.367452
      dxz     :     0.086437
      dyz     :     0.048492
      dx2y2   :     0.084819
      dxy     :     0.074060

  8 C s       :     0.800252  s :     0.800252
      pz      :     0.952551  p :     2.925339
      px      :     1.022250
      py      :     0.950538
      dz2     :     0.040494  d :     0.295227
      dxz     :     0.084128
      dyz     :     0.036947
      dx2y2   :     0.055958
      dxy     :     0.077701

  9 C s       :     0.801967  s :     0.801967
      pz      :     0.965123  p :     2.935689
      px      :     1.022153
      py      :     0.948413
      dz2     :     0.039896  d :     0.300266
      dxz     :     0.082142
      dyz     :     0.037693
      dx2y2   :     0.062718
      dxy     :     0.077817

 10 C s       :     0.802616  s :     0.802616
      pz      :     0.956688  p :     2.933338
      px      :     1.038499
      py      :     0.938151
      dz2     :     0.072874  d :     0.301033
      dxz     :     0.051741
      dyz     :     0.049699
      dx2y2   :     0.083458
      dxy     :     0.043261

 11 C s       :     0.802050  s :     0.802050
      pz      :     0.966002  p :     2.937723
      px      :     1.024261
      py      :     0.947460
      dz2     :     0.042110  d :     0.299711
      dxz     :     0.086999
      dyz     :     0.036456
      dx2y2   :     0.056531
      dxy     :     0.077615

 12 C s       :     0.800575  s :     0.800575
      pz      :     0.962221  p :     2.926347
      px      :     1.021149
      py      :     0.942977
      dz2     :     0.039521  d :     0.298736
      dxz     :     0.083865
      dyz     :     0.037442
      dx2y2   :     0.061829
      dxy     :     0.076079

 13 H s       :     0.798559  s :     0.798559
      pz      :     0.059624  p :     0.147398
      px      :     0.039558
      py      :     0.048216

 14 H s       :     0.801687  s :     0.801687
      pz      :     0.042502  p :     0.145034
      px      :     0.064369
      py      :     0.038163

 15 H s       :     0.806075  s :     0.806075
      pz      :     0.055833  p :     0.145411
      px      :     0.045886
      py      :     0.043691

 16 H s       :     0.806597  s :     0.806597
      pz      :     0.059590  p :     0.139044
      px      :     0.034771
      py      :     0.044683

 17 H s       :     0.804317  s :     0.804317
      pz      :     0.059862  p :     0.135049
      px      :     0.023877
      py      :     0.051310

 18 H s       :     0.792420  s :     0.792420
      pz      :     0.066007  p :     0.149275
      px      :     0.035881
      py      :     0.047387

 19 H s       :     0.793351  s :     0.793351
      pz      :     0.064472  p :     0.148592
      px      :     0.042323
      py      :     0.041796

 20 H s       :     0.801179  s :     0.801179
      pz      :     0.051710  p :     0.152071
      px      :     0.047330
      py      :     0.053031

 21 H s       :     0.802499  s :     0.802499
      pz      :     0.055252  p :     0.148935
      px      :     0.041770
      py      :     0.051913

 22 H s       :     0.802795  s :     0.802795
      pz      :     0.038764  p :     0.149245
      px      :     0.071009
      py      :     0.039471

 23 H s       :     0.802846  s :     0.802846
      pz      :     0.051984  p :     0.149197
      px      :     0.045600
      py      :     0.051613

 24 H s       :     0.802235  s :     0.802235
      pz      :     0.055648  p :     0.149229
      px      :     0.041418
      py      :     0.052162



                      *****************************
                      * MAYER POPULATION ANALYSIS *
                      *****************************

  NA   - Mulliken gross atomic population
  ZA   - Total nuclear charge
  QA   - Mulliken gross atomic charge
  VA   - Mayer's total valence
  BVA  - Mayer's bonded valence
  FA   - Mayer's free valence

  ATOM       NA         ZA         QA         VA         BVA        FA
  0 C      4.0961     4.0000    -0.0961     3.9568     3.9568     0.0000
  1 C      3.9031     4.0000     0.0969     3.9484     3.9484     0.0000
  2 O      6.3427     6.0000    -0.3427     2.0145     2.0145    -0.0000
  3 C      3.7400     4.0000     0.2600     4.1471     4.1471     0.0000
  4 O      6.3681     6.0000    -0.3681     1.9808     1.9808     0.0000
  5 C      3.9621     4.0000     0.0379     3.9794     3.9794     0.0000
  6 C      3.9592     4.0000     0.0408     4.0046     4.0046     0.0000
  7 C      4.0798     4.0000    -0.0798     4.1688     4.1688     0.0000
  8 C      4.0039     4.0000    -0.0039     4.0947     4.0947     0.0000
  9 C      4.0083     4.0000    -0.0083     4.0807     4.0807     0.0000
 10 C      4.0083     4.0000    -0.0083     4.0707     4.0707    -0.0000
 11 C      4.0053     4.0000    -0.0053     4.0796     4.0796    -0.0000
 12 C      3.9935     4.0000     0.0065     4.0628     4.0628     0.0000
 13 H      0.9340     1.0000     0.0660     1.0270     1.0270    -0.0000
 14 H      0.9557     1.0000     0.0443     1.0373     1.0373     0.0000
 15 H      0.9543     1.0000     0.0457     1.0282     1.0282     0.0000
 16 H      0.9433     1.0000     0.0567     1.0199     1.0199    -0.0000
 17 H      0.9447     1.0000     0.0553     1.0167     1.0167    -0.0000
 18 H      0.9585     1.0000     0.0415     1.0532     1.0532     0.0000
 19 H      0.9582     1.0000     0.0418     1.0503     1.0503     0.0000
 20 H      0.9734     1.0000     0.0266     1.0420     1.0420    -0.0000
 21 H      0.9775     1.0000     0.0225     1.0455     1.0455     0.0000
 22 H      0.9762     1.0000     0.0238     1.0451     1.0451    -0.0000
 23 H      0.9779     1.0000     0.0221     1.0462     1.0462    -0.0000
 24 H      0.9758     1.0000     0.0242     1.0451     1.0451     0.0000

  Mayer bond orders larger than 0.100000
B(  0-C ,  1-C ) :   0.9938 B(  0-C , 13-H ) :   0.9901 B(  0-C , 14-H ) :   0.9931 
B(  0-C , 15-H ) :   0.9910 B(  1-C ,  2-O ) :   0.8829 B(  1-C , 16-H ) :   0.9951 
B(  1-C , 17-H ) :   1.0063 B(  2-O ,  3-C ) :   1.1027 B(  3-C ,  4-O ) :   1.8433 
B(  3-C ,  5-C ) :   1.1180 B(  5-C ,  6-C ) :   1.7566 B(  5-C , 18-H ) :   0.9900 
B(  6-C ,  7-C ) :   1.1190 B(  6-C , 19-H ) :   0.9885 B(  7-C ,  8-C ) :   1.4187 
B(  7-C , 12-C ) :   1.4138 B(  8-C ,  9-C ) :   1.4653 B(  8-C , 20-H ) :   0.9885 
B(  9-C , 10-C ) :   1.4349 B(  9-C , 21-H ) :   0.9928 B( 10-C , 11-C ) :   1.4467 
B( 10-C , 22-H ) :   0.9947 B( 11-C , 12-C ) :   1.4502 B( 11-C , 23-H ) :   0.9925 
B( 12-C , 24-H ) :   0.9908 

-------
TIMINGS
-------

Total SCF time: 0 days 0 hours 0 min 57 sec 

Total time                  ....      57.279 sec
Sum of individual times     ....      55.195 sec  ( 96.4%)

SCF preparation             ....       2.437 sec  (  4.3%)
Fock matrix formation       ....      50.788 sec  ( 88.7%)
  Startup                   ....       0.172 sec  (  0.3% of F)
  Split-RI-J                ....       1.710 sec  (  3.4% of F)
  Chain of spheres X        ....      21.992 sec  ( 43.3% of F)
  XC integration            ....      26.034 sec  ( 51.3% of F)
    XC Preparation          ....       0.000 sec  (  0.0% of XC)
    Basis function eval.    ....       0.539 sec  (  2.1% of XC)
    Density eval.           ....       0.216 sec  (  0.8% of XC)
    XC-Functional eval.     ....       0.203 sec  (  0.8% of XC)
    XC-Potential eval.      ....       0.257 sec  (  1.0% of XC)
Diagonalization             ....       0.000 sec  (  0.0%)
Density matrix formation    ....       0.334 sec  (  0.6%)
Total Energy calculation    ....       0.289 sec  (  0.5%)
Population analysis         ....       0.194 sec  (  0.3%)
Orbital Transformation      ....       0.095 sec  (  0.2%)
Orbital Orthonormalization  ....       0.000 sec  (  0.0%)
DIIS solution               ....       0.756 sec  (  1.3%)
SOSCF solution              ....       0.303 sec  (  0.5%)
Finished LeanSCF after  57.3 sec

Maximum memory used throughout the entire LEANSCF-calculation: 38.2 MB


           ************************************************************
           *        Program running with 40 parallel MPI-processes    *
           *              working on a common directory               *
           ************************************************************

------------------------------------------------------------------------------
                         ORCA PROPERTY INTEGRAL CALCULATIONS
------------------------------------------------------------------------------

GBWName                                   ... ./output/ethyl_cinnamate/ethyl_cinnamate.gbw
Number of atoms                           ...     25
Number of basis functions                 ...    229
Max core memory                           ...   1024 MB

Dipole integrals                          ... YES
Quadrupole integrals                      ...  NO
Linear momentum integrals                 ...  NO
Angular momentum integrals                ...  NO
Higher moments length integrals           ...  NO
Higher moments velocity integrals         ...  NO
Kinetic energy integrals                  ...  NO
GIAO right hand sides                     ...  NO
GIAO dipole derivative integrals          ...  NO
SOC integrals                             ...  NO
EPR diamagnetic integrals (GIAO)          ...  NO
EPR gauge integrals                       ...  NO
Field gradient integrals                  ...  NO (   0 nuclei)
Spin-dipole/Fermi contact integrals       ...  NO (   0 nuclei)
Contact density integrals                 ...  NO (   0 nuclei)
Nucleus-orbit integrals                   ...  NO (   0 nuclei)
Geometric perturbations                   ...  NO (  25 nuclei)

Choice of electric origin   ... Center of mass
Position of electric origin ... (  0.2115,  0.0966, -0.3808) 
Choice of magnetic origin   ... GIAO
Position of magnetic origin ... (  0.0000,  0.0000,  0.0000) 

Calculating integrals                     ... Electric Dipole (Length)     done (  0.0 sec)

Property integrals calculated in   0.0 sec

Maximum memory used throughout the entire PROPINT-calculation: 16.5 MB


-------------------------------------------------------------------------------
                          DFT DISPERSION CORRECTION                            
                                                                               
                                DFTD4 V3.4.0                                   
-------------------------------------------------------------------------------
The wB97X-3c composite method is recognized
Using three-body term ABC
Active option DFTDOPT                   ...         5   

-------------------------   ----------------
Dispersion correction           -0.029711689
-------------------------   ----------------


-------------------------   --------------------
FINAL SINGLE POINT ENERGY      -101.978380176874
-------------------------   --------------------



           ************************************************************
           *        Program running with 40 parallel MPI-processes    *
           *              working on a common directory               *
           ************************************************************
[...]
 15:    327.76   0.001251    6.32  0.001191  (-0.020456  0.001258  0.027761)
 16:    363.66   0.001830    9.25  0.001571  ( 0.030417 -0.002768 -0.025255)
 17:    417.07   0.000049    0.25  0.000037  (-0.005472 -0.002481  0.000945)
 18:    436.76   0.000850    4.29  0.000607  ( 0.010853 -0.019016 -0.011300)
 19:    499.23   0.002381   12.03  0.001488  ( 0.006752  0.032758 -0.019226)
 20:    527.96   0.000887    4.48  0.000525  (-0.011835  0.014715 -0.012959)
 21:    612.30   0.003198   16.16  0.001630  ( 0.039906  0.004028  0.004603)
 22:    645.13   0.000017    0.09  0.000008  ( 0.002770  0.000514  0.000628)
 23:    712.34   0.005761   29.11  0.002524  (-0.001594  0.042178 -0.027242)
 24:    733.26   0.000587    2.97  0.000250  ( 0.011140 -0.010619  0.003584)
 25:    736.47   0.003835   19.38  0.001625  ( 0.000713 -0.031840  0.024713)
 26:    803.76   0.008584   43.38  0.003333  (-0.004215  0.048608 -0.030860)
 27:    817.57   0.001182    5.97  0.000451  ( 0.002756  0.006315  0.020092)
 28:    873.16   0.000108    0.55  0.000039  ( 0.001930 -0.004670  0.003623)
 29:    878.00   0.000836    4.22  0.000297  ( 0.014723  0.003181  0.008378)
 30:    902.44   0.000837    4.23  0.000289  (-0.014984 -0.004931 -0.006375)
 31:    920.23   0.002628   13.28  0.000891  ( 0.000821  0.027720 -0.011059)
 32:    959.33   0.000135    0.68  0.000044  ( 0.003331  0.004837 -0.003076)
 33:    981.17   0.001465    7.40  0.000466  (-0.003922  0.005969  0.020371)
 34:   1015.04   0.000007    0.03  0.000002  (-0.001251  0.000682 -0.000054)
 35:   1030.21   0.003185   16.09  0.000965  ( 0.000106 -0.027924  0.013597)
 36:   1039.66   0.005477   27.68  0.001644  (-0.000332  0.036608 -0.017432)
 37:   1041.06   0.000148    0.75  0.000044  (-0.005468  0.003376 -0.001753)
 38:   1081.74   0.001098    5.55  0.000317  (-0.017640 -0.001695  0.001607)
 39:   1123.19   0.011163   56.41  0.003102  (-0.049290 -0.007686  0.024759)
 40:   1132.75   0.003940   19.91  0.001086  (-0.018179  0.008389  0.026167)
 41:   1154.11   0.011013   55.66  0.002978  (-0.048356  0.018383  0.017369)
 42:   1196.06   0.000219    1.11  0.000057  ( 0.004300 -0.002720 -0.005583)
 43:   1224.18   0.002025   10.23  0.000516  (-0.011211  0.006226  0.018754)
 44:   1228.69   0.000877    4.43  0.000223  (-0.013657 -0.002735 -0.005354)
 45:   1254.83   0.010252   51.81  0.002549  ( 0.049235 -0.000794 -0.011167)
 46:   1315.63   0.000291    1.47  0.000069  ( 0.003390  0.002196  0.007254)
 47:   1338.59   0.066763  337.39  0.015564  (-0.112696  0.010840  0.052406)
 48:   1355.34   0.018508   93.53  0.004261  ( 0.062649 -0.001258 -0.018300)
 49:   1366.89   0.030655  154.92  0.006999  (-0.075528  0.005188  0.035598)
 50:   1372.92   0.018496   93.47  0.004204  ( 0.052085 -0.009974 -0.037306)
 51:   1391.29   0.003044   15.38  0.000683  (-0.024722  0.002032  0.008217)
 52:   1430.71   0.014180   71.66  0.003093  (-0.051078 -0.009870  0.019662)
 53:   1465.46   0.002428   12.27  0.000517  ( 0.013344 -0.018356  0.001395)
 54:   1515.64   0.002873   14.52  0.000591  (-0.011777 -0.009548 -0.019017)
 55:   1521.89   0.002016   10.19  0.000413  ( 0.012988 -0.006094 -0.014405)
 56:   1525.78   0.004225   21.35  0.000864  (-0.026624  0.009664  0.007867)
 57:   1537.30   0.004747   23.99  0.000964  ( 0.029030 -0.010241  0.004001)
 58:   1574.34   0.001681    8.49  0.000333  (-0.018132  0.000070  0.002093)
 59:   1692.46   0.001206    6.09  0.000222  ( 0.014605  0.002343  0.001884)
 60:   1719.14   0.000022    0.11  0.000004  (-0.000859  0.000751  0.001630)
 61:   1764.52   0.008360   42.25  0.001479  ( 0.035217 -0.004868 -0.014648)
 62:   1852.66   0.104294  527.06  0.017567  ( 0.096253  0.038475  0.082599)
 63:   3116.81   0.003019   15.26  0.000302  ( 0.009174  0.010938 -0.009925)
 64:   3148.26   0.006253   31.60  0.000620  ( 0.016523 -0.017770 -0.005573)
 65:   3206.17   0.001075    5.43  0.000105  (-0.009077  0.004674  0.000615)
 66:   3213.36   0.001682    8.50  0.000163  (-0.011513  0.003799 -0.004042)
 67:   3229.70   0.001422    7.19  0.000137  ( 0.000952 -0.004331 -0.010852)
 68:   3246.81   0.000314    1.59  0.000030  (-0.004924  0.001307  0.002049)
 69:   3251.17   0.000220    1.11  0.000021  ( 0.004094 -0.000623 -0.001982)
 70:   3254.36   0.000036    0.18  0.000003  (-0.001229  0.000909  0.001067)
 71:   3263.80   0.001279    6.46  0.000122  ( 0.007048 -0.004000 -0.007521)
 72:   3272.49   0.002101   10.62  0.000200  ( 0.007281  0.007763  0.009331)
 73:   3278.92   0.000812    4.10  0.000077  (-0.008780  0.000131 -0.000360)
 74:   3284.46   0.000896    4.53  0.000085  ( 0.007472 -0.002319 -0.004887)

* The epsilon (eps) is given for a Dirac delta lineshape.
** The dipole moment derivative (T) already includes vibrational overlap.

The first frequency considered to be a vibration is 6
The total number of vibrations considered is 69


--------------------------
THERMOCHEMISTRY AT 298.15K
--------------------------

Temperature         ...   298.15 K
Pressure            ...     1.00 atm
Total Mass          ...   176.22 AMU
Quasi RRHO          ...     True
Cut-Off Frequency   ...     1.00 cm^-1

Throughout the following assumptions are being made:
  (1) The electronic state is orbitally nondegenerate
  (2) There are no thermally accessible electronically excited states
  (3) Hindered rotations indicated by low frequency modes are not
      treated as such but are treated as vibrations and this may
      cause some error
  (4) All equations used are the standard statistical mechanics
      equations for an ideal gas
  (5) All vibrations are strictly harmonic

freq.      17.67  E(vib)   ...       0.57 
freq.      45.88  E(vib)   ...       0.53 
freq.      79.09  E(vib)   ...       0.49 
freq.      84.66  E(vib)   ...       0.48 
freq.     116.15  E(vib)   ...       0.44 
freq.     151.35  E(vib)   ...       0.40 
freq.     193.80  E(vib)   ...       0.36 
freq.     225.31  E(vib)   ...       0.33 
freq.     276.46  E(vib)   ...       0.28 
freq.     327.76  E(vib)   ...       0.24 
freq.     363.66  E(vib)   ...       0.22 
freq.     417.07  E(vib)   ...       0.18 
freq.     436.76  E(vib)   ...       0.17 
freq.     499.23  E(vib)   ...       0.14 
freq.     527.96  E(vib)   ...       0.13 
freq.     612.30  E(vib)   ...       0.10 
freq.     645.13  E(vib)   ...       0.09 
freq.     712.34  E(vib)   ...       0.07 
freq.     733.26  E(vib)   ...       0.06 
freq.     736.47  E(vib)   ...       0.06 
freq.     803.76  E(vib)   ...       0.05 
freq.     817.57  E(vib)   ...       0.05 
freq.     873.16  E(vib)   ...       0.04 
freq.     878.00  E(vib)   ...       0.04 
freq.     902.44  E(vib)   ...       0.03 
freq.     920.23  E(vib)   ...       0.03 
freq.     959.33  E(vib)   ...       0.03 
freq.     981.17  E(vib)   ...       0.02 
freq.    1015.04  E(vib)   ...       0.02 
freq.    1030.21  E(vib)   ...       0.02 
freq.    1039.66  E(vib)   ...       0.02 
freq.    1041.06  E(vib)   ...       0.02 
freq.    1081.74  E(vib)   ...       0.02 
freq.    1123.19  E(vib)   ...       0.01 
freq.    1132.75  E(vib)   ...       0.01 
freq.    1154.11  E(vib)   ...       0.01 
freq.    1196.06  E(vib)   ...       0.01 
freq.    1224.18  E(vib)   ...       0.01 
freq.    1228.69  E(vib)   ...       0.01 
freq.    1254.83  E(vib)   ...       0.01 
freq.    1315.63  E(vib)   ...       0.01 
freq.    1338.59  E(vib)   ...       0.01 
freq.    1355.34  E(vib)   ...       0.01 
freq.    1366.89  E(vib)   ...       0.01 
freq.    1372.92  E(vib)   ...       0.01 
freq.    1391.29  E(vib)   ...       0.00 
freq.    1430.71  E(vib)   ...       0.00 
freq.    1465.46  E(vib)   ...       0.00 
freq.    1515.64  E(vib)   ...       0.00 
freq.    1521.89  E(vib)   ...       0.00 
freq.    1525.78  E(vib)   ...       0.00 
freq.    1537.30  E(vib)   ...       0.00 
freq.    1574.34  E(vib)   ...       0.00 
freq.    1692.46  E(vib)   ...       0.00 
freq.    1719.14  E(vib)   ...       0.00 
freq.    1764.52  E(vib)   ...       0.00 
freq.    1852.66  E(vib)   ...       0.00 
freq.    3116.81  E(vib)   ...       0.00 
freq.    3148.26  E(vib)   ...       0.00 
freq.    3206.17  E(vib)   ...       0.00 
freq.    3213.36  E(vib)   ...       0.00 
freq.    3229.70  E(vib)   ...       0.00 
freq.    3246.81  E(vib)   ...       0.00 
freq.    3251.17  E(vib)   ...       0.00 
freq.    3254.36  E(vib)   ...       0.00 
freq.    3263.80  E(vib)   ...       0.00 
freq.    3272.49  E(vib)   ...       0.00 
freq.    3278.92  E(vib)   ...       0.00 
freq.    3284.46  E(vib)   ...       0.00 

------------
INNER ENERGY
------------

The inner energy is: U= E(el) + E(ZPE) + E(vib) + E(rot) + E(trans)
    E(el)   - is the total energy from the electronic structure calculation
              = E(kin-el) + E(nuc-el) + E(el-el) + E(nuc-nuc)
    E(ZPE)  - the the zero temperature vibrational energy from the frequency calculation
    E(vib)  - the the finite temperature correction to E(ZPE) due to population
              of excited vibrational states
    E(rot)  - is the rotational thermal energy
    E(trans)- is the translational thermal energy

Summary of contributions to the inner energy U:
Electronic energy                ...   -101.99725000 Eh
Zero point energy                ...      0.21042600 Eh     132.04 kcal/mol
Thermal vibrational correction   ...      0.00933565 Eh       5.86 kcal/mol
Thermal rotational correction    ...      0.00141627 Eh       0.89 kcal/mol
Thermal translational correction ...      0.00141627 Eh       0.89 kcal/mol
-----------------------------------------------------------------------
Total thermal energy                   -101.77465581 Eh


Summary of corrections to the electronic energy:
(perhaps to be used in another calculation)
Total thermal correction                  0.01216820 Eh       7.64 kcal/mol
Non-thermal (ZPE) correction              0.21042600 Eh     132.04 kcal/mol
-----------------------------------------------------------------------
Total correction                          0.22259419 Eh     139.68 kcal/mol


--------
ENTHALPY
--------

The enthalpy is H = U + kB*T
                kB is Boltzmann's constant
Total thermal energy              ...   -101.77465581 Eh 
Thermal Enthalpy correction       ...      0.00094421 Eh       0.59 kcal/mol
-----------------------------------------------------------------------
Total Enthalpy                    ...   -101.77371160 Eh


Note: Only C1 symmetry has been detected, increase convergence thresholds 
      if your molecule has a higher symmetry. Symmetry factor of 1.0 is   
      used for the rotational entropy correction. 
 

Note: Rotational entropy computed according to Herzberg 
Infrared and Raman Spectra, Chapter V,1, Van Nostrand Reinhold, 1945 
Point Group:  C1, Symmetry Number:   1  
Rotational constants in cm-1:     0.083732     0.010056     0.009256 

Vibrational entropy computed according to the QRRHO of S. Grimme
Chem.Eur.J. 2012 18 9955 using a reference frequency of 100.0 cm-1


-------
ENTROPY
-------

The entropy contributions are T*S = T*(S(el)+S(vib)+S(rot)+S(trans))
     S(el)   - electronic entropy
     S(vib)  - vibrational entropy
     S(rot)  - rotational entropy
     S(trans)- translational entropy
The entropies will be listed as multiplied by the temperature to get
units of energy

Electronic entropy                ...      0.00000000 Eh      0.00 kcal/mol
Vibrational entropy               ...      0.01676902 Eh     10.52 kcal/mol
Rotational entropy                ...      0.01506362 Eh      9.45 kcal/mol
Translational entropy             ...      0.01967361 Eh     12.35 kcal/mol
-----------------------------------------------------------------------
Final entropy term                ...      0.05150624 Eh     32.32 kcal/mol

In case the symmetry of your molecule has not been determined correctly
or in case you have a reason to use a different symmetry number we print 
out the resulting rotational entropy values for sn=1,12:

 non-linear molecules -----------------------------------
|  sn= 1 | S(rot)=       0.01506362 Eh      9.45 kcal/mol|
|  sn= 2 | S(rot)=       0.01440916 Eh      9.04 kcal/mol|
|  sn= 3 | S(rot)=       0.01402633 Eh      8.80 kcal/mol|
|  sn= 4 | S(rot)=       0.01375470 Eh      8.63 kcal/mol|
|  sn= 5 | S(rot)=       0.01354402 Eh      8.50 kcal/mol|
|  sn= 6 | S(rot)=       0.01337187 Eh      8.39 kcal/mol|
|  sn= 7 | S(rot)=       0.01322632 Eh      8.30 kcal/mol|
|  sn= 8 | S(rot)=       0.01310025 Eh      8.22 kcal/mol|
|  sn= 9 | S(rot)=       0.01298904 Eh      8.15 kcal/mol|
|  sn=10 | S(rot)=       0.01288956 Eh      8.09 kcal/mol|
|  sn=11 | S(rot)=       0.01279957 Eh      8.03 kcal/mol|
|  sn=12 | S(rot)=       0.01271741 Eh      7.98 kcal/mol|
 linear molecules ---------------------------------------
|  Dinfh | S(rot)=       0.00974688 Eh      6.12 kcal/mol|
|  Cinfv | S(rot)=       0.01040134 Eh      6.53 kcal/mol|
 --------------------------------------------------------


-------------------
GIBBS FREE ENERGY
-------------------

The Gibbs free energy is G = H - T*S

Total enthalpy                    ...   -101.77371160 Eh 
Total entropy correction          ...     -0.05150624 Eh    -32.32 kcal/mol
-----------------------------------------------------------------------
Final Gibbs free energy         ...   -101.82521784 Eh

For completeness - the Gibbs free energy minus the electronic energy
G-E(el)                           ...      0.17203216 Eh    107.95 kcal/mol


Maximum memory used throughout the entire PROP-calculation: 118.0 MB

--------------------------------
SUGGESTED CITATIONS FOR THIS RUN
--------------------------------

Below you find a list of papers that are relevant to this ORCA run
We neither can nor want to force you to cite these papers, but we appreciate if you do
You receive ORCA, which is the product of decades of hard work by many enthusiastic individuals, for free
The only thing we kindly ask in return is that you cite our papers,
We deeply appreciate it, if you show your appreciation for ORCA by not just citing the generic ORCA reference.

Please note that relegating all ORCA citations to the supporting information does *not* help us.
SI sections are not indexed - citations you put there will not count into any citation statistics
But we need these citations in order to attract the funding resources that allow us to do what we are doing

Therefore, if you are a happy ORCA user, please consider citing a few of the papers listed below in the main body of your paper

In addition to the list printed below, the program has created the file ./output/ethyl_cinnamate/ethyl_cinnamate.bibtex that contains the list in bibtex format
You can import this file easily into all common literature databanks and citation aid programs


List of essential papers. We consider these as the minimum necessary citations

  1. Neese,F.
     Software update: the ORCA program system, version 5.0
     WIRES Comput. Molec. Sci., 2022 12(1)e1606
     doi.org/10.1002/wcms.1606
  2. Mueller,M.; Hansen,A.; Grimme,S.
     wB97X-3c: A composite range-separated hybrid DFT method with a molecule-optimized polarized valence double-zeta basis set
     J. Chem. Phys., 2023 158 014103
     doi.org/10.1063/5.0133026

List of papers to cite with high priority. The work reported in these papers was absolutely
necessary for this run to complete.
Our perspective: the developers of density functionals and basis sets usually get cited in chemistry papers
Good! But without the algorithms to do something with them, the functionals or basis sets would not do anything.
Hence, in our opinion, the algorithm design and method developments papers are equally worthy of getting cited

  1. Neese,F.
     An improvement of the resolution of the identity approximation for the formation of the Coulomb matrix
     J. Comp. Chem., 2003 24(14)1740-1747
     doi.org/10.1002/jcc.10318
  2. Neese,F.; Wennmohs,F.; Hansen,A.; Becker,U.
     Efficient, approximate and parallel Hartree-Fock and hybrid DFT calculations. A 'chain-of-spheres' algorithm for the Hartree-Fock exchange
     Chem. Phys., 2009 356(1-3)98-109
     doi.org/10.1016/j.chemphys.2008.10.036
  3. Bykov,D.; Petrenko,T.; Izsak,R.; Kossmann,S.; Becker,U.; Valeev,E.; Neese,F.
     Efficient implementation of the analytic second derivatives of Hartree-Fock and hybrid DFT energies: a detailed analysis of different approximations
     Molec. Phys., 2015 113 1961-1977
     doi.org/10.1080/00268976.2015.1025114
  4. Helmich-Paris,B.; de Souza,B.; Neese,F.; Izsák,R.
     An improved chain of spheres for exchange algorithm
     J. Chem. Phys., 2021 155 104109
     doi.org/doi: 10.1063/5.0058766.
  5. Neese,F.
     The SHARK Integral Generation and Digestion System
     J. Comp. Chem., 2022  1-16
     doi.org/10.1002/jcc.26942
  6. Caldeweyher,E.; Bannwarth,C.; Grimme,S.
     Extension of the D3 dispersion coefficient model
     J. Chem. Phys., 2017 147 034112
     doi.org/10.1063/1.4993215
  7. Caldeweyher,E.; Ehlert,S.; Hansen,A.; Neugebauer,H.; Spicher,S.; Bannwarth,C.; Grimme,S.
     A generally applicable atomic-charge dependent London dispersion correction
     J. Chem. Phys., 2019 150 154122
     doi.org/10.1063/1.5090222
  8. Caldeweyher,E.; Mewes,J.; Ehlert,S.; Grimme,S.
     Extension and evaluation of the D4 London-dispersion model for periodic systems
     Phys. Chem. Chem. Phys., 2020 22(16)8499-8512
     doi.org/10.1039/D0CP00502A
  9. Wittmann,L.; Gordiy,I.; Friede,M.; Helmich-Paris,B.; Grimme,S.; Hansen,A.; Bursch,M.
     Extension of the D3 and D4 London Dispersion Corrections to the full Actinides Series
     Phys. Chem. Chem. Phys., 2024 26(32)21379-21394
     doi.org/https://doi.org/10.1039/D4CP01514B 

List of suggested additional citations. These are papers that are important in the 'surrounding' of 
of this run, or papers that preceded the highly important papers. If you like your results we are grateful for a citation.

  1. Izsak,R.; Neese,F.
     An overlap fitted chain of spheres exchange method
     J. Chem. Phys., 2011 135 144105
     doi.org/10.1063/1.3646921
  2. Izsak,R.; Hansen,A.; Neese,F.
     The resolution of identity and chain of spheres approximations for the LPNO-CCSD singles Fock term
     Molec. Phys., 2012 110 2413-2417
     doi.org/10.1080/00268976.2012.687466
  3. Neese,F.
     The ORCA program system
     WIRES Comput. Molec. Sci., 2012 2(1)73-78
     doi.org/10.1002/wcms.81
  4. Izsak,R.; Neese,F.; Klopper,W.
     Robust fitting techniques in the chain of spheres approximation to the Fock exchange: The role of the complementary space
     J. Chem. Phys., 2013 139 
     doi.org/10.1063/1.4819264
  5. Neese,F.
     Software update: the ORCA program system, version 4.0
     WIRES Comput. Molec. Sci., 2018 8(1)1-6
     doi.org/10.1002/wcms.1327
  6. Neese,F.; Wennmohs,F.; Becker,U.; Riplinger,C.
     The ORCA quantum chemistry program package
     J. Chem. Phys., 2020 152 Art. No. L224108
     doi.org/10.1063/5.0004608

List of optional additional citations

  1. Neese,F.
     Approximate second-order SCF convergence for spin unrestricted wavefunctions
     Chem. Phys. Lett., 2000 325(1-3)93-98
     doi.org/10.1016/s0009-2614(00)00662-x

Timings for individual modules:

Sum of individual times          ...      844.256 sec (=  14.071 min)
Startup calculation              ...       49.184 sec (=   0.820 min)   5.8 %
SCF iterations                   ...      534.913 sec (=   8.915 min)  63.4 %
Property integrals               ...       49.766 sec (=   0.829 min)   5.9 %
SCF Response                     ...       38.889 sec (=   0.648 min)   4.6 %
Property calculations            ...       71.501 sec (=   1.192 min)   8.5 %
SCF Gradient evaluation          ...       99.815 sec (=   1.664 min)  11.8 %
Geometry relaxation              ...        0.188 sec (=   0.003 min)   0.0 %
                             ****ORCA TERMINATED NORMALLY****
TOTAL RUN TIME: 0 days 0 hours 14 minutes 10 seconds 631 msec
