
                                 *****************
                                 * O   R   C   A *
                                 *****************

                                            #,                                       
                                            ###                                      
                                            ####                                     
                                            #####                                    
                                            ######                                   
                                           ########,                                 
                                     ,,################,,,,,                         
                               ,,#################################,,                 
                          ,,##########################################,,             
                       ,#########################################, ''#####,          
                    ,#############################################,,   '####,        
                  ,##################################################,,,,####,       
                ,###########''''           ''''###############################       
              ,#####''   ,,,,##########,,,,          '''####'''          '####       
            ,##' ,,,,###########################,,,                        '##       
           ' ,,###''''                  '''############,,,                           
         ,,##''                                '''############,,,,        ,,,,,,###''
      ,#''                                            '''#######################'''  
     '                                                          ''''####''''         
             ,#######,   #######,   ,#######,      ##                                
            ,#'     '#,  ##    ##  ,#'     '#,    #''#        ,####,   ,####,        
            ##       ##  ##   ,#'  ##            #'  '#       #'       #'  '#        
            ##       ##  #######   ##           ,######,      #####,   #    #        
            '#,     ,#'  ##    ##  '#,     ,#' ,#      #,     #,   #   #,  ,#        
             '#######'   ##     ##  '#######'  #'      '#     '####' # '####'        



                #########################################################
                #                        -***-                          #
                #          Department of theory and spectroscopy        #
                #                                                       #
                #                      Frank Neese                      #
                #                                                       #
                #     Directorship, Architecture, Infrastructure        #
                #                    SHARK, DRIVERS                     #
                #        Core code/Algorithms in most modules           #
                #                                                       #
                #        Max Planck Institute fuer Kohlenforschung      #
                #                Kaiser Wilhelm Platz 1                 #
                #                 D-45470 Muelheim/Ruhr                 #
                #                      Germany                          #
                #                                                       #
                #                  All rights reserved                  #
                #                        -***-                          #
                #########################################################


                         Program Version 6.0.1  -  RELEASE   -


 With contributions from (in alphabetic order):
[Max-Planck-Institut fuer Kohlenforschung]                               
  Daniel Aravena         : Magnetic Suceptibility                        
  Michael Atanasov       : Ab Initio Ligand Field Theory (pilot matlab implementation)
  Alexander A. Auer      : GIAO ZORA, VPT2 properties, NMR spectrum      
  Ute Becker             : All parallelization in ORCA, NUMFREQ, NUMCALC 
  Giovanni Bistoni       : ED, misc. LED, open-shell LED, HFLD           
  Martin Brehm           : Molecular dynamics                            
  Dmytro Bykov           : pre 5.0 version of the SCF Hessian            
  Marcos Casanova-Páez   : Triplet and SCS-CIS(D). UHF-(DLPNO)-IP/EA/STEOM-CCSD. UHF-CVS-IP/STEOM-CCSD   
  Vijay G. Chilkuri      : MRCI spin determinant printing, contributions to CSF-ICE 
  Pauline Colinet        : FMM embedding                                 
  Dipayan Datta          : RHF DLPNO-CCSD density                        
  Achintya Kumar Dutta   : EOM-CC, STEOM-CC                              
  Nicolas Foglia         : Exact transition moments, OPA infrastructure, MCD improvements    
  Dmitry Ganyushin       : Spin-Orbit,Spin-Spin,Magnetic field MRCI      
  Miquel Garcia-Rates    : C-PCM and meta-GGA Hessian, CCSD/C-PCM, Gaussian charge scheme 
  Tiago L. C. Gouveia    : GS-ROHF, GS-ROCIS                             
  Yang Guo               : DLPNO-NEVPT2, F12-NEVPT2, CIM, IAO-localization        
  Andreas Hansen         : Spin unrestricted coupled pair/coupled cluster methods 
  Ingolf Harden          : AUTO-CI MPn and infrastructure                
  Benjamin Helmich-Paris : MC-RPA, TRAH-(SCF,CASSCF), AVAS, COSX integrals, SCF dyn. polar. 
  Lee Huntington         : MR-EOM, pCC                                   
  Robert Izsak           : Overlap fitted RIJCOSX, COSX-SCS-MP3, EOM     
  Riya Kayal             : Wick's Theorem for AUTO-CI, AUTO-CI UHF-CCSDT 
  Emily Kempfer          : AUTO-CI, RHF CISDT and CCSDT                  
  Christian Kollmar      : KDIIS, OOCD, Brueckner-CCSD(T), CCSD density, CASPT2, CASPT2-K, improved NEVPT2 
  Axel Koslowski         : Symmetry handling                             
  Simone Kossmann        : meta-GGA functionals, TD-DFT gradient, OOMP2, (MP2 Hessian; deprecated post 5.0) 
  Lucas Lang             : DCDCAS                                        
  Marvin Lechner         : AUTO-CI (C++ implementation), FIC-MRCC        
  Spencer Leger          : CASSCF response                               
  Dagmar Lenk            : GEPOL surface, SMD, ORCA-2-JSON               
  Dimitrios Liakos       : Extrapolation schemes; Compound Job, initial MDCI parallelization 
  Dimitrios Manganas     : Further ROCIS development; embedding schemes. LFT, Crystal Embedding 
  Dimitrios Pantazis     : SARC Basis sets                               
  Anastasios Papadopoulos: AUTO-CI, single reference methods and gradients 
  Taras Petrenko         : pre 6.0 DFT Hessian and TD-DFT gradient, (ASA, deprecated), ECA, 1-Electron XAS/XES, NRVS 
  Peter Pinski           : DLPNO-MP2, DLPNO-MP2 Gradient                 
  Christoph Reimann      : Effective Core Potentials                     
  Marius Retegan         : Local ZFS, SOC                                
  Christoph Riplinger    : Optimizer, TS searches, QM/MM, DLPNO-CCSD(T), (RO)-DLPNO pert. Triples 
  Michael Roemelt        : Original ROCIS implementation                 
  Masaaki Saitow         : Open-shell DLPNO-CCSD energy and density      
  Barbara Sandhoefer     : DKH picture change effects                    
  Kantharuban Sivalingam : CASSCF convergence/infrastructure, NEVPT2 and variants, FIC-MRCI 
  Bernardo de Souza      : ESD, SOC TD-DFT                               
  Georgi L. Stoychev     : AutoAux, RI-MP2 NMR, DLPNO-MP2 response, X2C  
  Van Anh Tran           : RI-MP2 g-tensors                              
  Willem Van den Heuvel  : Paramagnetic NMR                              
  Zikuan Wang            : NOTCH, Electric field optimization            
  Frank Wennmohs         : Technical directorship and infrastructure     
  Hang Xu                : AUTO-CI-Response properties                   
                                                                         
[FACCTs GmbH]                                                            
  Markus Bursch, Miquel Garcia-Rates, Christoph Riplinger, Bernardo de Souza, Georgi L. Stoychev 
                                                                 
  APM, Basis sets (HGBS, AHGBS, def-TZVP (Ac-Lr), def2-XVPD (La-Lu)), CI-OPT, improved COSX, DLPNO-Multilevel,           
  DOCKER, DRACO, updates on ESD, GOAT, IRC, LR-CPCM, MBIS, meta-GGA TD-DFT gradient, ML-optimized integration grids, 
  MM, NACMEs, nearIR, NEB, NEB-TS, NL-DFT gradient (VV10), 2- and 3-layer-ONIOM, interface openCOSMO-RS, QMMM,   
  Crystal-QMMM, SF, symmetry and pop. for TD-DFT, r2SCAN hybrids, SOLVATOR                                   
                                                                         
[Other institutions]                                                     
  V. Asgeirsson          : NEB                                           
  Christoph Bannwarth    : sTDA-DFT, sTD-DFT, PBEh-3c, B97-3c, D3        
  Sebastian Ehlert       : rSCAN, r2SCAN, r2SCAN-3c, D4, dhf basis sets  
  Marvin Friede          : D4 for Fr, Ra, Ac-Lr                          
  Lars Goerigk           : TD-DFT with DH, B97 family of functionals     
  Stefan Grimme          : VdW corrections, initial TS optimization, DFT functionals, gCP, sTDA/sTD-DF 
  Waldemar Hujo          : DFT-NL                                        
  H. Jonsson             : NEB                                           
  Holger Kruse           : gCP                                           
  Marcel Mueller         : wB97X-3c, vDZP basis set                      
  Hagen Neugebauer       : wr2SCAN                                       
  Tobias Risthaus        : range-separated hybrid DFT                    
  Lukas Wittmann         : regularized MP2, r2SCAN double-hybrids, wr2SCAN        
                                                                         
We gratefully acknowledge several colleagues who have allowed us to      
interface, adapt or use parts of their codes:                            
  Ed Valeev, F. Pavosevic, A. Kumar             : LibInt (2-el integral package), F12 methods 
  Garnet Chan, S. Sharma, J. Yang, R. Olivares  : DMRG                   
  Ulf Ekstrom                                   : XCFun DFT Library      
  Mihaly Kallay                                 : mrcc  (arbitrary order and MRCC methods)
  Frank Weinhold                                : gennbo (NPA and NBO analysis)           
  Simon Mueller                                 : openCOSMO-RS                            
  Christopher J. Cramer and Donald G. Truhlar   : smd solvation model                     
  S Lehtola, MJT Oliveira, MAL Marques          : LibXC Library                           
  Liviu Ungur et al                             : ANISO software                          


 Your calculation uses the libint2 library for the computation of 2-el integrals
 For citations please refer to: http://libint.valeyev.net

 Your ORCA version has been built with support for libXC version: 6.2.2
 For citations please refer to: https://libxc.gitlab.io

 This ORCA versions uses:
   CBLAS   interface :  Fast vector & matrix operations
   LAPACKE interface :  Fast linear algebra routines
   SCALAPACK package :  Parallel linear algebra routines
   Shared memory     :  Shared parallel matrices
   BLAS/LAPACK       :  OpenBLAS 0.3.27  USE64BITINT DYNAMIC_ARCH NO_AFFINITY SkylakeX SINGLE_THREADED
        Core in use  :  SkylakeX
   Copyright (c) 2011-2014, The OpenBLAS Project


Your calculation utilizes the atom-pairwise dispersion correction
based on EEQ partial charges (D4)


================================================================================

cite the ECPs for C  [vDZP-ECP] as follows:
   B-Ne (ecp-2-mwb), Al-Ar (ecp-10-mwb), Ga-Kr (ecp-28-mwb), Y-Cd (ecp-28-mwb), In-Xe (ecp-46-mwb):
     A. Bergner, M. Dolg, W. Küchle, H. Stoll, and H. Preuß, Mol. Phys. 80, 1431 (1993)., T. Leininger, A. Berning, A. Nicklass, H. Stoll, H.-J. Werner, and H.-J.Flad, Chem. Phys. 217, 19 (1997).
   Na-Mg, K-Ca, Rb-Sr, Cs-Ba (CRENBL):
     L. Fernandez Pacios and P. A. Christiansen, J. Chem. Phys. 82, 2664 (1985)., M. M. Hurley, L. F. Pacios, P. A. Christiansen, R. B. Ross, and W. C. Ermler, J. Chem. Phys. 84, 6840 (1986)., L. A. LaJohn, P. A. Christiansen, R. B. Ross, T. Atashroo, and W. C. Ermler, J. Chem. Phys. 87, 2812 (1987)., R. B. Ross, J. M. Powers, T. Atashroo, W. C. Ermler, L. A. LaJohn, and P. A. Christiansen, J. Chem. Phys. 93, 6654 (1990). 
   Sc-Zn (ecp-10-mdf):
     M. Dolg, U. Wedig, H. Stoll, and H. Preuss, J. Chem. Phys. 86, 866 (1986). 
   Y-Cd (ecp-28-mwb), Hf-Hg (ecp-60-mwb):
     D. Andrae, U. Häußermann, M. Dolg, H. Stoll, and H. Preuß, Theor. Chim. Acta 77, 123 (1990). 
   La (ecp-46-mwb):
     M. Dolg, H. Stoll, and H. Preuss, J. Chem. Phys. 90, 1730 (1989)., M. Dolg, H. Stoll, and H. Preuss, Theor. Chim. Acta 85, 441 (1993).
   Ce-Lu (SBKJC-ecp):
     T. R. Cundari and W. J. Stevens, J. Chem. Phys. 98, 5555 (1993).
   Tl-Rn (ecp-78-mwb):
     W. Küchle, M. Dolg, H. Stoll, and H. Preuss, Mol. Phys. 74, 1245 (1991).

ECP parameters for C  [vDZP-ECP] have been obtained from:
MM, AH, SG, J. Chem. Phys. 158, 014103 (2023), 10.1063/5.0133026

----- Orbital basis set information -----
Your calculation utilizes the basis: vDZP
   Marcel Mueller, Andreas Hansen, Stefan Grimme 
   J. Chem. Phys. 158, 014103 (2023). DOI: 10.1063/5.0133026

----- AuxJ basis set information -----
Your calculation utilizes the auxiliary basis: def2/J
   F. Weigend, Phys. Chem. Chem. Phys. 8, 1057 (2006).

================================================================================
                                        WARNINGS
                       Please study these warnings very carefully!
================================================================================

WARNING: Frozen-Core approximation turned on, but there are no core electrons.
  ===> : Turning off frozen-core approximation


WARNING: Geometry Optimization
  ===> : Switching off AutoStart
         For restart on a previous wavefunction, please use MOREAD

================================================================================
                                       INPUT FILE
================================================================================
NAME = ./output/allo_aromadendrene/allo_aromadendrene.inp
|  1> ! wB97X-3c OPT FREQ TightSCF
|  2> %pal
|  3>   nprocs 40
|  4> end
|  5> * xyz 0 1
|  6> C     -0.970317    -3.019359    -0.617734
|  7> C     -1.352660    -1.656859    -0.027731
|  8> C     -2.775162    -1.266348    -0.402827
|  9> C     -2.791460     0.239590    -0.265876
| 10> C     -1.428914     0.709133    -0.798673
| 11> C     -0.464976    -0.498695    -0.531917
| 12> C      0.601342    -0.122655     0.513000
| 13> C      1.707955     0.642041    -0.256450
| 14> C      2.066217    -0.539782     0.631408
| 15> C      2.784579    -0.205143     1.943084
| 16> C      2.499500    -1.815948    -0.095964
| 17> C      1.559106     2.118536     0.097164
| 18> C      0.381133     2.676858    -0.724746
| 19> C     -0.967986     2.106338    -0.289294
| 20> C     -1.760655     2.903715     0.457069
| 21> H      0.040935    -3.313473    -0.273106
| 22> H     -1.688448    -3.794204    -0.274504
| 23> H     -0.981225    -2.989870    -1.728458
| 24> H     -1.299773    -1.729599     1.083366
| 25> H     -3.520561    -1.743119     0.270696
| 26> H     -3.000398    -1.541494    -1.458053
| 27> H     -2.896931     0.461785     0.818499
| 28> H     -3.635339     0.690835    -0.831720
| 29> H     -1.537299     0.805621    -1.902670
| 30> H     -0.010052    -0.796928    -1.503936
| 31> H      0.210361     0.357444     1.439163
| 32> H      1.822011     0.425114    -1.342974
| 33> H      3.843235     0.050889     1.728852
| 34> H      2.316586     0.642789     2.483827
| 35> H      2.760587    -1.090532     2.612171
| 36> H      1.976378    -1.953737    -1.064458
| 37> H      3.590196    -1.771189    -0.297181
| 38> H      2.294762    -2.695458     0.549059
| 39> H      1.398169     2.307692     1.180307
| 40> H      2.491095     2.642881    -0.202038
| 41> H      0.533788     2.457633    -1.804335
| 42> H      0.391391     3.786084    -0.640126
| 43> H     -1.418089     3.881301     0.783129
| 44> H     -2.769078     2.638113     0.743979
| 45> *
| 46> 
| 47>                          ****END OF INPUT****
================================================================================

                       *****************************
                       * Geometry Optimization Run *
                       *****************************

Geometry optimization settings:
Update method            Update   .... BFGS
Choice of coordinates    CoordSys .... (2022) Redundant Internals
Initial Hessian          InHess   .... Almloef's Model
Max. no of cycles        MaxIter  .... 117

Convergence Tolerances:
Energy Change            TolE     ....  5.0000e-06 Eh
Max. Gradient            TolMAXG  ....  3.0000e-04 Eh/bohr
RMS Gradient             TolRMSG  ....  1.0000e-04 Eh/bohr
Max. Displacement        TolMAXD  ....  4.0000e-03 bohr
RMS Displacement         TolRMSD  ....  2.0000e-03 bohr
Strict Convergence                .... False

------------------------------------------------------------------------------
                        ORCA OPTIMIZATION COORDINATE SETUP
------------------------------------------------------------------------------

The optimization will be done in redundant internal coordinates (2022)
Making redundant internal coordinates   ...  (2022 redundants) done
Evaluating the initial hessian          ...  (Almloef) done
Evaluating the coordinates              ...  done
Calculating the B-matrix                .... done
Calculating the G-matrix                .... done
Diagonalizing the G-matrix              .... done
Small eigenvalue found = 2.107e-02
Small eigenvalue found = 2.650e-02
The first mode is                       ....  112
The number of degrees of freedom        ....  111

    -----------------------------------------------------------------
                    Redundant Internal Coordinates


    -----------------------------------------------------------------
         Definition                    Initial Value    Approx d2E/dq
    -----------------------------------------------------------------
      1. B(C   1,C   0)                  1.5332         0.369212   
      2. B(C   2,C   1)                  1.5221         0.384613   
      3. B(C   3,C   2)                  1.5122         0.398760   
      4. B(C   4,C   3)                  1.5365         0.364741   
      5. B(C   5,C   1)                  1.5439         0.355019   
      6. B(C   5,C   4)                  1.5682         0.324688   
      7. B(C   6,C   5)                  1.5396         0.360662   
      8. B(C   7,C   6)                  1.5496         0.347562   
      9. B(C   8,C   7)                  1.5210         0.386175   
     10. B(C   8,C   6)                  1.5277         0.376741   
     11. B(C   9,C   8)                  1.5325         0.370175   
     12. B(C  10,C   8)                  1.5315         0.371561   
     13. B(C  11,C   7)                  1.5255         0.379762   
     14. B(C  12,C  11)                  1.5411         0.358695   
     15. B(C  13,C   4)                  1.5570         0.338357   
     16. B(C  13,C  12)                  1.5281         0.376126   
     17. B(C  14,C  13)                  1.3495         0.724985   
     18. B(H  15,C   0)                  1.1081         0.336925   
     19. B(H  16,C   0)                  1.1108         0.333594   
     20. B(H  17,C   0)                  1.1112         0.333157   
     21. B(H  18,C   1)                  1.1147         0.328826   
     22. B(H  19,C   2)                  1.1120         0.332131   
     23. B(H  20,C   2)                  1.1135         0.330286   
     24. B(H  21,C   3)                  1.1119         0.332241   
     25. B(H  22,C   3)                  1.1117         0.332477   
     26. B(H  23,C   4)                  1.1135         0.330325   
     27. B(H  24,C   5)                  1.1139         0.329861   
     28. B(H  25,C   6)                  1.1141         0.329633   
     29. B(H  26,C   7)                  1.1138         0.329926   
     30. B(H  27,C   9)                  1.1100         0.334536   
     31. B(H  28,C   9)                  1.1092         0.335529   
     32. B(H  29,C   9)                  1.1100         0.334554   
     33. B(H  30,C  10)                  1.1093         0.335410   
     34. B(H  31,C  10)                  1.1100         0.334586   
     35. B(H  32,C  10)                  1.1097         0.334918   
     36. B(H  33,C  11)                  1.1113         0.333057   
     37. B(H  34,C  11)                  1.1104         0.334058   
     38. B(H  35,C  12)                  1.1121         0.331960   
     39. B(H  36,C  12)                  1.1125         0.331537   
     40. B(H  37,C  14)                  1.0860         0.365465   
     41. B(H  38,C  14)                  1.0816         0.371436   
     42. A(H  15,C   0,H  16)          107.9835         0.284412   
     43. A(C   1,C   0,H  16)          109.8624         0.319667   
     44. A(H  16,C   0,H  17)          108.7253         0.283915   
     45. A(H  15,C   0,H  17)          109.0798         0.284354   
     46. A(C   1,C   0,H  15)          110.1066         0.320187   
     47. A(C   1,C   0,H  17)          111.0162         0.319599   
     48. A(C   2,C   1,H  18)          107.8614         0.321054   
     49. A(C   0,C   1,C   5)          113.4279         0.359486   
     50. A(C   0,C   1,C   2)          111.4833         0.364432   
     51. A(C   5,C   1,H  18)          110.3150         0.316886   
     52. A(C   0,C   1,H  18)          108.2850         0.318917   
     53. A(C   2,C   1,C   5)          105.3321         0.361999   
     54. A(C   1,C   2,H  19)          111.5432         0.321579   
     55. A(C   1,C   2,H  20)          111.0498         0.321286   
     56. A(H  19,C   2,H  20)          109.4171         0.283341   
     57. A(C   3,C   2,H  20)          109.2509         0.323193   
     58. A(C   3,C   2,H  19)          111.4005         0.323489   
     59. A(C   1,C   2,C   3)          104.0785         0.369274   
     60. A(C   4,C   3,H  22)          111.8759         0.318858   
     61. A(H  21,C   3,H  22)          110.0755         0.283646   
     62. A(C   2,C   3,H  22)          111.4871         0.323544   
     63. A(C   4,C   3,H  21)          111.1749         0.318821   
     64. A(C   2,C   3,H  21)          106.7585         0.323506   
     65. A(C   2,C   3,C   4)          105.2693         0.365929   
     66. A(C  13,C   4,H  23)          105.9875         0.314653   
     67. A(C   5,C   4,C  13)          116.9722         0.348889   
     68. A(C   3,C   4,C  13)          115.0440         0.355822   
     69. A(C   3,C   4,H  23)          106.4969         0.318520   
     70. A(C   5,C   4,H  23)          107.1712         0.312556   
     71. A(C   3,C   4,C   5)          104.5211         0.353343   
     72. A(C   1,C   5,C   4)          106.2550         0.351732   
     73. A(C   4,C   5,H  24)          107.9884         0.312485   
     74. A(C   1,C   5,H  24)          108.5999         0.317048   
     75. A(C   6,C   5,H  24)          112.0116         0.317864   
     76. A(C   4,C   5,C   6)          110.6748         0.352671   
     77. A(C   1,C   5,C   6)          111.0886         0.358055   
     78. A(C   8,C   6,H  25)          112.9388         0.320098   
     79. A(C   7,C   6,H  25)          116.7916         0.315920   
     80. A(C   5,C   6,H  25)          115.2406         0.317828   
     81. A(C   7,C   6,C   8)           59.2351         0.359422   
     82. A(C   5,C   6,C   8)          130.5443         0.361696   
     83. A(C   5,C   6,C   7)          106.1482         0.356766   
     84. A(C  11,C   7,H  26)          115.1258         0.320563   
     85. A(C   8,C   7,H  26)          113.2027         0.321442   
     86. A(C   6,C   7,H  26)          117.4763         0.315965   
     87. A(C   6,C   7,C   8)           59.6638         0.360940   
     88. A(C   8,C   7,C  11)          129.7707         0.366449   
     89. A(C   6,C   7,C  11)          107.0276         0.359911   
     90. A(C   6,C   8,C   9)          117.1418         0.363308   
     91. A(C   6,C   8,C   7)           61.1011         0.365948   
     92. A(C   6,C   8,C  10)          117.5160         0.363540   
     93. A(C   9,C   8,C  10)          117.1200         0.362450   
     94. A(C   7,C   8,C  10)          115.9048         0.365081   
     95. A(C   7,C   8,C   9)          116.1279         0.364848   
     96. A(C   8,C   9,H  29)          109.3665         0.319954   
     97. A(H  27,C   9,H  28)          108.6714         0.284353   
     98. A(C   8,C   9,H  28)          112.7308         0.320106   
     99. A(C   8,C   9,H  27)          109.4044         0.319951   
    100. A(H  28,C   9,H  29)          107.8645         0.284356   
    101. A(H  27,C   9,H  29)          108.7183         0.284225   
    102. A(H  31,C  10,H  32)          108.5787         0.284279   
    103. A(H  30,C  10,H  32)          108.7843         0.284388   
    104. A(C   8,C  10,H  32)          109.4001         0.320206   
    105. A(H  30,C  10,H  31)          108.0658         0.284344   
    106. A(C   8,C  10,H  31)          109.2988         0.320154   
    107. A(C   8,C  10,H  30)          112.6275         0.320283   
    108. A(C   7,C  11,C  12)          107.5542         0.361852   
    109. A(H  33,C  11,H  34)          107.6863         0.283963   
    110. A(C  12,C  11,H  34)          109.0729         0.318236   
    111. A(C   7,C  11,H  34)          108.2203         0.321216   
    112. A(C  12,C  11,H  33)          110.3330         0.318080   
    113. A(C   7,C  11,H  33)          113.8794         0.321058   
    114. A(C  11,C  12,C  13)          112.8053         0.361258   
    115. A(H  35,C  12,H  36)          105.6113         0.283484   
    116. A(C  13,C  12,H  36)          111.0210         0.320314   
    117. A(C  11,C  12,H  36)          108.2773         0.317843   
    118. A(C  13,C  12,H  35)          108.9171         0.320381   
    119. A(C  11,C  12,H  35)          109.9615         0.317909   
    120. A(C  12,C  13,C  14)          117.1012         0.408264   
    121. A(C   4,C  13,C  14)          122.4993         0.400708   
    122. A(C   4,C  13,C  12)          120.2100         0.357685   
    123. A(H  37,C  14,H  38)          115.8189         0.292942   
    124. A(C  13,C  14,H  38)          123.3166         0.364345   
    125. A(C  13,C  14,H  37)          120.8411         0.363337   
    126. D(C   2,C   1,C   0,H  16)    -57.2443         0.010900   
    127. D(C   2,C   1,C   0,H  15)   -176.0489         0.010900   
    128. D(C   5,C   1,C   0,H  15)     65.2509         0.010900   
    129. D(C   5,C   1,C   0,H  16)   -175.9445         0.010900   
    130. D(C   5,C   1,C   0,H  17)    -55.6495         0.010900   
    131. D(C   2,C   1,C   0,H  17)     63.0506         0.010900   
    132. D(C   3,C   2,C   1,C   5)    -33.9919         0.011775   
    133. D(C   3,C   2,C   1,C   0)   -157.4244         0.011775   
    134. D(H  19,C   2,C   1,C   5)   -154.2199         0.011775   
    135. D(H  19,C   2,C   1,C   0)     82.3476         0.011775   
    136. D(H  19,C   2,C   1,H  18)    -36.4078         0.011775   
    137. D(C   3,C   2,C   1,H  18)     83.8202         0.011775   
    138. D(C   4,C   3,C   2,C   1)     38.8268         0.012619   
    139. D(C   4,C   3,C   2,H  20)    -79.8466         0.012619   
    140. D(C   4,C   3,C   2,H  19)    159.1509         0.012619   
    141. D(H  21,C   3,C   2,C   1)    -79.4186         0.012619   
    142. D(H  21,C   3,C   2,H  20)    161.9080         0.012619   
    143. D(H  21,C   3,C   2,H  19)     40.9055         0.012619   
    144. D(C  13,C   4,C   3,H  22)     81.0541         0.010654   
    145. D(C  13,C   4,C   3,H  21)    -42.4646         0.010654   
    146. D(C  13,C   4,C   3,C   2)   -157.6963         0.010654   
    147. D(C   5,C   4,C   3,H  22)   -149.2907         0.010654   
    148. D(C   5,C   4,C   3,C   2)    -28.0412         0.010654   
    149. D(C   5,C   4,C   3,H  21)     87.1906         0.010654   
    150. D(C   6,C   5,C   1,H  18)     20.7314         0.010132   
    151. D(C   6,C   5,C   1,C   0)   -100.9388         0.010132   
    152. D(C   4,C   5,C   1,H  18)    -99.7065         0.010132   
    153. D(C   4,C   5,C   1,C   2)     16.4376         0.010132   
    154. D(C   4,C   5,C   1,C   0)    138.6233         0.010132   
    155. D(C   1,C   5,C   4,C   3)      6.9425         0.008614   
    156. D(C   6,C   5,C   1,C   2)    136.8755         0.010132   
    157. D(C   6,C   5,C   4,H  23)    133.4661         0.008614   
    158. D(C   6,C   5,C   4,C  13)     14.7339         0.008614   
    159. D(C   6,C   5,C   4,C   3)   -113.7626         0.008614   
    160. D(C   1,C   5,C   4,H  23)   -105.8288         0.008614   
    161. D(C   1,C   5,C   4,C  13)    135.4390         0.008614   
    162. D(C   8,C   6,C   5,H  24)    -24.5708         0.010433   
    163. D(C   8,C   6,C   5,C   4)   -145.1406         0.010433   
    164. D(C   8,C   6,C   5,C   1)     97.0726         0.010433   
    165. D(C   7,C   6,C   5,C   4)    -82.0833         0.010433   
    166. D(C   7,C   6,C   5,H  24)     38.4865         0.010433   
    167. D(C   7,C   6,C   5,C   1)    160.1299         0.010433   
    168. D(H  26,C   7,C   6,C   5)    -25.8327         0.009744   
    169. D(C  11,C   7,C   6,C   5)    105.4519         0.009744   
    170. D(C   8,C   7,C   6,H  25)    101.9778         0.009744   
    171. D(C  11,C   7,C   6,C   8)   -126.5814         0.009744   
    172. D(C   8,C   7,C   6,C   5)   -127.9667         0.009744   
    173. D(C  11,C   7,C   6,H  25)    -24.6036         0.009744   
    174. D(C  10,C   8,C   7,C   6)    108.5759         0.011867   
    175. D(C   9,C   8,C   7,C  11)    -20.6527         0.011867   
    176. D(C   9,C   8,C   7,C   6)   -108.0372         0.011867   
    177. D(C   6,C   8,C   7,H  26)   -109.3155         0.011867   
    178. D(C   6,C   8,C   7,C  11)     87.3845         0.011867   
    179. D(C  10,C   8,C   6,C   5)    -20.7462         0.011323   
    180. D(C   9,C   8,C   6,H  25)     -2.1261         0.011323   
    181. D(C   9,C   8,C   6,C   7)    106.3962         0.011323   
    182. D(C   9,C   8,C   6,C   5)   -168.3811         0.011323   
    183. D(C   9,C   8,C   7,H  26)    142.6473         0.011867   
    184. D(C   7,C   8,C   6,H  25)   -108.5224         0.011323   
    185. D(C   7,C   8,C   6,C   5)     85.2227         0.011323   
    186. D(H  27,C   9,C   8,C  10)     67.5388         0.010954   
    187. D(H  27,C   9,C   8,C   7)    -75.3939         0.010954   
    188. D(H  27,C   9,C   8,C   6)   -144.6970         0.010954   
    189. D(H  28,C   9,C   8,C  10)   -171.4255         0.010954   
    190. D(H  28,C   9,C   8,C   7)     45.6418         0.010954   
    191. D(H  28,C   9,C   8,C   6)    -23.6613         0.010954   
    192. D(H  31,C  10,C   8,C   9)    -56.3970         0.011031   
    193. D(H  31,C  10,C   8,C   7)     86.6179         0.011031   
    194. D(H  31,C  10,C   8,C   6)    155.9610         0.011031   
    195. D(H  30,C  10,C   8,C   9)   -176.5248         0.011031   
    196. D(H  30,C  10,C   8,C   7)    -33.5100         0.011031   
    197. D(H  30,C  10,C   8,C   6)     35.8332         0.011031   
    198. D(H  33,C  11,C   7,H  26)    177.2337         0.011495   
    199. D(H  33,C  11,C   7,C   8)    -19.7274         0.011495   
    200. D(H  33,C  11,C   7,C   6)     44.6557         0.011495   
    201. D(C  12,C  11,C   7,H  26)     54.6445         0.011495   
    202. D(C  12,C  11,C   7,C   8)   -142.3165         0.011495   
    203. D(C  12,C  11,C   7,C   6)    -77.9335         0.011495   
    204. D(H  35,C  12,C  11,H  34)     63.5814         0.010328   
    205. D(H  35,C  12,C  11,H  33)   -178.3234         0.010328   
    206. D(H  35,C  12,C  11,C   7)    -53.5715         0.010328   
    207. D(C  13,C  12,C  11,H  34)   -174.6230         0.010328   
    208. D(C  13,C  12,C  11,H  33)    -56.5278         0.010328   
    209. D(C  13,C  12,C  11,C   7)     68.2241         0.010328   
    210. D(C  14,C  13,C  12,H  35)   -134.1212         0.010570   
    211. D(C  14,C  13,C  12,C  11)    103.4953         0.010570   
    212. D(C   4,C  13,C  12,H  36)    156.8792         0.010570   
    213. D(C   4,C  13,C  12,H  35)     41.0013         0.010570   
    214. D(C   4,C  13,C  12,C  11)    -81.3821         0.010570   
    215. D(C  14,C  13,C   4,C   5)   -129.5251         0.008708   
    216. D(C  14,C  13,C   4,C   3)     -6.2732         0.008708   
    217. D(C  12,C  13,C   4,H  23)    -63.7430         0.008708   
    218. D(C  12,C  13,C   4,C   5)     55.6237         0.008708   
    219. D(C  12,C  13,C   4,C   3)    178.8756         0.008708   
    220. D(H  38,C  14,C  13,C  12)    174.2795         0.037246   
    221. D(H  38,C  14,C  13,C   4)     -0.7225         0.037246   
    222. D(H  37,C  14,C  13,C  12)     -3.8891         0.037246   
    223. D(H  37,C  14,C  13,C   4)   -178.8912         0.037246   
    -----------------------------------------------------------------

Number of atoms                         .... 39
Number of degrees of freedom            .... 223


         *************************************************************
         *                GEOMETRY OPTIMIZATION CYCLE   1            *
         *************************************************************
---------------------------------
CARTESIAN COORDINATES (ANGSTROEM)
---------------------------------
  C     -0.970317   -3.019359   -0.617734
  C     -1.352660   -1.656859   -0.027731
  C     -2.775162   -1.266348   -0.402827
  C     -2.791460    0.239590   -0.265876
  C     -1.428914    0.709133   -0.798673
  C     -0.464976   -0.498695   -0.531917
  C      0.601342   -0.122655    0.513000
  C      1.707955    0.642041   -0.256450
  C      2.066217   -0.539782    0.631408
  C      2.784579   -0.205143    1.943084
  C      2.499500   -1.815948   -0.095964
  C      1.559106    2.118536    0.097164
  C      0.381133    2.676858   -0.724746
  C     -0.967986    2.106338   -0.289294
  C     -1.760655    2.903715    0.457069
  H      0.040935   -3.313473   -0.273106
  H     -1.688448   -3.794204   -0.274504
  H     -0.981225   -2.989870   -1.728458
  H     -1.299773   -1.729599    1.083366
  H     -3.520561   -1.743119    0.270696
  H     -3.000398   -1.541494   -1.458053
  H     -2.896931    0.461785    0.818499
  H     -3.635339    0.690835   -0.831720
  H     -1.537299    0.805621   -1.902670
  H     -0.010052   -0.796928   -1.503936
  H      0.210361    0.357444    1.439163
  H      1.822011    0.425114   -1.342974
  H      3.843235    0.050889    1.728852
  H      2.316586    0.642789    2.483827
  H      2.760587   -1.090532    2.612171
  H      1.976378   -1.953737   -1.064458
  H      3.590196   -1.771189   -0.297181
  H      2.294762   -2.695458    0.549059
  H      1.398169    2.307692    1.180307
  H      2.491095    2.642881   -0.202038
  H      0.533788    2.457633   -1.804335
  H      0.391391    3.786084   -0.640126
  H     -1.418089    3.881301    0.783129
  H     -2.769078    2.638113    0.743979

----------------------------
CARTESIAN COORDINATES (A.U.)
----------------------------
  NO LB      ZA    FRAG     MASS         X           Y           Z
   0 C     4.0000*   0    12.011   -1.833633   -5.705762   -1.167348
   1 C     4.0000*   0    12.011   -2.556157   -3.131010   -0.052404
   2 C     4.0000*   0    12.011   -5.244296   -2.393051   -0.761233
   3 C     4.0000*   0    12.011   -5.275095    0.452759   -0.502433
   4 C     4.0000*   0    12.011   -2.700256    1.340067   -1.509273
   5 C     4.0000*   0    12.011   -0.878677   -0.942397   -1.005177
   6 C     4.0000*   0    12.011    1.136372   -0.231784    0.969430
   7 C     4.0000*   0    12.011    3.227567    1.213282   -0.484620
   8 C     4.0000*   0    12.011    3.904584   -1.020040    1.193188
   9 C     4.0000*   0    12.011    5.262092   -0.387664    3.671897
  10 C     4.0000*   0    12.011    4.723370   -3.431644   -0.181346
  11 C     4.0000*   0    12.011    2.946283    4.003453    0.183613
  12 C     4.0000*   0    12.011    0.720237    5.058529   -1.369571
  13 C     4.0000*   0    12.011   -1.829228    3.980402   -0.546686
  14 C     4.0000*   0    12.011   -3.327156    5.487226    0.863735
  15 H     1.0000    0     1.008    0.077356   -6.261557   -0.516096
  16 H     1.0000    0     1.008   -3.190704   -7.170006   -0.518737
  17 H     1.0000    0     1.008   -1.854247   -5.650035   -3.266312
  18 H     1.0000    0     1.008   -2.456215   -3.268468    2.047265
  19 H     1.0000    0     1.008   -6.652896   -3.294018    0.511541
  20 H     1.0000    0     1.008   -5.669931   -2.913001   -2.755321
  21 H     1.0000    0     1.008   -5.474406    0.872647    1.546739
  22 H     1.0000    0     1.008   -6.869795    1.305489   -1.571723
  23 H     1.0000    0     1.008   -2.905074    1.522403   -3.595525
  24 H     1.0000    0     1.008   -0.018996   -1.505976   -2.842027
  25 H     1.0000    0     1.008    0.397525    0.675471    2.719624
  26 H     1.0000    0     1.008    3.443102    0.803349   -2.537853
  27 H     1.0000    0     1.008    7.262662    0.096166    3.267057
  28 H     1.0000    0     1.008    4.377713    1.214695    4.693753
  29 H     1.0000    0     1.008    5.216753   -2.060807    4.936288
  30 H     1.0000    0     1.008    3.734813   -3.692028   -2.011534
  31 H     1.0000    0     1.008    6.784487   -3.347062   -0.561591
  32 H     1.0000    0     1.008    4.336472   -5.093677    1.037571
  33 H     1.0000    0     1.008    2.642156    4.360906    2.230457
  34 H     1.0000    0     1.008    4.707487    4.994321   -0.381796
  35 H     1.0000    0     1.008    1.008713    4.644253   -3.409699
  36 H     1.0000    0     1.008    0.739622    7.154662   -1.209663
  37 H     1.0000    0     1.008   -2.679800    7.334596    1.479899
  38 H     1.0000    0     1.008   -5.232799    4.985311    1.405917
* core charge reduced due to ECP

--------------------------------
INTERNAL COORDINATES (ANGSTROEM)
--------------------------------
 C      0   0   0     0.000000000000     0.00000000     0.00000000
 C      1   0   0     1.533197951883     0.00000000     0.00000000
 C      2   1   0     1.522073516733   111.48325054     0.00000000
 C      3   2   1     1.512240212747   104.07846532   202.57562226
 C      4   3   2     1.536513870479   105.26930336    38.82678026
 C      2   1   3     1.543868601063   113.42785635   241.29985842
 C      6   2   1     1.539575167250   111.08862801   259.06116867
 C      7   6   2     1.549646929686   106.14823591   160.12985467
 C      8   7   6     1.520969786727    59.66379308   232.03328285
 C      9   8   7     1.532488548845   116.12790398   251.96282476
 C      9   8   7     1.531471137184   115.90482342   108.57591785
 C      8   7   6     1.525528226819   107.02757035   105.45186383
 C     12   8   7     1.541064532235   107.55419161   282.06650627
 C     13  12   8     1.528147110348   112.80529619    68.22411358
 C     14  13  12     1.349515450619   117.10122817   103.49531051
 H      1   2   3     1.108107445550   110.10660502   183.95108499
 H      1   2   3     1.110812198387   109.86238389   302.75566873
 H      1   2   3     1.111168929444   111.01622857    63.05060093
 H      2   1   3     1.114730768293   108.28502625   118.50216896
 H      3   2   1     1.112008762183   111.54317447    82.34762483
 H      3   2   1     1.113525252560   111.04983603   320.01028930
 H      4   3   2     1.111919012559   106.75848165   280.58142095
 H      4   3   2     1.111725347827   111.48708209   160.32986108
 H      5   4   3     1.113492980839   106.49688764    85.21053186
 H      6   2   1     1.113875982516   108.59989619    22.67665778
 H      7   6   2     1.114064223791   115.24059138   291.07177023
 H      8   7   6     1.113822471061   117.47627041   334.16733050
 H     10   9   8     1.110045161777   109.40442065   284.60607899
 H     10   9   8     1.109238079369   112.73079296    45.64175996
 H     10   9   8     1.110030049573   109.36653197   165.62883818
 H     11   9   8     1.109334513770   112.62749391   326.49002847
 H     11   9   8     1.110004240346   109.29875994    86.61788613
 H     11   9   8     1.109734274172   109.40011119   205.38243550
 H     12   8   7     1.111251307650   113.87942476    44.65567851
 H     12   8   7     1.110433704437   108.22031004   164.35925971
 H     13  12   8     1.112149072099   109.96148656   306.42850182
 H     13  12   8     1.112496332596   108.27726048   191.50029728
 H     15  14  13     1.085974666073   120.84111647   356.11085213
 H     15  14  13     1.081563089900   123.31661166   174.27953029

---------------------------
INTERNAL COORDINATES (A.U.)
---------------------------
 C      0   0   0     0.000000000000     0.00000000     0.00000000
 C      1   0   0     2.897324238148     0.00000000     0.00000000
 C      2   1   0     2.876302102320   111.48325054     0.00000000
 C      3   2   1     2.857719850795   104.07846532   202.57562226
 C      4   3   2     2.903590416176   105.26930336    38.82678026
 C      2   1   3     2.917488842769   113.42785635   241.29985842
 C      6   2   1     2.909375428689   111.08862801   259.06116867
 C      7   6   2     2.928408301378   106.14823591   160.12985467
 C      8   7   6     2.874216354883    59.66379308   232.03328285
 C      9   8   7     2.895983660687   116.12790398   251.96282476
 C      9   8   7     2.894061031284   115.90482342   108.57591785
 C      8   7   6     2.882830558255   107.02757035   105.45186383
 C     12   8   7     2.912189920624   107.55419161   282.06650627
 C     13  12   8     2.887779530901   112.80529619    68.22411358
 C     14  13  12     2.550214615165   117.10122817   103.49531051
 H      1   2   3     2.094019599049   110.10660502   183.95108499
 H      1   2   3     2.099130841171   109.86238389   302.75566873
 H      1   2   3     2.099804965171   111.01622857    63.05060093
 H      2   1   3     2.106535865128   108.28502625   118.50216896
 H      3   2   1     2.101392019046   111.54317447    82.34762483
 H      3   2   1     2.104257770543   111.04983603   320.01028930
 H      4   3   2     2.101222416837   106.75848165   280.58142095
 H      4   3   2     2.100856443532   111.48708209   160.32986108
 H      5   4   3     2.104196785830   106.49688764    85.21053186
 H      6   2   1     2.104920554108   108.59989619    22.67665778
 H      7   6   2     2.105276278565   115.24059138   291.07177023
 H      8   7   6     2.104819432113   117.47627041   334.16733050
 H     10   9   8     2.097681352042   109.40442065   284.60607899
 H     10   9   8     2.096156187324   112.73079296    45.64175996
 H     10   9   8     2.097652794115   109.36653197   165.62883818
 H     11   9   8     2.096338421932   112.62749391   326.49002847
 H     11   9   8     2.097604021745   109.29875994    86.61788613
 H     11   9   8     2.097093859612   109.40011119   205.38243550
 H     12   8   7     2.099960637421   113.87942476    44.65567851
 H     12   8   7     2.098415591262   108.22031004   164.35925971
 H     13  12   8     2.101657166362   109.96148656   306.42850182
 H     13  12   8     2.102313393599   108.27726048   191.50029728
 H     15  14  13     2.052194707254   120.84111647   356.11085213
 H     15  14  13     2.043858036468   123.31661166   174.27953029

---------------------
BASIS SET INFORMATION
---------------------
There are 2 groups of distinct atoms

 Group   1 Type C   : 6s6p2d contracted to 2s2p1d pattern {42/42/2}
 Group   2 Type H   : 8s2p contracted to 2s1p pattern {53/2}

Atom   0C    basis set group =>   1
Atom   1C    basis set group =>   1
Atom   2C    basis set group =>   1
Atom   3C    basis set group =>   1
Atom   4C    basis set group =>   1
Atom   5C    basis set group =>   1
Atom   6C    basis set group =>   1
Atom   7C    basis set group =>   1
Atom   8C    basis set group =>   1
Atom   9C    basis set group =>   1
Atom  10C    basis set group =>   1
Atom  11C    basis set group =>   1
Atom  12C    basis set group =>   1
Atom  13C    basis set group =>   1
Atom  14C    basis set group =>   1
Atom  15H    basis set group =>   2
Atom  16H    basis set group =>   2
Atom  17H    basis set group =>   2
Atom  18H    basis set group =>   2
Atom  19H    basis set group =>   2
Atom  20H    basis set group =>   2
Atom  21H    basis set group =>   2
Atom  22H    basis set group =>   2
Atom  23H    basis set group =>   2
Atom  24H    basis set group =>   2
Atom  25H    basis set group =>   2
Atom  26H    basis set group =>   2
Atom  27H    basis set group =>   2
Atom  28H    basis set group =>   2
Atom  29H    basis set group =>   2
Atom  30H    basis set group =>   2
Atom  31H    basis set group =>   2
Atom  32H    basis set group =>   2
Atom  33H    basis set group =>   2
Atom  34H    basis set group =>   2
Atom  35H    basis set group =>   2
Atom  36H    basis set group =>   2
Atom  37H    basis set group =>   2
Atom  38H    basis set group =>   2
---------------------------------
AUXILIARY/J BASIS SET INFORMATION
---------------------------------
There are 2 groups of distinct atoms

 Group   1 Type C   : 12s5p4d2f1g contracted to 6s4p3d1f1g pattern {711111/2111/211/2/1}
 Group   2 Type H   : 5s2p1d contracted to 3s1p1d pattern {311/2/1}

Atom   0C    basis set group =>   1
Atom   1C    basis set group =>   1
Atom   2C    basis set group =>   1
Atom   3C    basis set group =>   1
Atom   4C    basis set group =>   1
Atom   5C    basis set group =>   1
Atom   6C    basis set group =>   1
Atom   7C    basis set group =>   1
Atom   8C    basis set group =>   1
Atom   9C    basis set group =>   1
Atom  10C    basis set group =>   1
Atom  11C    basis set group =>   1
Atom  12C    basis set group =>   1
Atom  13C    basis set group =>   1
Atom  14C    basis set group =>   1
Atom  15H    basis set group =>   2
Atom  16H    basis set group =>   2
Atom  17H    basis set group =>   2
Atom  18H    basis set group =>   2
Atom  19H    basis set group =>   2
Atom  20H    basis set group =>   2
Atom  21H    basis set group =>   2
Atom  22H    basis set group =>   2
Atom  23H    basis set group =>   2
Atom  24H    basis set group =>   2
Atom  25H    basis set group =>   2
Atom  26H    basis set group =>   2
Atom  27H    basis set group =>   2
Atom  28H    basis set group =>   2
Atom  29H    basis set group =>   2
Atom  30H    basis set group =>   2
Atom  31H    basis set group =>   2
Atom  32H    basis set group =>   2
Atom  33H    basis set group =>   2
Atom  34H    basis set group =>   2
Atom  35H    basis set group =>   2
Atom  36H    basis set group =>   2
Atom  37H    basis set group =>   2
Atom  38H    basis set group =>   2
-------------------------
ECP PARAMETER INFORMATION
-------------------------

 Group 1, Type C  ECP vDZP-ECP (replacing 2 core electrons, lmax=3)

Atom   0C    ECP group =>   1
Atom   1C    ECP group =>   1
Atom   2C    ECP group =>   1
Atom   3C    ECP group =>   1
Atom   4C    ECP group =>   1
Atom   5C    ECP group =>   1
Atom   6C    ECP group =>   1
Atom   7C    ECP group =>   1
Atom   8C    ECP group =>   1
Atom   9C    ECP group =>   1
Atom  10C    ECP group =>   1
Atom  11C    ECP group =>   1
Atom  12C    ECP group =>   1
Atom  13C    ECP group =>   1
Atom  14C    ECP group =>   1



           ************************************************************
           *        Program running with 40 parallel MPI-processes    *
           *              working on a common directory               *
           ************************************************************
------------------------------------------------------------------------------
                             ORCA STARTUP CALCULATIONS
                           -- RI-GTO INTEGRALS CHOSEN --
------------------------------------------------------------------------------
------------------------------------------------------------------------------
                   ___                                                        
                  /   \      - P O W E R E D   B Y -                         
                 /     \                                                     
                 |  |  |   _    _      __       _____    __    __             
                 |  |  |  | |  | |    /  \     |  _  \  |  |  /  |          
                  \  \/   | |  | |   /    \    | | | |  |  | /  /          
                 / \  \   | |__| |  /  /\  \   | |_| |  |  |/  /          
                |  |  |   |  __  | /  /__\  \  |    /   |      \           
                |  |  |   | |  | | |   __   |  |    \   |  |\   \          
                \     /   | |  | | |  |  |  |  | |\  \  |  | \   \       
                 \___/    |_|  |_| |__|  |__|  |_| \__\ |__|  \__/        
                                                                              
                      - O R C A' S   B I G   F R I E N D -                    
                                      &                                       
                       - I N T E G R A L  F E E D E R -                       
                                                                              
 v1 FN, 2020, v2 2021, v3 2022-2024                                           
------------------------------------------------------------------------------


----------------------
SHARK INTEGRAL PACKAGE
----------------------

Number of atoms                             ...     39
Number of basis functions                   ...    315
Number of shells                            ...    147
Maximum angular momentum                    ...      2
Integral batch strategy                     ... SHARK/LIBINT Hybrid
RI-J (if used) integral strategy            ... SPLIT-RIJ (Revised 2003 algorithm where possible)
Printlevel                                  ...      1
Contraction scheme used                     ... SEGMENTED contraction
Prescreening option                         ... SCHWARTZ
   Thresh                                   ... 2.500e-11
   Tcut                                     ... 2.500e-12
   Tpresel                                  ... 2.500e-12 
Coulomb Range Separation                    ... NOT USED
Exchange Range Separation                   ... Long Range
   Mu parameter                             ... 3.000e-01
   Scaling (regular/separated)              ... 1.670e-01 8.330e-01
Multipole approximations                    ... NOT USED
Finite Nucleus Model                        ... NOT USED
CABS basis                                  ... NOT available
Auxiliary Coulomb fitting basis             ... AVAILABLE
   # of basis functions in Aux-J            ...    999
   # of shells in Aux-J                     ...    345
   Maximum angular momentum in Aux-J        ...      4
Auxiliary J/K fitting basis                 ... NOT available
Auxiliary Correlation fitting basis         ... NOT available
Auxiliary 'external' fitting basis          ... NOT available

Checking pre-screening integrals            ... done (  0.0 sec) Dimension = 147
Check shell pair data                       ... done (  0.0 sec)
Shell pair information
Shell pair cut-off parameter TPreSel        ...   2.5e-12
Total number of shell pairs                 ...     10878
Shell pairs after pre-screening             ...     10863
Total number of primitive shell pairs       ...    102036
Primitive shell pairs kept                  ...     78953
          la=0 lb=0:   3081 shell pairs
          la=1 lb=0:   4206 shell pairs
          la=1 lb=1:   1476 shell pairs
          la=2 lb=0:   1170 shell pairs
          la=2 lb=1:    810 shell pairs
          la=2 lb=2:    120 shell pairs

Calculating one electron integrals          ... done (  0.0 sec)
Calculating ECP integrals                   ... done (  0.2 sec)
Calculating RI/J V-Matrix + Cholesky decomp.... done (  0.0 sec)
Calculating Nuclear repulsion               ... done (  0.0 sec) ENN=    578.290106704060 Eh

Diagonalization of the overlap matrix:
Smallest eigenvalue                        ... 1.003e-03
Time for diagonalization                   ...    0.015 sec
Threshold for overlap eigenvalues          ... 1.000e-07
Number of eigenvalues below threshold      ... 0
Time for construction of square roots      ...    0.007 sec
Total time needed                          ...    0.050 sec

-------------------
DFT GRID GENERATION
-------------------

General Integration Accuracy     IntAcc      ... 4.388
Radial Grid Type                 RadialGrid  ... OptM3 with GC (2021)
Angular Grid (max. ang.)         AngularGrid ... 4 (Lebedev-302)
Angular grid pruning method      GridPruning ... 4 (adaptive)
Weight generation scheme         WeightScheme... mBecke (2022)
Basis function cutoff            BFCut       ... 1.0000e-11
Integration weight cutoff        WCut        ... 1.0000e-14
Partially contracted basis set               ... off
Rotationally invariant grid construction     ... off
Angular grids for H and He will be reduced by one unit

Total number of grid points                  ...   164550
Total number of batches                      ...     2591
Average number of points per batch           ...       63
Average number of grid points per atom       ...     4219

--------------------
COSX GRID GENERATION
--------------------

GRIDX 1
-------
General Integration Accuracy     IntAcc      ... 3.816
Radial Grid Type                 RadialGrid  ... OptM3 with GC (2021)
Angular Grid (max. ang.)         AngularGrid ... 1 (Lebedev-50)
Angular grid pruning method      GridPruning ... 4 (adaptive)
Weight generation scheme         WeightScheme... mBecke (2022)
Basis function cutoff            BFCut       ... 1.0000e-11
Integration weight cutoff        WCut        ... 1.0000e-14
Partially contracted basis set               ... on
Rotationally invariant grid construction     ... off
Angular grids for H and He will be reduced by one unit

Total number of grid points                  ...    20942
Total number of batches                      ...      187
Average number of points per batch           ...      111
Average number of grid points per atom       ...      537
UseSFitting                                  ... on

GRIDX 2
-------
General Integration Accuracy     IntAcc      ... 4.020
Radial Grid Type                 RadialGrid  ... OptM3 with GC (2021)
Angular Grid (max. ang.)         AngularGrid ... 2 (Lebedev-110)
Angular grid pruning method      GridPruning ... 4 (adaptive)
Weight generation scheme         WeightScheme... mBecke (2022)
Basis function cutoff            BFCut       ... 1.0000e-11
Integration weight cutoff        WCut        ... 1.0000e-14
Partially contracted basis set               ... on
Rotationally invariant grid construction     ... off
Angular grids for H and He will be reduced by one unit

Total number of grid points                  ...    43338
Total number of batches                      ...      359
Average number of points per batch           ...      120
Average number of grid points per atom       ...     1111
UseSFitting                                  ... on

GRIDX 3
-------
General Integration Accuracy     IntAcc      ... 4.338
Radial Grid Type                 RadialGrid  ... OptM3 with GC (2021)
Angular Grid (max. ang.)         AngularGrid ... 3 (Lebedev-194)
Angular grid pruning method      GridPruning ... 4 (adaptive)
Weight generation scheme         WeightScheme... mBecke (2022)
Basis function cutoff            BFCut       ... 1.0000e-11
Integration weight cutoff        WCut        ... 1.0000e-14
Partially contracted basis set               ... on
Rotationally invariant grid construction     ... off
Angular grids for H and He will be reduced by one unit

Total number of grid points                  ...    94024
Total number of batches                      ...      755
Average number of points per batch           ...      124
Average number of grid points per atom       ...     2411
UseSFitting                                  ... on
Initializing property integral containers    ... done (  0.0 sec)

SHARK setup successfully completed in   5.3 seconds

Maximum memory used throughout the entire STARTUP-calculation: 52.2 MB


           ************************************************************
           *        Program running with 40 parallel MPI-processes    *
           *              working on a common directory               *
           ************************************************************
-------------------------------------------------------------------------------
                                 ORCA GUESS
                   Start orbitals & Density for SCF / CASSCF
-------------------------------------------------------------------------------

------------
SCF SETTINGS
------------
Hamiltonian:
 Density Functional     Method          .... DFT(GTOs)
 Exchange Functional    Exchange        .... WB97X-V
 Correlation Functional Correlation     .... WB97X-V
 Gradients option       PostSCFGGA      .... off
 Hybrid DFT is turned on
   Fraction HF Exchange ScalHFX         ....  0.167000
   Scaling of DF-GGA-X  ScalDFX         ....  0.000000
   Scaling of DF-GGA-C  ScalDFC         ....  1.000000
   Scaling of DF-LDA-C  ScalLDAC        ....  1.000000
   Perturbative correction              ....  0.000000
 Long-range corrected/Screened/Range-Separated Hybrid DFT is turned on
   Amount of maximum screened exact exchange              ....  0.833000
   Range separation parameter mu (erf(mu*r12)/r12)        ....  0.300000
   NL short-range parameter             ....  6.000000
   NL long-range parameter              ....  0.010000
 RI-approximation to the Coulomb term is turned on
   Number of AuxJ basis functions       .... 999
   RIJ-COSX (HFX calculated with COS-X)).... on


General Settings:
 Integral files         IntName         .... ./output/allo_aromadendrene/allo_aromadendrene
 Hartree-Fock type      HFTyp           .... RHF
 Total Charge           Charge          ....    0
 Multiplicity           Mult            ....    1
 Number of Electrons    NEL             ....   84
 Basis Dimension        Dim             ....  315
 Nuclear Repulsion      ENuc            ....    578.2901067041 Eh

Convergence Acceleration:
 AO-DIIS                CNVDIIS         .... on
   Start iteration      DIISMaxIt       ....    12
   Startup error        DIISStart       ....  0.200000
   # of expansion vecs  DIISMaxEq       ....     5
   Bias factor          DIISBfac        ....   1.050
   Max. coefficient     DIISMaxC        ....  10.000
 MO-DIIS                CNVKDIIS        .... off
 Trust-Rad. Augm. Hess. CNVTRAH         .... auto
   Auto Start mean grad. ratio tolernc. ....  1.125000
   Auto Start start iteration           ....    50
   Auto Start num. interpolation iter.  ....    10
   Max. Number of Micro iterations      ....    24
   Max. Number of Macro iterations      .... Maxiter - #DIIS iter
   Number of Davidson start vectors     ....     2
   Converg. threshold    (grad. norm)   ....   1.000e-05
   Grad. Scal. Fac. for Micro threshold ....   0.100
   Minimum threshold for Micro iter.    ....   1.000e-02
   NR start threshold (gradient norm)   ....   1.000e-04
   Initial trust radius                 ....   0.400
   Minimum AH scaling param. (alpha)    ....   1.000
   Maximum AH scaling param. (alpha)    .... 1000.000
   Quad. conv. algorithm                .... NR
   White noise on init. David. guess    .... on
   Maximum white noise                  ....   0.010
   Pseudo random numbers                .... off
   Inactive MOs                         .... canonical
   Orbital update algorithm             .... Taylor
   Preconditioner                       .... Diag
   Full preconditioner red. dimension   ....   250
 SOSCF                  CNVSOSCF        .... on
   Start iteration      SOSCFMaxIt      ....   150
   Startup grad/error   SOSCFStart      ....  0.003300
   Hessian update       SOSCFHessUp     .... L-BFGS
 Level Shifting         CNVShift        .... on
   Level shift para.    LevelShift      ....    0.2500
   Turn off err/grad.   ShiftErr        ....    0.0010
 Zerner damping         CNVZerner       .... off
 Static damping         CNVDamp         .... on
   Fraction old density DampFac         ....    0.7000
   Max. Damping (<1)    DampMax         ....    0.9800
   Min. Damping (>=0)   DampMin         ....    0.0000
   Turn off err/grad.   DampErr         ....    0.1000

SCF Procedure:
 Maximum # iterations   MaxIter         ....   125
 SCF integral mode      SCFMode         .... Direct
   Integral package                     .... SHARK and LIBINT hybrid scheme
 Reset frequency        DirectResetFreq ....    20
 Integral Threshold     Thresh          ....  2.500e-11 Eh
 Primitive CutOff       TCut            ....  2.500e-12 Eh

Convergence Tolerance:
 Convergence Check Mode ConvCheckMode   .... Total+1el-Energy
 Convergence forced     ConvForced      .... 0
 Energy Change          TolE            ....  1.000e-08 Eh
 1-El. energy change                    ....  1.000e-05 Eh
 Orbital Gradient       TolG            ....  1.000e-05
 Orbital Rotation angle TolX            ....  1.000e-05
 DIIS Error             TolErr          ....  5.000e-07

------------------------------
INITIAL GUESS: MODEL POTENTIAL
------------------------------
Loading Hartree-Fock densities                     ... done
Atomic calculation to generate a density for atom 0 (C  with ECP)
  Multiplicity assumed   :    1
  Atomic configuration   : 1s2 2s2 2p2 
  Number of open shells  : 1
  Command: /home/aspe232/Project/Software/ORCA/6_0_1/build/orca ./output/allo_aromadendrene/allo_aromadendrene_atom6.inp "" > ./output/allo_aromadendrene/allo_aromadendrene_atom6.out
Returned from the atomic calculation with res=0
Calculating cut-offs                               ... done
Initializing the effective Hamiltonian             ... done
Setting up the integral package (SHARK)            ... done
Starting the Coulomb interaction                   ... done (   0.1 sec)
Making the grid                                    ... done (   1.2 sec)
Mapping shells                                     ... done
Starting the XC term evaluation                    ... done (   0.1 sec)
  promolecular density results
     # of electrons  =    113.987450043
     EX              =    -55.400039266
     EC              =     -4.570379096
     EX+EC           =    -59.970418362
Transforming the Hamiltonian                       ... done (   0.0 sec)
Diagonalizing the Hamiltonian                      ... done (   0.0 sec)
Back transforming the eigenvectors                 ... done (   0.0 sec)
Now organizing SCF variables                       ... done
                      ------------------
                      INITIAL GUESS DONE (   1.9 sec)
                      ------------------
             **** ENERGY FILE WAS UPDATED (./output/allo_aromadendrene/allo_aromadendrene.en.tmp) ****
Finished Guess after   2.9 sec
Maximum memory used throughout the entire GUESS-calculation: 34.9 MB


           ************************************************************
           *        Program running with 40 parallel MPI-processes    *
           *              working on a common directory               *
           ************************************************************

-------------------------------------------------------------------------------------------
                                      ORCA LEAN-SCF
                              memory conserving SCF solver
-------------------------------------------------------------------------------------------

----------------------------------------D-I-I-S--------------------------------------------
Iteration    Energy (Eh)           Delta-E    RMSDP     MaxDP     DIISErr   Damp  Time(sec)
-------------------------------------------------------------------------------------------
               ***  Starting incremental Fock matrix formation  ***
    1    -99.1606500529107961     0.00e+00  3.44e-03  7.37e-02  1.92e-01  0.700   8.5
    2    -99.4324861034542664    -2.72e-01  2.51e-03  5.41e-02  1.16e-01  0.700   6.8
                               ***Turning on AO-DIIS***
    3    -99.5729880927605109    -1.41e-01  1.30e-03  2.90e-02  6.14e-02  0.700   6.0
    4    -99.6556199696623253    -8.26e-02  2.81e-03  5.95e-02  3.86e-02  0.000   5.9
    5    -99.8290911569122272    -1.73e-01  2.18e-04  6.10e-03  5.68e-03  0.000   6.2
                              *** Initializing SOSCF ***
---------------------------------------S-O-S-C-F--------------------------------------
Iteration    Energy (Eh)           Delta-E    RMSDP     MaxDP     MaxGrad    Time(sec)
--------------------------------------------------------------------------------------
    6    -99.8295836740750246    -4.93e-04  1.04e-04  1.77e-03  1.27e-03     5.9
               *** Restarting incremental Fock matrix formation ***
    7    -99.8296271860209572    -4.35e-05  5.79e-05  1.25e-03  2.03e-04     8.4
    8    -99.8296391178324711    -1.19e-05  3.38e-05  7.71e-04  2.92e-04     7.8
    9    -99.8296428001041249    -3.68e-06  1.06e-05  1.76e-04  5.83e-05     7.3
   10    -99.8296430825807874    -2.82e-07  2.32e-06  4.74e-05  1.46e-05     7.0
   11    -99.8296430969993480    -1.44e-08  8.58e-07  1.98e-05  4.94e-06     6.5
   12    -99.8296431074854809    -1.05e-08  2.35e-07  9.23e-06  2.52e-06     6.1
   13    -99.8296430995741275     7.91e-09  1.08e-07  2.92e-06  6.38e-07     5.3
                 **** Energy Check signals convergence ****

               *****************************************************
               *                     SUCCESS                       *
               *           SCF CONVERGED AFTER  13 CYCLES          *
               *****************************************************

Recomputing exchange energy using gridx3       ... done (    9.795 sec)
Old exchange energy                            :    -15.887708221 Eh
New exchange energy                            :    -15.887687413 Eh
Exchange energy change after final integration :      0.000020808 Eh
Total energy after final integration           :    -99.829622292 Eh
             **** ENERGY FILE WAS UPDATED (./output/allo_aromadendrene/allo_aromadendrene.en.tmp) ****

----------------
TOTAL SCF ENERGY
----------------

Total Energy       :        -99.82962229155093 Eh           -2716.50213 eV

Components:
Nuclear Repulsion  :        578.29010670406035 Eh           15736.07381 eV
Electronic Energy  :       -678.11974980363448 Eh          -18452.57650 eV
One Electron Energy:      -1295.45183160898955 Eh          -35251.03647 eV
Two Electron Energy:        617.33208180535507 Eh           16798.45996 eV

Virial components:
Potential Energy   :       -177.74609055603332 Eh           -4836.71702 eV
Kinetic Energy     :         77.91646826448239 Eh            2120.21489 eV
Virial Ratio       :          2.28123905658411

DFT components:
N(Alpha)           :       42.000161425885 electrons
N(Beta)            :       42.000161425885 electrons
N(Total)           :       84.000322851770 electrons
E(X)               :      -16.081080516659 Eh       
E(C)               :       -3.145764572860 Eh       
E(XC)              :      -19.226845089519 Eh       

---------------
SCF CONVERGENCE
---------------

  Last Energy change         ...   -7.9114e-09  Tolerance :   1.0000e-08
  Last MAX-Density change    ...    2.9164e-06  Tolerance :   1.0000e-07
  Last RMS-Density change    ...    1.0840e-07  Tolerance :   5.0000e-09
  Last DIIS Error            ...    1.2653e-03  Tolerance :   5.0000e-07
  Last Orbital Gradient      ...    6.3813e-07  Tolerance :   1.0000e-05
  Last Orbital Rotation      ...    1.1366e-06  Tolerance :   1.0000e-05


----------------
ORBITAL ENERGIES
----------------

  NO   OCC          E(Eh)            E(eV) 
   0   2.0000      -1.016316       -27.6554 
   1   2.0000      -0.979621       -26.6568 
   2   2.0000      -0.939563       -25.5668 
   3   2.0000      -0.885954       -24.1080 
   4   2.0000      -0.865918       -23.5628 
   5   2.0000      -0.861013       -23.4294 
   6   2.0000      -0.821592       -22.3567 
   7   2.0000      -0.818187       -22.2640 
   8   2.0000      -0.779937       -21.2232 
   9   2.0000      -0.750877       -20.4324 
  10   2.0000      -0.713808       -19.4237 
  11   2.0000      -0.687290       -18.7021 
  12   2.0000      -0.678722       -18.4690 
  13   2.0000      -0.655792       -17.8450 
  14   2.0000      -0.615764       -16.7558 
  15   2.0000      -0.595294       -16.1988 
  16   2.0000      -0.587176       -15.9779 
  17   2.0000      -0.568028       -15.4568 
  18   2.0000      -0.561791       -15.2871 
  19   2.0000      -0.555591       -15.1184 
  20   2.0000      -0.545273       -14.8376 
  21   2.0000      -0.539430       -14.6786 
  22   2.0000      -0.522425       -14.2159 
  23   2.0000      -0.510794       -13.8994 
  24   2.0000      -0.501207       -13.6385 
  25   2.0000      -0.498225       -13.5574 
  26   2.0000      -0.491108       -13.3637 
  27   2.0000      -0.485993       -13.2245 
  28   2.0000      -0.479584       -13.0502 
  29   2.0000      -0.473545       -12.8858 
  30   2.0000      -0.464182       -12.6310 
  31   2.0000      -0.456288       -12.4162 
  32   2.0000      -0.441247       -12.0069 
  33   2.0000      -0.436092       -11.8667 
  34   2.0000      -0.429787       -11.6951 
  35   2.0000      -0.421160       -11.4603 
  36   2.0000      -0.415730       -11.3126 
  37   2.0000      -0.412665       -11.2292 
  38   2.0000      -0.410012       -11.1570 
  39   2.0000      -0.362097        -9.8532 
  40   2.0000      -0.341575        -9.2947 
  41   2.0000      -0.318694        -8.6721 
  42   0.0000       0.072185         1.9643 
  43   0.0000       0.088474         2.4075 
  44   0.0000       0.094725         2.5776 
  45   0.0000       0.096557         2.6274 
  46   0.0000       0.106643         2.9019 
  47   0.0000       0.114337         3.1113 
  48   0.0000       0.117841         3.2066 
  49   0.0000       0.119181         3.2431 
  50   0.0000       0.128404         3.4941 
  51   0.0000       0.131184         3.5697 
  52   0.0000       0.143086         3.8936 
*Only the first 10 virtual orbitals were printed.

                    ********************************
                    * MULLIKEN POPULATION ANALYSIS *
                    ********************************

-----------------------
MULLIKEN ATOMIC CHARGES
-----------------------
   0 C :   -0.069509
   1 C :   -0.056178
   2 C :   -0.042755
   3 C :   -0.055739
   4 C :   -0.080330
   5 C :   -0.090292
   6 C :   -0.026541
   7 C :   -0.057528
   8 C :   -0.093024
   9 C :   -0.047891
  10 C :   -0.048928
  11 C :   -0.051130
  12 C :   -0.044557
  13 C :   -0.084236
  14 C :   -0.012217
  15 H :    0.023239
  16 H :    0.035815
  17 H :    0.033608
  18 H :    0.039267
  19 H :    0.040790
  20 H :    0.025900
  21 H :    0.036984
  22 H :    0.049364
  23 H :    0.053396
  24 H :    0.030309
  25 H :    0.051430
  26 H :    0.042596
  27 H :    0.043740
  28 H :    0.031864
  29 H :    0.034842
  30 H :    0.031630
  31 H :    0.036080
  32 H :    0.039477
  33 H :    0.035936
  34 H :    0.032394
  35 H :    0.037243
  36 H :    0.038325
  37 H :    0.018651
  38 H :    0.017974
Sum of atomic charges:    0.0000000

--------------------------------
MULLIKEN REDUCED ORBITAL CHARGES
--------------------------------
  0 C s       :     0.961347  s :     0.961347
      pz      :     1.020066  p :     3.033357
      px      :     1.035273
      py      :     0.978017
      dz2     :     0.023776  d :     0.074804
      dxz     :     0.005885
      dyz     :     0.010687
      dx2y2   :     0.014208
      dxy     :     0.020249

  1 C s       :     1.043787  s :     1.043787
      pz      :     1.030709  p :     2.889300
      px      :     0.925495
      py      :     0.933096
      dz2     :     0.032168  d :     0.123091
      dxz     :     0.015509
      dyz     :     0.016719
      dx2y2   :     0.029250
      dxy     :     0.029446

  2 C s       :     0.990379  s :     0.990379
      pz      :     1.031001  p :     2.951020
      px      :     0.970366
      py      :     0.949653
      dz2     :     0.020457  d :     0.101357
      dxz     :     0.017866
      dyz     :     0.017064
      dx2y2   :     0.023138
      dxy     :     0.022832

  3 C s       :     0.993664  s :     0.993664
      pz      :     1.028655  p :     2.962239
      px      :     0.964427
      py      :     0.969157
      dz2     :     0.023122  d :     0.099835
      dxz     :     0.014989
      dyz     :     0.015668
      dx2y2   :     0.022788
      dxy     :     0.023269

  4 C s       :     1.039502  s :     1.039502
      pz      :     1.044320  p :     2.924035
      px      :     0.940470
      py      :     0.939245
      dz2     :     0.030343  d :     0.116793
      dxz     :     0.014493
      dyz     :     0.015095
      dx2y2   :     0.027055
      dxy     :     0.029808

  5 C s       :     1.037323  s :     1.037323
      pz      :     1.012084  p :     2.931162
      px      :     0.956433
      py      :     0.962645
      dz2     :     0.023480  d :     0.121808
      dxz     :     0.025812
      dyz     :     0.018471
      dx2y2   :     0.020597
      dxy     :     0.033448

  6 C s       :     1.043574  s :     1.043574
      pz      :     0.986454  p :     2.868553
      px      :     0.806481
      py      :     1.075619
      dz2     :     0.019838  d :     0.114414
      dxz     :     0.030674
      dyz     :     0.017909
      dx2y2   :     0.020975
      dxy     :     0.025018

  7 C s       :     1.055317  s :     1.055317
      pz      :     0.971794  p :     2.885934
      px      :     1.056005
      py      :     0.858135
      dz2     :     0.027499  d :     0.116277
      dxz     :     0.013385
      dyz     :     0.025780
      dx2y2   :     0.024069
      dxy     :     0.025544

  8 C s       :     1.104404  s :     1.104404
      pz      :     0.973273  p :     2.838182
      px      :     0.929191
      py      :     0.935718
      dz2     :     0.026737  d :     0.150438
      dxz     :     0.026061
      dyz     :     0.033504
      dx2y2   :     0.035290
      dxy     :     0.028846

  9 C s       :     0.955954  s :     0.955954
      pz      :     0.969853  p :     3.017472
      px      :     1.019212
      py      :     1.028407
      dz2     :     0.014096  d :     0.074465
      dxz     :     0.011508
      dyz     :     0.024022
      dx2y2   :     0.016649
      dxy     :     0.008190

 10 C s       :     0.954945  s :     0.954945
      pz      :     1.010254  p :     3.019158
      px      :     1.034049
      py      :     0.974855
      dz2     :     0.013094  d :     0.074825
      dxz     :     0.011590
      dyz     :     0.018591
      dx2y2   :     0.024014
      dxy     :     0.007536

 11 C s       :     1.003315  s :     1.003315
      pz      :     1.013765  p :     2.943043
      px      :     0.982080
      py      :     0.947199
      dz2     :     0.026877  d :     0.104771
      dxz     :     0.012274
      dyz     :     0.013941
      dx2y2   :     0.020608
      dxy     :     0.031071

 12 C s       :     0.998640  s :     0.998640
      pz      :     1.008384  p :     2.946447
      px      :     0.913248
      py      :     1.024815
      dz2     :     0.028893  d :     0.099470
      dxz     :     0.017655
      dyz     :     0.006567
      dx2y2   :     0.029241
      dxy     :     0.017114

 13 C s       :     1.087879  s :     1.087879
      pz      :     0.963908  p :     2.879903
      px      :     0.953301
      py      :     0.962694
      dz2     :     0.023148  d :     0.116453
      dxz     :     0.017215
      dyz     :     0.017279
      dx2y2   :     0.029512
      dxy     :     0.029300

 14 C s       :     0.979922  s :     0.979922
      pz      :     0.992476  p :     2.967613
      px      :     0.984525
      py      :     0.990612
      dz2     :     0.010972  d :     0.064682
      dxz     :     0.008700
      dyz     :     0.008529
      dx2y2   :     0.023232
      dxy     :     0.013248

 15 H s       :     0.931936  s :     0.931936
      pz      :     0.011269  p :     0.044825
      px      :     0.022127
      py      :     0.011429

 16 H s       :     0.920888  s :     0.920888
      pz      :     0.010966  p :     0.043297
      px      :     0.015427
      py      :     0.016904

 17 H s       :     0.923172  s :     0.923172
      pz      :     0.023479  p :     0.043220
      px      :     0.010339
      py      :     0.009402

 18 H s       :     0.920807  s :     0.920807
      pz      :     0.022171  p :     0.039926
      px      :     0.008974
      py      :     0.008781

 19 H s       :     0.916736  s :     0.916736
      pz      :     0.014118  p :     0.042474
      px      :     0.016026
      py      :     0.012330

 20 H s       :     0.932380  s :     0.932380
      pz      :     0.021649  p :     0.041721
      px      :     0.009651
      py      :     0.010421

 21 H s       :     0.920417  s :     0.920417
      pz      :     0.022666  p :     0.042599
      px      :     0.008979
      py      :     0.010954

 22 H s       :     0.908636  s :     0.908636
      pz      :     0.012697  p :     0.042000
      px      :     0.017324
      py      :     0.011979

 23 H s       :     0.905772  s :     0.905772
      pz      :     0.022276  p :     0.040832
      px      :     0.009437
      py      :     0.009119

 24 H s       :     0.929136  s :     0.929136
      pz      :     0.019623  p :     0.040555
      px      :     0.011095
      py      :     0.009837

 25 H s       :     0.904121  s :     0.904121
      pz      :     0.019754  p :     0.044450
      px      :     0.010202
      py      :     0.014494

 26 H s       :     0.912918  s :     0.912918
      pz      :     0.022795  p :     0.044485
      px      :     0.012451
      py      :     0.009240

 27 H s       :     0.913201  s :     0.913201
      pz      :     0.009772  p :     0.043059
      px      :     0.022440
      py      :     0.010848

 28 H s       :     0.922904  s :     0.922904
      pz      :     0.013931  p :     0.045232
      px      :     0.012604
      py      :     0.018697

 29 H s       :     0.921741  s :     0.921741
      pz      :     0.015190  p :     0.043417
      px      :     0.010031
      py      :     0.018195

 30 H s       :     0.923146  s :     0.923146
      pz      :     0.021014  p :     0.045224
      px      :     0.013647
      py      :     0.010563

 31 H s       :     0.920742  s :     0.920742
      pz      :     0.010414  p :     0.043179
      px      :     0.023052
      py      :     0.009712

 32 H s       :     0.916937  s :     0.916937
      pz      :     0.014329  p :     0.043586
      px      :     0.010571
      py      :     0.018686

 33 H s       :     0.921492  s :     0.921492
      pz      :     0.022899  p :     0.042573
      px      :     0.009758
      py      :     0.009916

 34 H s       :     0.925488  s :     0.925488
      pz      :     0.009848  p :     0.042118
      px      :     0.018998
      py      :     0.013272

 35 H s       :     0.920173  s :     0.920173
[...]
 81:   1510.47   0.000266    1.35  0.000055  ( 0.006978 -0.002523  0.000046)
 82:   1516.60   0.000687    3.47  0.000141  ( 0.000372 -0.010725  0.005122)
 83:   1518.93   0.001718    8.68  0.000353  ( 0.008311 -0.007308  0.015181)
 84:   1522.20   0.000962    4.86  0.000197  (-0.011374  0.006368 -0.005221)
 85:   1525.57   0.002057   10.39  0.000421  ( 0.004739  0.019023  0.006029)
 86:   1525.97   0.001520    7.68  0.000311  ( 0.012319  0.004927 -0.011611)
 87:   1528.89   0.001098    5.55  0.000224  (-0.011864  0.001881  0.008936)
 88:   1529.29   0.002754   13.92  0.000562  (-0.000505 -0.005392 -0.023079)
 89:   1532.94   0.001650    8.34  0.000336  ( 0.009347  0.014817 -0.005385)
 90:   1546.11   0.001724    8.71  0.000348  (-0.018095  0.003557 -0.002814)
 91:   1586.48   0.000181    0.91  0.000036  (-0.003326 -0.004701 -0.001566)
 92:   1760.65   0.005052   25.53  0.000895  (-0.018744  0.015778  0.017178)
 93:   3068.19   0.001064    5.37  0.000108  ( 0.003134 -0.004930 -0.008605)
 94:   3084.60   0.000800    4.04  0.000081  (-0.001934  0.002468  0.008434)
 95:   3089.50   0.004135   20.90  0.000418  ( 0.006223 -0.016754  0.009911)
 96:   3091.98   0.000777    3.93  0.000078  (-0.006237  0.006171  0.001188)
 97:   3092.36   0.005418   27.38  0.000547  (-0.000552 -0.001684 -0.023316)
 98:   3094.28   0.010309   52.10  0.001040  (-0.022793 -0.010740 -0.020121)
 99:   3095.64   0.019936  100.75  0.002010  (-0.010046  0.043583  0.003050)
100:   3101.67   0.010911   55.14  0.001098  ( 0.026807  0.019115  0.003706)
101:   3114.75   0.005656   28.58  0.000567  ( 0.016576  0.001750 -0.016995)
102:   3140.44   0.008483   42.87  0.000843  ( 0.016869 -0.008683  0.021977)
103:   3151.62   0.003809   19.25  0.000377  ( 0.004109  0.018982 -0.000112)
104:   3156.94   0.004835   24.43  0.000478  (-0.021067 -0.002598  0.005231)
105:   3159.56   0.001519    7.67  0.000150  (-0.000223  0.011681  0.003675)
106:   3169.51   0.005671   28.66  0.000558  ( 0.005376  0.000336 -0.023008)
107:   3174.15   0.000573    2.90  0.000056  ( 0.005272  0.002976 -0.004441)
108:   3175.76   0.007533   38.07  0.000740  ( 0.018184  0.016486 -0.011738)
109:   3176.86   0.003819   19.30  0.000375  (-0.002130  0.000969  0.019227)
110:   3183.81   0.003795   19.18  0.000372  ( 0.017964  0.006668  0.002185)
111:   3187.02   0.002123   10.73  0.000208  (-0.004334  0.001715  0.013645)
112:   3197.57   0.004090   20.67  0.000399  (-0.013905  0.004756 -0.013534)
113:   3198.24   0.002230   11.27  0.000218  ( 0.003255 -0.000462 -0.014380)
114:   3201.10   0.004574   23.11  0.000446  (-0.011240  0.013804  0.011357)
115:   3211.32   0.002959   14.95  0.000288  (-0.009021  0.008269  0.011737)
116:   3301.42   0.001602    8.10  0.000151  (-0.007806 -0.009371 -0.001648)

* The epsilon (eps) is given for a Dirac delta lineshape.
** The dipole moment derivative (T) already includes vibrational overlap.

The first frequency considered to be a vibration is 6
The total number of vibrations considered is 111


--------------------------
THERMOCHEMISTRY AT 298.15K
--------------------------

Temperature         ...   298.15 K
Pressure            ...     1.00 atm
Total Mass          ...   204.36 AMU
Quasi RRHO          ...     True
Cut-Off Frequency   ...     1.00 cm^-1

Throughout the following assumptions are being made:
  (1) The electronic state is orbitally nondegenerate
  (2) There are no thermally accessible electronically excited states
  (3) Hindered rotations indicated by low frequency modes are not
      treated as such but are treated as vibrations and this may
      cause some error
  (4) All equations used are the standard statistical mechanics
      equations for an ideal gas
  (5) All vibrations are strictly harmonic

freq.      35.63  E(vib)   ...       0.54 
freq.     103.47  E(vib)   ...       0.46 
freq.     122.40  E(vib)   ...       0.43 
freq.     137.60  E(vib)   ...       0.42 
freq.     145.30  E(vib)   ...       0.41 
freq.     172.70  E(vib)   ...       0.38 
freq.     206.45  E(vib)   ...       0.35 
freq.     219.61  E(vib)   ...       0.33 
freq.     236.05  E(vib)   ...       0.32 
freq.     245.34  E(vib)   ...       0.31 
freq.     271.55  E(vib)   ...       0.29 
freq.     286.10  E(vib)   ...       0.27 
freq.     330.03  E(vib)   ...       0.24 
freq.     350.03  E(vib)   ...       0.23 
freq.     374.01  E(vib)   ...       0.21 
freq.     375.16  E(vib)   ...       0.21 
freq.     424.52  E(vib)   ...       0.18 
freq.     447.21  E(vib)   ...       0.17 
freq.     465.69  E(vib)   ...       0.16 
freq.     481.92  E(vib)   ...       0.15 
freq.     542.98  E(vib)   ...       0.12 
freq.     547.30  E(vib)   ...       0.12 
freq.     584.95  E(vib)   ...       0.11 
freq.     640.36  E(vib)   ...       0.09 
freq.     718.95  E(vib)   ...       0.07 
freq.     747.47  E(vib)   ...       0.06 
freq.     764.89  E(vib)   ...       0.06 
freq.     778.97  E(vib)   ...       0.05 
freq.     848.51  E(vib)   ...       0.04 
freq.     860.76  E(vib)   ...       0.04 
freq.     883.55  E(vib)   ...       0.04 
freq.     905.05  E(vib)   ...       0.03 
freq.     935.80  E(vib)   ...       0.03 
freq.     941.56  E(vib)   ...       0.03 
freq.     960.14  E(vib)   ...       0.03 
freq.     983.25  E(vib)   ...       0.02 
freq.     985.90  E(vib)   ...       0.02 
freq.     993.17  E(vib)   ...       0.02 
freq.    1010.13  E(vib)   ...       0.02 
freq.    1015.78  E(vib)   ...       0.02 
freq.    1028.88  E(vib)   ...       0.02 
freq.    1038.11  E(vib)   ...       0.02 
freq.    1052.14  E(vib)   ...       0.02 
freq.    1064.45  E(vib)   ...       0.02 
freq.    1088.37  E(vib)   ...       0.02 
freq.    1108.22  E(vib)   ...       0.02 
freq.    1126.01  E(vib)   ...       0.01 
freq.    1153.25  E(vib)   ...       0.01 
freq.    1160.99  E(vib)   ...       0.01 
freq.    1174.36  E(vib)   ...       0.01 
freq.    1180.14  E(vib)   ...       0.01 
freq.    1201.31  E(vib)   ...       0.01 
freq.    1213.69  E(vib)   ...       0.01 
freq.    1221.39  E(vib)   ...       0.01 
freq.    1257.08  E(vib)   ...       0.01 
freq.    1259.74  E(vib)   ...       0.01 
freq.    1262.23  E(vib)   ...       0.01 
freq.    1286.46  E(vib)   ...       0.01 
freq.    1295.20  E(vib)   ...       0.01 
freq.    1316.14  E(vib)   ...       0.01 
freq.    1326.42  E(vib)   ...       0.01 
freq.    1337.51  E(vib)   ...       0.01 
freq.    1353.55  E(vib)   ...       0.01 
freq.    1359.91  E(vib)   ...       0.01 
freq.    1363.98  E(vib)   ...       0.01 
freq.    1376.66  E(vib)   ...       0.01 
freq.    1393.61  E(vib)   ...       0.00 
freq.    1404.52  E(vib)   ...       0.00 
freq.    1421.40  E(vib)   ...       0.00 
freq.    1426.75  E(vib)   ...       0.00 
freq.    1445.93  E(vib)   ...       0.00 
freq.    1451.53  E(vib)   ...       0.00 
freq.    1456.38  E(vib)   ...       0.00 
freq.    1469.38  E(vib)   ...       0.00 
freq.    1474.17  E(vib)   ...       0.00 
freq.    1510.47  E(vib)   ...       0.00 
freq.    1516.60  E(vib)   ...       0.00 
freq.    1518.93  E(vib)   ...       0.00 
freq.    1522.20  E(vib)   ...       0.00 
freq.    1525.57  E(vib)   ...       0.00 
freq.    1525.97  E(vib)   ...       0.00 
freq.    1528.89  E(vib)   ...       0.00 
freq.    1529.29  E(vib)   ...       0.00 
freq.    1532.94  E(vib)   ...       0.00 
freq.    1546.11  E(vib)   ...       0.00 
freq.    1586.48  E(vib)   ...       0.00 
freq.    1760.65  E(vib)   ...       0.00 
freq.    3068.19  E(vib)   ...       0.00 
freq.    3084.60  E(vib)   ...       0.00 
freq.    3089.50  E(vib)   ...       0.00 
freq.    3091.98  E(vib)   ...       0.00 
freq.    3092.36  E(vib)   ...       0.00 
freq.    3094.28  E(vib)   ...       0.00 
freq.    3095.64  E(vib)   ...       0.00 
freq.    3101.67  E(vib)   ...       0.00 
freq.    3114.75  E(vib)   ...       0.00 
freq.    3140.44  E(vib)   ...       0.00 
freq.    3151.62  E(vib)   ...       0.00 
freq.    3156.94  E(vib)   ...       0.00 
freq.    3159.56  E(vib)   ...       0.00 
freq.    3169.51  E(vib)   ...       0.00 
freq.    3174.15  E(vib)   ...       0.00 
freq.    3175.76  E(vib)   ...       0.00 
freq.    3176.86  E(vib)   ...       0.00 
freq.    3183.81  E(vib)   ...       0.00 
freq.    3187.02  E(vib)   ...       0.00 
freq.    3197.57  E(vib)   ...       0.00 
freq.    3198.24  E(vib)   ...       0.00 
freq.    3201.10  E(vib)   ...       0.00 
freq.    3211.32  E(vib)   ...       0.00 
freq.    3301.42  E(vib)   ...       0.00 

------------
INNER ENERGY
------------

The inner energy is: U= E(el) + E(ZPE) + E(vib) + E(rot) + E(trans)
    E(el)   - is the total energy from the electronic structure calculation
              = E(kin-el) + E(nuc-el) + E(el-el) + E(nuc-nuc)
    E(ZPE)  - the the zero temperature vibrational energy from the frequency calculation
    E(vib)  - the the finite temperature correction to E(ZPE) due to population
              of excited vibrational states
    E(rot)  - is the rotational thermal energy
    E(trans)- is the translational thermal energy

Summary of contributions to the inner energy U:
Electronic energy                ...    -99.91285300 Eh
Zero point energy                ...      0.36644893 Eh     229.95 kcal/mol
Thermal vibrational correction   ...      0.01182259 Eh       7.42 kcal/mol
Thermal rotational correction    ...      0.00141627 Eh       0.89 kcal/mol
Thermal translational correction ...      0.00141627 Eh       0.89 kcal/mol
-----------------------------------------------------------------------
Total thermal energy                    -99.53174894 Eh


Summary of corrections to the electronic energy:
(perhaps to be used in another calculation)
Total thermal correction                  0.01465513 Eh       9.20 kcal/mol
Non-thermal (ZPE) correction              0.36644893 Eh     229.95 kcal/mol
-----------------------------------------------------------------------
Total correction                          0.38110406 Eh     239.15 kcal/mol


--------
ENTHALPY
--------

The enthalpy is H = U + kB*T
                kB is Boltzmann's constant
Total thermal energy              ...    -99.53174894 Eh 
Thermal Enthalpy correction       ...      0.00094421 Eh       0.59 kcal/mol
-----------------------------------------------------------------------
Total Enthalpy                    ...    -99.53080473 Eh


Note: Only C1 symmetry has been detected, increase convergence thresholds 
      if your molecule has a higher symmetry. Symmetry factor of 1.0 is   
      used for the rotational entropy correction. 
 

Note: Rotational entropy computed according to Herzberg 
Infrared and Raman Spectra, Chapter V,1, Van Nostrand Reinhold, 1945 
Point Group:  C1, Symmetry Number:   1  
Rotational constants in cm-1:     0.025403     0.019587     0.013015 

Vibrational entropy computed according to the QRRHO of S. Grimme
Chem.Eur.J. 2012 18 9955 using a reference frequency of 100.0 cm-1


-------
ENTROPY
-------

The entropy contributions are T*S = T*(S(el)+S(vib)+S(rot)+S(trans))
     S(el)   - electronic entropy
     S(vib)  - vibrational entropy
     S(rot)  - rotational entropy
     S(trans)- translational entropy
The entropies will be listed as multiplied by the temperature to get
units of energy

Electronic entropy                ...      0.00000000 Eh      0.00 kcal/mol
Vibrational entropy               ...      0.01998094 Eh     12.54 kcal/mol
Rotational entropy                ...      0.01515109 Eh      9.51 kcal/mol
Translational entropy             ...      0.01988345 Eh     12.48 kcal/mol
-----------------------------------------------------------------------
Final entropy term                ...      0.05501548 Eh     34.52 kcal/mol

In case the symmetry of your molecule has not been determined correctly
or in case you have a reason to use a different symmetry number we print 
out the resulting rotational entropy values for sn=1,12:

 non-linear molecules -----------------------------------
|  sn= 1 | S(rot)=       0.01515109 Eh      9.51 kcal/mol|
|  sn= 2 | S(rot)=       0.01449663 Eh      9.10 kcal/mol|
|  sn= 3 | S(rot)=       0.01411380 Eh      8.86 kcal/mol|
|  sn= 4 | S(rot)=       0.01384218 Eh      8.69 kcal/mol|
|  sn= 5 | S(rot)=       0.01363149 Eh      8.55 kcal/mol|
|  sn= 6 | S(rot)=       0.01345935 Eh      8.45 kcal/mol|
|  sn= 7 | S(rot)=       0.01331380 Eh      8.35 kcal/mol|
|  sn= 8 | S(rot)=       0.01318772 Eh      8.28 kcal/mol|
|  sn= 9 | S(rot)=       0.01307651 Eh      8.21 kcal/mol|
|  sn=10 | S(rot)=       0.01297703 Eh      8.14 kcal/mol|
|  sn=11 | S(rot)=       0.01288704 Eh      8.09 kcal/mol|
|  sn=12 | S(rot)=       0.01280489 Eh      8.04 kcal/mol|
 linear molecules ---------------------------------------
|  Dinfh | S(rot)=       0.00942513 Eh      5.91 kcal/mol|
|  Cinfv | S(rot)=       0.01007958 Eh      6.33 kcal/mol|
 --------------------------------------------------------


-------------------
GIBBS FREE ENERGY
-------------------

The Gibbs free energy is G = H - T*S

Total enthalpy                    ...    -99.53080473 Eh 
Total entropy correction          ...     -0.05501548 Eh    -34.52 kcal/mol
-----------------------------------------------------------------------
Final Gibbs free energy         ...    -99.58582021 Eh

For completeness - the Gibbs free energy minus the electronic energy
G-E(el)                           ...      0.32703279 Eh    205.22 kcal/mol


Maximum memory used throughout the entire PROP-calculation: 241.5 MB

--------------------------------
SUGGESTED CITATIONS FOR THIS RUN
--------------------------------

Below you find a list of papers that are relevant to this ORCA run
We neither can nor want to force you to cite these papers, but we appreciate if you do
You receive ORCA, which is the product of decades of hard work by many enthusiastic individuals, for free
The only thing we kindly ask in return is that you cite our papers,
We deeply appreciate it, if you show your appreciation for ORCA by not just citing the generic ORCA reference.

Please note that relegating all ORCA citations to the supporting information does *not* help us.
SI sections are not indexed - citations you put there will not count into any citation statistics
But we need these citations in order to attract the funding resources that allow us to do what we are doing

Therefore, if you are a happy ORCA user, please consider citing a few of the papers listed below in the main body of your paper

In addition to the list printed below, the program has created the file ./output/allo_aromadendrene/allo_aromadendrene.bibtex that contains the list in bibtex format
You can import this file easily into all common literature databanks and citation aid programs


List of essential papers. We consider these as the minimum necessary citations

  1. Neese,F.
     Software update: the ORCA program system, version 5.0
     WIRES Comput. Molec. Sci., 2022 12(1)e1606
     doi.org/10.1002/wcms.1606
  2. Mueller,M.; Hansen,A.; Grimme,S.
     wB97X-3c: A composite range-separated hybrid DFT method with a molecule-optimized polarized valence double-zeta basis set
     J. Chem. Phys., 2023 158 014103
     doi.org/10.1063/5.0133026

List of papers to cite with high priority. The work reported in these papers was absolutely
necessary for this run to complete.
Our perspective: the developers of density functionals and basis sets usually get cited in chemistry papers
Good! But without the algorithms to do something with them, the functionals or basis sets would not do anything.
Hence, in our opinion, the algorithm design and method developments papers are equally worthy of getting cited

  1. Neese,F.
     An improvement of the resolution of the identity approximation for the formation of the Coulomb matrix
     J. Comp. Chem., 2003 24(14)1740-1747
     doi.org/10.1002/jcc.10318
  2. Neese,F.; Wennmohs,F.; Hansen,A.; Becker,U.
     Efficient, approximate and parallel Hartree-Fock and hybrid DFT calculations. A 'chain-of-spheres' algorithm for the Hartree-Fock exchange
     Chem. Phys., 2009 356(1-3)98-109
     doi.org/10.1016/j.chemphys.2008.10.036
  3. Bykov,D.; Petrenko,T.; Izsak,R.; Kossmann,S.; Becker,U.; Valeev,E.; Neese,F.
     Efficient implementation of the analytic second derivatives of Hartree-Fock and hybrid DFT energies: a detailed analysis of different approximations
     Molec. Phys., 2015 113 1961-1977
     doi.org/10.1080/00268976.2015.1025114
  4. Helmich-Paris,B.; de Souza,B.; Neese,F.; Izsák,R.
     An improved chain of spheres for exchange algorithm
     J. Chem. Phys., 2021 155 104109
     doi.org/doi: 10.1063/5.0058766.
  5. Neese,F.
     The SHARK Integral Generation and Digestion System
     J. Comp. Chem., 2022  1-16
     doi.org/10.1002/jcc.26942
  6. Caldeweyher,E.; Bannwarth,C.; Grimme,S.
     Extension of the D3 dispersion coefficient model
     J. Chem. Phys., 2017 147 034112
     doi.org/10.1063/1.4993215
  7. Caldeweyher,E.; Ehlert,S.; Hansen,A.; Neugebauer,H.; Spicher,S.; Bannwarth,C.; Grimme,S.
     A generally applicable atomic-charge dependent London dispersion correction
     J. Chem. Phys., 2019 150 154122
     doi.org/10.1063/1.5090222
  8. Caldeweyher,E.; Mewes,J.; Ehlert,S.; Grimme,S.
     Extension and evaluation of the D4 London-dispersion model for periodic systems
     Phys. Chem. Chem. Phys., 2020 22(16)8499-8512
     doi.org/10.1039/D0CP00502A
  9. Wittmann,L.; Gordiy,I.; Friede,M.; Helmich-Paris,B.; Grimme,S.; Hansen,A.; Bursch,M.
     Extension of the D3 and D4 London Dispersion Corrections to the full Actinides Series
     Phys. Chem. Chem. Phys., 2024 26(32)21379-21394
     doi.org/https://doi.org/10.1039/D4CP01514B 

List of suggested additional citations. These are papers that are important in the 'surrounding' of 
of this run, or papers that preceded the highly important papers. If you like your results we are grateful for a citation.

  1. Izsak,R.; Neese,F.
     An overlap fitted chain of spheres exchange method
     J. Chem. Phys., 2011 135 144105
     doi.org/10.1063/1.3646921
  2. Izsak,R.; Hansen,A.; Neese,F.
     The resolution of identity and chain of spheres approximations for the LPNO-CCSD singles Fock term
     Molec. Phys., 2012 110 2413-2417
     doi.org/10.1080/00268976.2012.687466
  3. Neese,F.
     The ORCA program system
     WIRES Comput. Molec. Sci., 2012 2(1)73-78
     doi.org/10.1002/wcms.81
  4. Izsak,R.; Neese,F.; Klopper,W.
     Robust fitting techniques in the chain of spheres approximation to the Fock exchange: The role of the complementary space
     J. Chem. Phys., 2013 139 
     doi.org/10.1063/1.4819264
  5. Neese,F.
     Software update: the ORCA program system, version 4.0
     WIRES Comput. Molec. Sci., 2018 8(1)1-6
     doi.org/10.1002/wcms.1327
  6. Neese,F.; Wennmohs,F.; Becker,U.; Riplinger,C.
     The ORCA quantum chemistry program package
     J. Chem. Phys., 2020 152 Art. No. L224108
     doi.org/10.1063/5.0004608

List of optional additional citations

  1. Neese,F.
     Approximate second-order SCF convergence for spin unrestricted wavefunctions
     Chem. Phys. Lett., 2000 325(1-3)93-98
     doi.org/10.1016/s0009-2614(00)00662-x

Timings for individual modules:

Sum of individual times          ...     2418.108 sec (=  40.302 min)
Startup calculation              ...      103.943 sec (=   1.732 min)   4.3 %
SCF iterations                   ...     1533.330 sec (=  25.555 min)  63.4 %
Property integrals               ...      146.052 sec (=   2.434 min)   6.0 %
SCF Response                     ...       87.919 sec (=   1.465 min)   3.6 %
Property calculations            ...      215.537 sec (=   3.592 min)   8.9 %
SCF Gradient evaluation          ...      330.819 sec (=   5.514 min)  13.7 %
Geometry relaxation              ...        0.507 sec (=   0.008 min)   0.0 %
                             ****ORCA TERMINATED NORMALLY****
TOTAL RUN TIME: 0 days 0 hours 40 minutes 27 seconds 689 msec
