
                                 *****************
                                 * O   R   C   A *
                                 *****************

                                            #,                                       
                                            ###                                      
                                            ####                                     
                                            #####                                    
                                            ######                                   
                                           ########,                                 
                                     ,,################,,,,,                         
                               ,,#################################,,                 
                          ,,##########################################,,             
                       ,#########################################, ''#####,          
                    ,#############################################,,   '####,        
                  ,##################################################,,,,####,       
                ,###########''''           ''''###############################       
              ,#####''   ,,,,##########,,,,          '''####'''          '####       
            ,##' ,,,,###########################,,,                        '##       
           ' ,,###''''                  '''############,,,                           
         ,,##''                                '''############,,,,        ,,,,,,###''
      ,#''                                            '''#######################'''  
     '                                                          ''''####''''         
             ,#######,   #######,   ,#######,      ##                                
            ,#'     '#,  ##    ##  ,#'     '#,    #''#        ,####,   ,####,        
            ##       ##  ##   ,#'  ##            #'  '#       #'       #'  '#        
            ##       ##  #######   ##           ,######,      #####,   #    #        
            '#,     ,#'  ##    ##  '#,     ,#' ,#      #,     #,   #   #,  ,#        
             '#######'   ##     ##  '#######'  #'      '#     '####' # '####'        



                #########################################################
                #                        -***-                          #
                #          Department of theory and spectroscopy        #
                #                                                       #
                #                      Frank Neese                      #
                #                                                       #
                #     Directorship, Architecture, Infrastructure        #
                #                    SHARK, DRIVERS                     #
                #        Core code/Algorithms in most modules           #
                #                                                       #
                #        Max Planck Institute fuer Kohlenforschung      #
                #                Kaiser Wilhelm Platz 1                 #
                #                 D-45470 Muelheim/Ruhr                 #
                #                      Germany                          #
                #                                                       #
                #                  All rights reserved                  #
                #                        -***-                          #
                #########################################################


                         Program Version 6.0.1  -  RELEASE   -


 With contributions from (in alphabetic order):
[Max-Planck-Institut fuer Kohlenforschung]                               
  Daniel Aravena         : Magnetic Suceptibility                        
  Michael Atanasov       : Ab Initio Ligand Field Theory (pilot matlab implementation)
  Alexander A. Auer      : GIAO ZORA, VPT2 properties, NMR spectrum      
  Ute Becker             : All parallelization in ORCA, NUMFREQ, NUMCALC 
  Giovanni Bistoni       : ED, misc. LED, open-shell LED, HFLD           
  Martin Brehm           : Molecular dynamics                            
  Dmytro Bykov           : pre 5.0 version of the SCF Hessian            
  Marcos Casanova-Páez   : Triplet and SCS-CIS(D). UHF-(DLPNO)-IP/EA/STEOM-CCSD. UHF-CVS-IP/STEOM-CCSD   
  Vijay G. Chilkuri      : MRCI spin determinant printing, contributions to CSF-ICE 
  Pauline Colinet        : FMM embedding                                 
  Dipayan Datta          : RHF DLPNO-CCSD density                        
  Achintya Kumar Dutta   : EOM-CC, STEOM-CC                              
  Nicolas Foglia         : Exact transition moments, OPA infrastructure, MCD improvements    
  Dmitry Ganyushin       : Spin-Orbit,Spin-Spin,Magnetic field MRCI      
  Miquel Garcia-Rates    : C-PCM and meta-GGA Hessian, CCSD/C-PCM, Gaussian charge scheme 
  Tiago L. C. Gouveia    : GS-ROHF, GS-ROCIS                             
  Yang Guo               : DLPNO-NEVPT2, F12-NEVPT2, CIM, IAO-localization        
  Andreas Hansen         : Spin unrestricted coupled pair/coupled cluster methods 
  Ingolf Harden          : AUTO-CI MPn and infrastructure                
  Benjamin Helmich-Paris : MC-RPA, TRAH-(SCF,CASSCF), AVAS, COSX integrals, SCF dyn. polar. 
  Lee Huntington         : MR-EOM, pCC                                   
  Robert Izsak           : Overlap fitted RIJCOSX, COSX-SCS-MP3, EOM     
  Riya Kayal             : Wick's Theorem for AUTO-CI, AUTO-CI UHF-CCSDT 
  Emily Kempfer          : AUTO-CI, RHF CISDT and CCSDT                  
  Christian Kollmar      : KDIIS, OOCD, Brueckner-CCSD(T), CCSD density, CASPT2, CASPT2-K, improved NEVPT2 
  Axel Koslowski         : Symmetry handling                             
  Simone Kossmann        : meta-GGA functionals, TD-DFT gradient, OOMP2, (MP2 Hessian; deprecated post 5.0) 
  Lucas Lang             : DCDCAS                                        
  Marvin Lechner         : AUTO-CI (C++ implementation), FIC-MRCC        
  Spencer Leger          : CASSCF response                               
  Dagmar Lenk            : GEPOL surface, SMD, ORCA-2-JSON               
  Dimitrios Liakos       : Extrapolation schemes; Compound Job, initial MDCI parallelization 
  Dimitrios Manganas     : Further ROCIS development; embedding schemes. LFT, Crystal Embedding 
  Dimitrios Pantazis     : SARC Basis sets                               
  Anastasios Papadopoulos: AUTO-CI, single reference methods and gradients 
  Taras Petrenko         : pre 6.0 DFT Hessian and TD-DFT gradient, (ASA, deprecated), ECA, 1-Electron XAS/XES, NRVS 
  Peter Pinski           : DLPNO-MP2, DLPNO-MP2 Gradient                 
  Christoph Reimann      : Effective Core Potentials                     
  Marius Retegan         : Local ZFS, SOC                                
  Christoph Riplinger    : Optimizer, TS searches, QM/MM, DLPNO-CCSD(T), (RO)-DLPNO pert. Triples 
  Michael Roemelt        : Original ROCIS implementation                 
  Masaaki Saitow         : Open-shell DLPNO-CCSD energy and density      
  Barbara Sandhoefer     : DKH picture change effects                    
  Kantharuban Sivalingam : CASSCF convergence/infrastructure, NEVPT2 and variants, FIC-MRCI 
  Bernardo de Souza      : ESD, SOC TD-DFT                               
  Georgi L. Stoychev     : AutoAux, RI-MP2 NMR, DLPNO-MP2 response, X2C  
  Van Anh Tran           : RI-MP2 g-tensors                              
  Willem Van den Heuvel  : Paramagnetic NMR                              
  Zikuan Wang            : NOTCH, Electric field optimization            
  Frank Wennmohs         : Technical directorship and infrastructure     
  Hang Xu                : AUTO-CI-Response properties                   
                                                                         
[FACCTs GmbH]                                                            
  Markus Bursch, Miquel Garcia-Rates, Christoph Riplinger, Bernardo de Souza, Georgi L. Stoychev 
                                                                 
  APM, Basis sets (HGBS, AHGBS, def-TZVP (Ac-Lr), def2-XVPD (La-Lu)), CI-OPT, improved COSX, DLPNO-Multilevel,           
  DOCKER, DRACO, updates on ESD, GOAT, IRC, LR-CPCM, MBIS, meta-GGA TD-DFT gradient, ML-optimized integration grids, 
  MM, NACMEs, nearIR, NEB, NEB-TS, NL-DFT gradient (VV10), 2- and 3-layer-ONIOM, interface openCOSMO-RS, QMMM,   
  Crystal-QMMM, SF, symmetry and pop. for TD-DFT, r2SCAN hybrids, SOLVATOR                                   
                                                                         
[Other institutions]                                                     
  V. Asgeirsson          : NEB                                           
  Christoph Bannwarth    : sTDA-DFT, sTD-DFT, PBEh-3c, B97-3c, D3        
  Sebastian Ehlert       : rSCAN, r2SCAN, r2SCAN-3c, D4, dhf basis sets  
  Marvin Friede          : D4 for Fr, Ra, Ac-Lr                          
  Lars Goerigk           : TD-DFT with DH, B97 family of functionals     
  Stefan Grimme          : VdW corrections, initial TS optimization, DFT functionals, gCP, sTDA/sTD-DF 
  Waldemar Hujo          : DFT-NL                                        
  H. Jonsson             : NEB                                           
  Holger Kruse           : gCP                                           
  Marcel Mueller         : wB97X-3c, vDZP basis set                      
  Hagen Neugebauer       : wr2SCAN                                       
  Tobias Risthaus        : range-separated hybrid DFT                    
  Lukas Wittmann         : regularized MP2, r2SCAN double-hybrids, wr2SCAN        
                                                                         
We gratefully acknowledge several colleagues who have allowed us to      
interface, adapt or use parts of their codes:                            
  Ed Valeev, F. Pavosevic, A. Kumar             : LibInt (2-el integral package), F12 methods 
  Garnet Chan, S. Sharma, J. Yang, R. Olivares  : DMRG                   
  Ulf Ekstrom                                   : XCFun DFT Library      
  Mihaly Kallay                                 : mrcc  (arbitrary order and MRCC methods)
  Frank Weinhold                                : gennbo (NPA and NBO analysis)           
  Simon Mueller                                 : openCOSMO-RS                            
  Christopher J. Cramer and Donald G. Truhlar   : smd solvation model                     
  S Lehtola, MJT Oliveira, MAL Marques          : LibXC Library                           
  Liviu Ungur et al                             : ANISO software                          


 Your calculation uses the libint2 library for the computation of 2-el integrals
 For citations please refer to: http://libint.valeyev.net

 Your ORCA version has been built with support for libXC version: 6.2.2
 For citations please refer to: https://libxc.gitlab.io

 This ORCA versions uses:
   CBLAS   interface :  Fast vector & matrix operations
   LAPACKE interface :  Fast linear algebra routines
   SCALAPACK package :  Parallel linear algebra routines
   Shared memory     :  Shared parallel matrices
   BLAS/LAPACK       :  OpenBLAS 0.3.27  USE64BITINT DYNAMIC_ARCH NO_AFFINITY SkylakeX SINGLE_THREADED
        Core in use  :  SkylakeX
   Copyright (c) 2011-2014, The OpenBLAS Project


Your calculation utilizes the atom-pairwise dispersion correction
based on EEQ partial charges (D4)


================================================================================

cite the ECPs for C  [vDZP-ECP], O  [vDZP-ECP], N  [vDZP-ECP] as follows:
   B-Ne (ecp-2-mwb), Al-Ar (ecp-10-mwb), Ga-Kr (ecp-28-mwb), Y-Cd (ecp-28-mwb), In-Xe (ecp-46-mwb):
     A. Bergner, M. Dolg, W. Küchle, H. Stoll, and H. Preuß, Mol. Phys. 80, 1431 (1993)., T. Leininger, A. Berning, A. Nicklass, H. Stoll, H.-J. Werner, and H.-J.Flad, Chem. Phys. 217, 19 (1997).
   Na-Mg, K-Ca, Rb-Sr, Cs-Ba (CRENBL):
     L. Fernandez Pacios and P. A. Christiansen, J. Chem. Phys. 82, 2664 (1985)., M. M. Hurley, L. F. Pacios, P. A. Christiansen, R. B. Ross, and W. C. Ermler, J. Chem. Phys. 84, 6840 (1986)., L. A. LaJohn, P. A. Christiansen, R. B. Ross, T. Atashroo, and W. C. Ermler, J. Chem. Phys. 87, 2812 (1987)., R. B. Ross, J. M. Powers, T. Atashroo, W. C. Ermler, L. A. LaJohn, and P. A. Christiansen, J. Chem. Phys. 93, 6654 (1990). 
   Sc-Zn (ecp-10-mdf):
     M. Dolg, U. Wedig, H. Stoll, and H. Preuss, J. Chem. Phys. 86, 866 (1986). 
   Y-Cd (ecp-28-mwb), Hf-Hg (ecp-60-mwb):
     D. Andrae, U. Häußermann, M. Dolg, H. Stoll, and H. Preuß, Theor. Chim. Acta 77, 123 (1990). 
   La (ecp-46-mwb):
     M. Dolg, H. Stoll, and H. Preuss, J. Chem. Phys. 90, 1730 (1989)., M. Dolg, H. Stoll, and H. Preuss, Theor. Chim. Acta 85, 441 (1993).
   Ce-Lu (SBKJC-ecp):
     T. R. Cundari and W. J. Stevens, J. Chem. Phys. 98, 5555 (1993).
   Tl-Rn (ecp-78-mwb):
     W. Küchle, M. Dolg, H. Stoll, and H. Preuss, Mol. Phys. 74, 1245 (1991).

ECP parameters for C  [vDZP-ECP], O  [vDZP-ECP], N  [vDZP-ECP] have been obtained from:
MM, AH, SG, J. Chem. Phys. 158, 014103 (2023), 10.1063/5.0133026

----- Orbital basis set information -----
Your calculation utilizes the basis: vDZP
   Marcel Mueller, Andreas Hansen, Stefan Grimme 
   J. Chem. Phys. 158, 014103 (2023). DOI: 10.1063/5.0133026

----- AuxJ basis set information -----
Your calculation utilizes the auxiliary basis: def2/J
   F. Weigend, Phys. Chem. Chem. Phys. 8, 1057 (2006).

================================================================================
                                        WARNINGS
                       Please study these warnings very carefully!
================================================================================

WARNING: Frozen-Core approximation turned on, but there are no core electrons.
  ===> : Turning off frozen-core approximation


WARNING: Geometry Optimization
  ===> : Switching off AutoStart
         For restart on a previous wavefunction, please use MOREAD

================================================================================
                                       INPUT FILE
================================================================================
NAME = ./output/butyl_anthranilate/butyl_anthranilate.inp
|  1> ! wB97X-3c OPT FREQ TightSCF
|  2> %pal
|  3>   nprocs 40
|  4> end
|  5> * xyz 0 1
|  6> C      4.559346     0.477677    -0.071440
|  7> C      3.879857    -0.384748     0.991773
|  8> C      2.347348    -0.301770     0.930525
|  9> C      1.767089    -1.001728    -0.304956
| 10> O      0.343313    -1.041147    -0.231002
| 11> C     -0.472449     0.074504    -0.458300
| 12> O      0.036666     1.166132    -0.833150
| 13> C     -1.939619    -0.058064    -0.320009
| 14> C     -2.528839    -1.294543    -0.641099
| 15> C     -3.914849    -1.456173    -0.599606
| 16> C     -4.732537    -0.387917    -0.235528
| 17> C     -4.166026     0.840521     0.106874
| 18> C     -2.772867     1.017346     0.086963
| 19> N     -2.233633     2.267596     0.537822
| 20> H      4.203526     1.527878    -0.005944
| 21> H      4.356858     0.081013    -1.087733
| 22> H      5.657669     0.466359     0.091353
| 23> H      4.211411    -1.440330     0.883588
| 24> H      4.210804    -0.029728     1.991808
| 25> H      1.935174    -0.793728     1.838330
| 26> H      2.027518     0.762334     0.952060
| 27> H      2.140553    -2.047041    -0.343593
| 28> H      2.080374    -0.488256    -1.239000
| 29> H     -1.916799    -2.132766    -0.951390
| 30> H     -4.356024    -2.409760    -0.859749
| 31> H     -5.807160    -0.514555    -0.208106
| 32> H     -4.814277     1.652695     0.411552
| 33> H     -1.237492     2.368248     0.828811
| 34> H     -2.864935     3.079949     0.718330
| 35> *
| 36> 
| 37>                          ****END OF INPUT****
================================================================================

                       *****************************
                       * Geometry Optimization Run *
                       *****************************

Geometry optimization settings:
Update method            Update   .... BFGS
Choice of coordinates    CoordSys .... (2022) Redundant Internals
Initial Hessian          InHess   .... Almloef's Model
Max. no of cycles        MaxIter  .... 87

Convergence Tolerances:
Energy Change            TolE     ....  5.0000e-06 Eh
Max. Gradient            TolMAXG  ....  3.0000e-04 Eh/bohr
RMS Gradient             TolRMSG  ....  1.0000e-04 Eh/bohr
Max. Displacement        TolMAXD  ....  4.0000e-03 bohr
RMS Displacement         TolRMSD  ....  2.0000e-03 bohr
Strict Convergence                .... False

------------------------------------------------------------------------------
                        ORCA OPTIMIZATION COORDINATE SETUP
------------------------------------------------------------------------------

The optimization will be done in redundant internal coordinates (2022)
Making redundant internal coordinates   ...  (2022 redundants) done
Evaluating the initial hessian          ...  (Almloef) done
Evaluating the coordinates              ...  done
Calculating the B-matrix                .... done
Calculating the G-matrix                .... done
Diagonalizing the G-matrix              .... done
Small eigenvalue found = 4.205e-03
Small eigenvalue found = 7.553e-03
Small eigenvalue found = 1.698e-02
Small eigenvalue found = 1.845e-02
The first mode is                       ....   53
The number of degrees of freedom        ....   81

    -----------------------------------------------------------------
                    Redundant Internal Coordinates


    -----------------------------------------------------------------
         Definition                    Initial Value    Approx d2E/dq
    -----------------------------------------------------------------
      1. B(C   1,C   0)                  1.5284         0.375823   
      2. B(C   2,C   1)                  1.5360         0.365464   
      3. B(C   3,C   2)                  1.5340         0.368170   
      4. B(O   4,C   3)                  1.4262         0.489843   
      5. B(C   5,O   4)                  1.4006         0.538134   
      6. B(O   6,C   5)                  1.2615         0.897226   
      7. B(C   7,C   5)                  1.4796         0.449521   
      8. B(C   8,C   7)                  1.4068         0.587346   
      9. B(C   9,C   8)                  1.3960         0.611132   
     10. B(C  10,C   9)                  1.3937         0.616412   
     11. B(C  11,C  10)                  1.3954         0.612449   
     12. B(C  12,C  11)                  1.4045         0.592436   
     13. B(C  12,C   7)                  1.4200         0.559572   
     14. B(N  13,C  12)                  1.4343         0.475579   
     15. B(H  14,C   0)                  1.1108         0.333641   
     16. B(H  15,C   0)                  1.1096         0.335093   
     17. B(H  16,C   0)                  1.1104         0.334125   
     18. B(H  17,C   1)                  1.1117         0.332503   
     19. B(H  18,C   1)                  1.1116         0.332641   
     20. B(H  19,C   2)                  1.1118         0.332429   
     21. B(H  20,C   2)                  1.1113         0.332950   
     22. B(H  21,C   3)                  1.1107         0.333736   
     23. B(H  22,C   3)                  1.1110         0.333409   
     24. B(H  23,C   8)                  1.0833         0.369103   
     25. B(H  24,C   9)                  1.0824         0.370265   
     26. B(H  25,C  10)                  1.0824         0.370287   
     27. B(H  26,C  11)                  1.0829         0.369608   
     28. B(H  27,O   6)                  2.4147         0.002484   
     29. B(H  27,N  13)                  1.0426         0.383810   
     30. B(H  28,N  13)                  1.0445         0.381158   
     31. A(C   1,C   0,H  14)          110.4917         0.320603   
     32. A(H  14,C   0,H  16)          108.5329         0.284050   
     33. A(H  15,C   0,H  16)          108.1283         0.284241   
     34. A(C   1,C   0,H  15)          110.7509         0.320831   
     35. A(H  14,C   0,H  15)          109.4838         0.284177   
     36. A(C   1,C   0,H  16)          109.3912         0.320679   
     37. A(H  17,C   1,H  18)          107.5785         0.283703   
     38. A(C   0,C   1,H  18)          108.2556         0.320446   
     39. A(C   2,C   1,H  18)          108.4014         0.318986   
     40. A(C   0,C   1,C   2)          112.6660         0.362363   
     41. A(C   2,C   1,H  17)          110.1807         0.318965   
     42. A(C   0,C   1,H  17)          109.6031         0.320424   
     43. A(C   3,C   2,H  19)          108.3910         0.319338   
     44. A(C   1,C   2,H  19)          108.2664         0.318953   
     45. A(C   1,C   2,H  20)          109.7607         0.319035   
     46. A(C   1,C   2,C   3)          112.6366         0.361093   
     47. A(H  19,C   2,H  20)          107.5284         0.283734   
     48. A(C   3,C   2,H  20)          110.0998         0.319419   
     49. A(C   2,C   3,O   4)          110.3937         0.377351   
     50. A(C   2,C   3,H  21)          109.2852         0.319542   
     51. A(H  21,C   3,H  22)          108.1143         0.283968   
     52. A(C   2,C   3,H  22)          111.0747         0.319491   
     53. A(O   4,C   3,H  22)          109.7475         0.332856   
     54. A(O   4,C   3,H  21)          108.1469         0.332910   
     55. A(C   3,O   4,C   5)          123.4345         0.400633   
     56. A(O   6,C   5,C   7)          120.3638         0.434969   
     57. A(O   4,C   5,C   7)          119.4052         0.397168   
     58. A(O   4,C   5,O   6)          120.1615         0.446384   
     59. A(C   8,C   7,C  12)          119.0302         0.422046   
     60. A(C   5,C   7,C  12)          122.7370         0.402484   
     61. A(C   5,C   7,C   8)          118.2110         0.405940   
     62. A(C   9,C   8,H  23)          118.6765         0.353524   
     63. A(C   7,C   8,H  23)          120.5860         0.351158   
     64. A(C   7,C   8,C   9)          120.7173         0.428756   
     65. A(C  10,C   9,H  24)          119.9285         0.354228   
     66. A(C   8,C   9,C  10)          120.1010         0.432491   
     67. A(C   8,C   9,H  24)          119.9679         0.353712   
     68. A(C   9,C  10,C  11)          120.0451         0.432659   
     69. A(C  11,C  10,H  25)          119.9891         0.353845   
     70. A(C   9,C  10,H  25)          119.9625         0.354232   
     71. A(C  10,C  11,C  12)          120.6678         0.429587   
     72. A(C  12,C  11,H  26)          120.2226         0.351752   
     73. A(C  10,C  11,H  26)          119.0945         0.353735   
     74. A(C   7,C  12,C  11)          119.3916         0.422697   
     75. A(C  11,C  12,N  13)          118.5693         0.407990   
     76. A(C   7,C  12,N  13)          121.9806         0.403896   
     77. A(H  27,N  13,H  28)          117.0087         0.291619   
     78. A(C  12,N  13,H  28)          120.3332         0.335771   
     79. A(C  12,N  13,H  27)          122.0779         0.336159   
     80. D(H  17,C   1,C   0,H  15)     55.9680         0.011270   
     81. D(H  17,C   1,C   0,H  14)    177.4594         0.011270   
     82. D(H  17,C   1,C   0,H  16)    -63.1166         0.011270   
     83. D(C   2,C   1,C   0,H  15)    -67.0968         0.011270   
     84. D(C   2,C   1,C   0,H  14)     54.3945         0.011270   
     85. D(C   2,C   1,C   0,H  16)    173.8186         0.011270   
     86. D(C   3,C   2,C   1,C   0)     70.5961         0.010694   
     87. D(H  19,C   2,C   1,H  18)    -49.7796         0.010694   
     88. D(H  19,C   2,C   1,C   0)   -169.5615         0.010694   
     89. D(H  19,C   2,C   1,H  17)     67.6966         0.010694   
     90. D(C   3,C   2,C   1,H  17)    -52.1458         0.010694   
     91. D(C   3,C   2,C   1,H  18)   -169.6220         0.010694   
     92. D(O   4,C   3,C   2,H  20)    -64.3098         0.010842   
     93. D(O   4,C   3,C   2,H  19)     53.0542         0.010842   
     94. D(O   4,C   3,C   2,C   1)    172.8245         0.010842   
     95. D(H  21,C   3,C   2,H  20)    176.8662         0.010842   
     96. D(H  21,C   3,C   2,H  19)    -65.7697         0.010842   
     97. D(H  21,C   3,C   2,C   1)     54.0006         0.010842   
     98. D(C   5,O   4,C   3,H  22)    -47.9072         0.018947   
     99. D(C   5,O   4,C   3,H  21)   -165.6363         0.018947   
    100. D(C   5,O   4,C   3,C   2)     74.8489         0.018947   
    101. D(C   7,C   5,O   4,C   3)   -178.2584         0.020905   
    102. D(O   6,C   5,O   4,C   3)      4.7606         0.020905   
    103. D(C  12,C   7,C   5,O   6)    -33.2835         0.013775   
    104. D(C  12,C   7,C   5,O   4)    149.7418         0.013775   
    105. D(C   8,C   7,C   5,O   4)    -31.9762         0.013775   
    106. D(C   8,C   7,C   5,O   6)    144.9985         0.013775   
    107. D(H  23,C   8,C   7,C  12)   -179.8028         0.023730   
    108. D(H  23,C   8,C   7,C   5)      1.8499         0.023730   
    109. D(C   9,C   8,C   7,C  12)      1.8539         0.023730   
    110. D(C   9,C   8,C   7,C   5)   -176.4933         0.023730   
    111. D(H  24,C   9,C   8,H  23)      0.9420         0.025800   
    112. D(H  24,C   9,C   8,C   7)    179.3164         0.025800   
    113. D(C  10,C   9,C   8,H  23)   -178.4689         0.025800   
    114. D(C  10,C   9,C   8,C   7)     -0.0945         0.025800   
    115. D(H  25,C  10,C   9,H  24)      0.3334         0.026274   
    116. D(H  25,C  10,C   9,C   8)    179.7445         0.026274   
    117. D(C  11,C  10,C   9,H  24)    179.6742         0.026274   
    118. D(C  11,C  10,C   9,C   8)     -0.9146         0.026274   
    119. D(H  26,C  11,C  10,H  25)      0.8769         0.025918   
    120. D(H  26,C  11,C  10,C   9)   -178.4638         0.025918   
    121. D(C  12,C  11,C  10,H  25)    179.4680         0.025918   
    122. D(C  12,C  11,C  10,C   9)      0.1274         0.025918   
    123. D(N  13,C  12,C  11,H  26)      2.9447         0.024164   
    124. D(N  13,C  12,C  11,C  10)   -175.6305         0.024164   
    125. D(C   7,C  12,C  11,H  26)   -179.7824         0.024164   
    126. D(C   7,C  12,C  11,C  10)      1.6423         0.024164   
    127. D(N  13,C  12,C   7,C   8)    174.5712         0.021447   
    128. D(N  13,C  12,C   7,C   5)     -7.1602         0.021447   
    129. D(C  11,C  12,C   7,C   8)     -2.6051         0.021447   
    130. D(C  11,C  12,C   7,C   5)    175.6635         0.021447   
    131. D(H  28,N  13,C  12,C  11)    -10.3965         0.017835   
    132. D(H  28,N  13,C  12,C   7)    172.4048         0.017835   
    133. D(H  27,N  13,C  12,C  11)    160.6057         0.017835   
    134. D(H  27,N  13,C  12,C   7)    -16.5929         0.017835   
    -----------------------------------------------------------------

Number of atoms                         .... 29
Number of degrees of freedom            .... 134


         *************************************************************
         *                GEOMETRY OPTIMIZATION CYCLE   1            *
         *************************************************************
---------------------------------
CARTESIAN COORDINATES (ANGSTROEM)
---------------------------------
  C      4.559346    0.477677   -0.071440
  C      3.879857   -0.384748    0.991773
  C      2.347348   -0.301770    0.930525
  C      1.767089   -1.001728   -0.304956
  O      0.343313   -1.041147   -0.231002
  C     -0.472449    0.074504   -0.458300
  O      0.036666    1.166132   -0.833150
  C     -1.939619   -0.058064   -0.320009
  C     -2.528839   -1.294543   -0.641099
  C     -3.914849   -1.456173   -0.599606
  C     -4.732537   -0.387917   -0.235528
  C     -4.166026    0.840521    0.106874
  C     -2.772867    1.017346    0.086963
  N     -2.233633    2.267596    0.537822
  H      4.203526    1.527878   -0.005944
  H      4.356858    0.081013   -1.087733
  H      5.657669    0.466359    0.091353
  H      4.211411   -1.440330    0.883588
  H      4.210804   -0.029728    1.991808
  H      1.935174   -0.793728    1.838330
  H      2.027518    0.762334    0.952060
  H      2.140553   -2.047041   -0.343593
  H      2.080374   -0.488256   -1.239000
  H     -1.916799   -2.132766   -0.951390
  H     -4.356024   -2.409760   -0.859749
  H     -5.807160   -0.514555   -0.208106
  H     -4.814277    1.652695    0.411552
  H     -1.237492    2.368248    0.828811
  H     -2.864935    3.079949    0.718330

----------------------------
CARTESIAN COORDINATES (A.U.)
----------------------------
  NO LB      ZA    FRAG     MASS         X           Y           Z
   0 C     4.0000*   0    12.011    8.615915    0.902679   -0.135002
   1 C     4.0000*   0    12.011    7.331867   -0.727068    1.874179
   2 C     4.0000*   0    12.011    4.435845   -0.570263    1.758437
   3 C     4.0000*   0    12.011    3.339314   -1.892992   -0.576283
   4 O     6.0000*   0    15.999    0.648768   -1.967483   -0.436531
   5 C     4.0000*   0    12.011   -0.892799    0.140792   -0.866061
   6 O     6.0000*   0    15.999    0.069289    2.203670   -1.574425
   7 C     4.0000*   0    12.011   -3.665349   -0.109725   -0.604729
   8 C     4.0000*   0    12.011   -4.778813   -2.446332   -1.211502
   9 C     4.0000*   0    12.011   -7.397992   -2.751768   -1.133091
  10 C     4.0000*   0    12.011   -8.943199   -0.733057   -0.445083
  11 C     4.0000*   0    12.011   -7.872648    1.588354    0.201963
  12 C     4.0000*   0    12.011   -5.239959    1.922505    0.164336
  13 N     5.0000*   0    14.007   -4.220955    4.285135    1.016336
  14 H     1.0000    0     1.008    7.943513    2.887271   -0.011233
  15 H     1.0000    0     1.008    8.233268    0.153092   -2.055517
  16 H     1.0000    0     1.008   10.691445    0.881291    0.172632
  17 H     1.0000    0     1.008    7.958413   -2.721829    1.669739
  18 H     1.0000    0     1.008    7.957266   -0.056178    3.763972
  19 H     1.0000    0     1.008    3.656949   -1.499929    3.473940
  20 H     1.0000    0     1.008    3.831454    1.440602    1.799133
  21 H     1.0000    0     1.008    4.045059   -3.868347   -0.649297
  22 H     1.0000    0     1.008    3.931337   -0.922670   -2.341371
  23 H     1.0000    0     1.008   -3.622225   -4.030344   -1.797867
  24 H     1.0000    0     1.008   -8.231692   -4.553786   -1.624690
  25 H     1.0000    0     1.008  -10.973942   -0.972368   -0.393263
  26 H     1.0000    0     1.008   -9.097665    3.123141    0.777721
  27 H     1.0000    0     1.008   -2.338521    4.475340    1.566226
  28 H     1.0000    0     1.008   -5.413943    5.820260    1.357447
* core charge reduced due to ECP

--------------------------------
INTERNAL COORDINATES (ANGSTROEM)
--------------------------------
 C      0   0   0     0.000000000000     0.00000000     0.00000000
 C      1   0   0     1.528366469508     0.00000000     0.00000000
 C      2   1   0     1.535975423328   112.66597469     0.00000000
 C      3   2   1     1.533967082504   112.63661326    70.59609952
 O      4   3   2     1.426240214639   110.39368164   172.82453713
 C      5   4   3     1.400645984983   123.43446055    74.84888684
 O      6   5   4     1.261492091180   120.16151180     4.76061724
 C      6   5   4     1.479623764409   119.40524972   181.74159248
 C      8   6   5     1.406825971448   118.21095124   328.02376085
 C      9   8   6     1.396019214069   120.71730702   183.50665956
 C     10   9   8     1.393677630216   120.10097181   359.90548276
 C     11  10   9     1.395433180976   120.04512101   359.08538052
 C     12  11  10     1.404476958810   120.66775426     0.12737938
 N     13  12  11     1.434284562818   118.56925559   184.36946784
 H      1   2   3     1.110774387001   110.49174696    54.39449290
 H      1   2   3     1.109592348968   110.75091354   292.90317254
 H      1   2   3     1.110379696456   109.39119884   173.81855795
 H      2   1   3     1.111703831002   109.60310050   123.06485865
 H      2   1   3     1.111591255109   108.25558825   240.13382966
 H      3   2   1     1.111764362653   108.26644791   190.43846695
 H      3   2   1     1.111338070949   109.76072891   307.54084620
 H      4   3   2     1.110696828587   109.28515449    54.00059304
 H      4   3   2     1.110963176683   111.07472735   294.80131942
 H      9   8   6     1.083278017874   120.58600071     1.84993221
 H     10   9   8     1.082422250161   119.96786797   179.31640209
 H     11  10   9     1.082406458433   119.96252866   179.74454259
 H     12  11  10     1.082905650997   119.09453750   181.53621259
 H     14  13  12     1.042641987983   122.07787522   160.60572051
 H     14  13  12     1.044529918134   120.33317606   349.60346986

---------------------------
INTERNAL COORDINATES (A.U.)
---------------------------
 C      0   0   0     0.000000000000     0.00000000     0.00000000
 C      1   0   0     2.888194059637     0.00000000     0.00000000
 C      2   1   0     2.902572898525   112.66597469     0.00000000
 C      3   2   1     2.898777684383   112.63661326    70.59609952
 O      4   3   2     2.695203406852   110.39368164   172.82453713
 C      5   4   3     2.646837322194   123.43446055    74.84888684
 O      6   5   4     2.383874572437   120.16151180     4.76061724
 C      6   5   4     2.796083695975   119.40524972   181.74159248
 C      8   6   5     2.658515804125   118.21095124   328.02376085
 C      9   8   6     2.638093992282   120.71730702   183.50665956
 C     10   9   8     2.633669040080   120.10097181   359.90548276
 C     11  10   9     2.636986550231   120.04512101   359.08538052
 C     12  11  10     2.654076813553   120.66775426     0.12737938
 N     13  12  11     2.710405021836   118.56925559   184.36946784
 H      1   2   3     2.099059388006   110.49174696    54.39449290
 H      1   2   3     2.096825659844   110.75091354   292.90317254
 H      1   2   3     2.098313530969   109.39119884   173.81855795
 H      2   1   3     2.100815782625   109.60310050   123.06485865
 H      2   1   3     2.100603045017   108.25558825   240.13382966
 H      3   2   1     2.100930170867   108.26644791   190.43846695
 H      3   2   1     2.100124596294   109.76072891   307.54084620
 H      4   3   2     2.098912823845   109.28515449    54.00059304
 H      4   3   2     2.099416148802   111.07472735   294.80131942
 H      9   8   6     2.047098780680   120.58600071     1.84993221
 H     10   9   8     2.045481614067   119.96786797   179.31640209
 H     11  10   9     2.045451772026   119.96252866   179.74454259
 H     12  11  10     2.046395109260   119.09453750   181.53621259
 H     14  13  12     1.970307813016   122.07787522   160.60572051
 H     14  13  12     1.973875483960   120.33317606   349.60346986

---------------------
BASIS SET INFORMATION
---------------------
There are 4 groups of distinct atoms

 Group   1 Type C   : 6s6p2d contracted to 2s2p1d pattern {42/42/2}
 Group   2 Type O   : 6s6p2d contracted to 2s2p1d pattern {42/42/2}
 Group   3 Type N   : 6s6p2d contracted to 2s2p1d pattern {42/42/2}
 Group   4 Type H   : 8s2p contracted to 2s1p pattern {53/2}

Atom   0C    basis set group =>   1
Atom   1C    basis set group =>   1
Atom   2C    basis set group =>   1
Atom   3C    basis set group =>   1
Atom   4O    basis set group =>   2
Atom   5C    basis set group =>   1
Atom   6O    basis set group =>   2
Atom   7C    basis set group =>   1
Atom   8C    basis set group =>   1
Atom   9C    basis set group =>   1
Atom  10C    basis set group =>   1
Atom  11C    basis set group =>   1
Atom  12C    basis set group =>   1
Atom  13N    basis set group =>   3
Atom  14H    basis set group =>   4
Atom  15H    basis set group =>   4
Atom  16H    basis set group =>   4
Atom  17H    basis set group =>   4
Atom  18H    basis set group =>   4
Atom  19H    basis set group =>   4
Atom  20H    basis set group =>   4
Atom  21H    basis set group =>   4
Atom  22H    basis set group =>   4
Atom  23H    basis set group =>   4
Atom  24H    basis set group =>   4
Atom  25H    basis set group =>   4
Atom  26H    basis set group =>   4
Atom  27H    basis set group =>   4
Atom  28H    basis set group =>   4
---------------------------------
AUXILIARY/J BASIS SET INFORMATION
---------------------------------
There are 4 groups of distinct atoms

 Group   1 Type C   : 12s5p4d2f1g contracted to 6s4p3d1f1g pattern {711111/2111/211/2/1}
 Group   2 Type O   : 12s5p4d2f1g contracted to 6s4p3d1f1g pattern {711111/2111/211/2/1}
 Group   3 Type N   : 12s5p4d2f1g contracted to 6s4p3d1f1g pattern {711111/2111/211/2/1}
 Group   4 Type H   : 5s2p1d contracted to 3s1p1d pattern {311/2/1}

Atom   0C    basis set group =>   1
Atom   1C    basis set group =>   1
Atom   2C    basis set group =>   1
Atom   3C    basis set group =>   1
Atom   4O    basis set group =>   2
Atom   5C    basis set group =>   1
Atom   6O    basis set group =>   2
Atom   7C    basis set group =>   1
Atom   8C    basis set group =>   1
Atom   9C    basis set group =>   1
Atom  10C    basis set group =>   1
Atom  11C    basis set group =>   1
Atom  12C    basis set group =>   1
Atom  13N    basis set group =>   3
Atom  14H    basis set group =>   4
Atom  15H    basis set group =>   4
Atom  16H    basis set group =>   4
Atom  17H    basis set group =>   4
Atom  18H    basis set group =>   4
Atom  19H    basis set group =>   4
Atom  20H    basis set group =>   4
Atom  21H    basis set group =>   4
Atom  22H    basis set group =>   4
Atom  23H    basis set group =>   4
Atom  24H    basis set group =>   4
Atom  25H    basis set group =>   4
Atom  26H    basis set group =>   4
Atom  27H    basis set group =>   4
Atom  28H    basis set group =>   4
-------------------------
ECP PARAMETER INFORMATION
-------------------------

 Group 1, Type C  ECP vDZP-ECP (replacing 2 core electrons, lmax=3)
 Group 2, Type O  ECP vDZP-ECP (replacing 2 core electrons, lmax=3)
 Group 3, Type N  ECP vDZP-ECP (replacing 2 core electrons, lmax=3)

Atom   0C    ECP group =>   1
Atom   1C    ECP group =>   1
Atom   2C    ECP group =>   1
Atom   3C    ECP group =>   1
Atom   4O    ECP group =>   2
Atom   5C    ECP group =>   1
Atom   6O    ECP group =>   2
Atom   7C    ECP group =>   1
Atom   8C    ECP group =>   1
Atom   9C    ECP group =>   1
Atom  10C    ECP group =>   1
Atom  11C    ECP group =>   1
Atom  12C    ECP group =>   1
Atom  13N    ECP group =>   3



           ************************************************************
           *        Program running with 40 parallel MPI-processes    *
           *              working on a common directory               *
           ************************************************************
------------------------------------------------------------------------------
                             ORCA STARTUP CALCULATIONS
                           -- RI-GTO INTEGRALS CHOSEN --
------------------------------------------------------------------------------
------------------------------------------------------------------------------
                   ___                                                        
                  /   \      - P O W E R E D   B Y -                         
                 /     \                                                     
                 |  |  |   _    _      __       _____    __    __             
                 |  |  |  | |  | |    /  \     |  _  \  |  |  /  |          
                  \  \/   | |  | |   /    \    | | | |  |  | /  /          
                 / \  \   | |__| |  /  /\  \   | |_| |  |  |/  /          
                |  |  |   |  __  | /  /__\  \  |    /   |      \           
                |  |  |   | |  | | |   __   |  |    \   |  |\   \          
                \     /   | |  | | |  |  |  |  | |\  \  |  | \   \       
                 \___/    |_|  |_| |__|  |__|  |_| \__\ |__|  \__/        
                                                                              
                      - O R C A' S   B I G   F R I E N D -                    
                                      &                                       
                       - I N T E G R A L  F E E D E R -                       
                                                                              
 v1 FN, 2020, v2 2021, v3 2022-2024                                           
------------------------------------------------------------------------------


----------------------
SHARK INTEGRAL PACKAGE
----------------------

Number of atoms                             ...     29
Number of basis functions                   ...    257
Number of shells                            ...    115
Maximum angular momentum                    ...      2
Integral batch strategy                     ... SHARK/LIBINT Hybrid
RI-J (if used) integral strategy            ... SPLIT-RIJ (Revised 2003 algorithm where possible)
Printlevel                                  ...      1
Contraction scheme used                     ... SEGMENTED contraction
Prescreening option                         ... SCHWARTZ
   Thresh                                   ... 2.500e-11
   Tcut                                     ... 2.500e-12
   Tpresel                                  ... 2.500e-12 
Coulomb Range Separation                    ... NOT USED
Exchange Range Separation                   ... Long Range
   Mu parameter                             ... 3.000e-01
   Scaling (regular/separated)              ... 1.670e-01 8.330e-01
Multipole approximations                    ... NOT USED
Finite Nucleus Model                        ... NOT USED
CABS basis                                  ... NOT available
Auxiliary Coulomb fitting basis             ... AVAILABLE
   # of basis functions in Aux-J            ...    851
   # of shells in Aux-J                     ...    285
   Maximum angular momentum in Aux-J        ...      4
Auxiliary J/K fitting basis                 ... NOT available
Auxiliary Correlation fitting basis         ... NOT available
Auxiliary 'external' fitting basis          ... NOT available

Checking pre-screening integrals            ... done (  0.0 sec) Dimension = 115
Check shell pair data                       ... done (  0.0 sec)
Shell pair information
Shell pair cut-off parameter TPreSel        ...   2.5e-12
Total number of shell pairs                 ...      6670
Shell pairs after pre-screening             ...      6365
Total number of primitive shell pairs       ...     60451
Primitive shell pairs kept                  ...     42758
          la=0 lb=0:   1668 shell pairs
          la=1 lb=0:   2378 shell pairs
          la=1 lb=1:    870 shell pairs
          la=2 lb=0:    785 shell pairs
          la=2 lb=1:    563 shell pairs
          la=2 lb=2:    101 shell pairs

Calculating one electron integrals          ... done (  0.0 sec)
Calculating ECP integrals                   ... done (  0.1 sec)
Calculating RI/J V-Matrix + Cholesky decomp.... done (  0.0 sec)
Calculating Nuclear repulsion               ... done (  0.0 sec) ENN=    453.334058496530 Eh

Diagonalization of the overlap matrix:
Smallest eigenvalue                        ... 3.596e-04
Time for diagonalization                   ...    0.009 sec
Threshold for overlap eigenvalues          ... 1.000e-07
Number of eigenvalues below threshold      ... 0
Time for construction of square roots      ...    0.006 sec
Total time needed                          ...    0.043 sec

-------------------
DFT GRID GENERATION
-------------------

General Integration Accuracy     IntAcc      ... 4.388
Radial Grid Type                 RadialGrid  ... OptM3 with GC (2021)
Angular Grid (max. ang.)         AngularGrid ... 4 (Lebedev-302)
Angular grid pruning method      GridPruning ... 4 (adaptive)
Weight generation scheme         WeightScheme... mBecke (2022)
Basis function cutoff            BFCut       ... 1.0000e-11
Integration weight cutoff        WCut        ... 1.0000e-14
Partially contracted basis set               ... off
Rotationally invariant grid construction     ... off
Angular grids for H and He will be reduced by one unit

Total number of grid points                  ...   132164
Total number of batches                      ...     2079
Average number of points per batch           ...       63
Average number of grid points per atom       ...     4557

--------------------
COSX GRID GENERATION
--------------------

GRIDX 1
-------
General Integration Accuracy     IntAcc      ... 3.816
Radial Grid Type                 RadialGrid  ... OptM3 with GC (2021)
Angular Grid (max. ang.)         AngularGrid ... 1 (Lebedev-50)
Angular grid pruning method      GridPruning ... 4 (adaptive)
Weight generation scheme         WeightScheme... mBecke (2022)
Basis function cutoff            BFCut       ... 1.0000e-11
Integration weight cutoff        WCut        ... 1.0000e-14
Partially contracted basis set               ... on
Rotationally invariant grid construction     ... off
Angular grids for H and He will be reduced by one unit

Total number of grid points                  ...    16874
Total number of batches                      ...      149
Average number of points per batch           ...      113
Average number of grid points per atom       ...      582
UseSFitting                                  ... on

GRIDX 2
-------
General Integration Accuracy     IntAcc      ... 4.020
Radial Grid Type                 RadialGrid  ... OptM3 with GC (2021)
Angular Grid (max. ang.)         AngularGrid ... 2 (Lebedev-110)
Angular grid pruning method      GridPruning ... 4 (adaptive)
Weight generation scheme         WeightScheme... mBecke (2022)
Basis function cutoff            BFCut       ... 1.0000e-11
Integration weight cutoff        WCut        ... 1.0000e-14
Partially contracted basis set               ... on
Rotationally invariant grid construction     ... off
Angular grids for H and He will be reduced by one unit

Total number of grid points                  ...    36190
Total number of batches                      ...      298
Average number of points per batch           ...      121
Average number of grid points per atom       ...     1248
UseSFitting                                  ... on

GRIDX 3
-------
General Integration Accuracy     IntAcc      ... 4.338
Radial Grid Type                 RadialGrid  ... OptM3 with GC (2021)
Angular Grid (max. ang.)         AngularGrid ... 3 (Lebedev-194)
Angular grid pruning method      GridPruning ... 4 (adaptive)
Weight generation scheme         WeightScheme... mBecke (2022)
Basis function cutoff            BFCut       ... 1.0000e-11
Integration weight cutoff        WCut        ... 1.0000e-14
Partially contracted basis set               ... on
Rotationally invariant grid construction     ... off
Angular grids for H and He will be reduced by one unit

Total number of grid points                  ...    79159
Total number of batches                      ...      633
Average number of points per batch           ...      125
Average number of grid points per atom       ...     2730
UseSFitting                                  ... on
Initializing property integral containers    ... done (  0.0 sec)

SHARK setup successfully completed in   4.1 seconds

Maximum memory used throughout the entire STARTUP-calculation: 38.9 MB


           ************************************************************
           *        Program running with 40 parallel MPI-processes    *
           *              working on a common directory               *
           ************************************************************
-------------------------------------------------------------------------------
                                 ORCA GUESS
                   Start orbitals & Density for SCF / CASSCF
-------------------------------------------------------------------------------

------------
SCF SETTINGS
------------
Hamiltonian:
 Density Functional     Method          .... DFT(GTOs)
 Exchange Functional    Exchange        .... WB97X-V
 Correlation Functional Correlation     .... WB97X-V
 Gradients option       PostSCFGGA      .... off
 Hybrid DFT is turned on
   Fraction HF Exchange ScalHFX         ....  0.167000
   Scaling of DF-GGA-X  ScalDFX         ....  0.000000
   Scaling of DF-GGA-C  ScalDFC         ....  1.000000
   Scaling of DF-LDA-C  ScalLDAC        ....  1.000000
   Perturbative correction              ....  0.000000
 Long-range corrected/Screened/Range-Separated Hybrid DFT is turned on
   Amount of maximum screened exact exchange              ....  0.833000
   Range separation parameter mu (erf(mu*r12)/r12)        ....  0.300000
   NL short-range parameter             ....  6.000000
   NL long-range parameter              ....  0.010000
 RI-approximation to the Coulomb term is turned on
   Number of AuxJ basis functions       .... 851
   RIJ-COSX (HFX calculated with COS-X)).... on


General Settings:
 Integral files         IntName         .... ./output/butyl_anthranilate/butyl_anthranilate
 Hartree-Fock type      HFTyp           .... RHF
 Total Charge           Charge          ....    0
 Multiplicity           Mult            ....    1
 Number of Electrons    NEL             ....   76
 Basis Dimension        Dim             ....  257
 Nuclear Repulsion      ENuc            ....    453.3340584965 Eh

Convergence Acceleration:
 AO-DIIS                CNVDIIS         .... on
   Start iteration      DIISMaxIt       ....    12
   Startup error        DIISStart       ....  0.200000
   # of expansion vecs  DIISMaxEq       ....     5
   Bias factor          DIISBfac        ....   1.050
   Max. coefficient     DIISMaxC        ....  10.000
 MO-DIIS                CNVKDIIS        .... off
 Trust-Rad. Augm. Hess. CNVTRAH         .... auto
   Auto Start mean grad. ratio tolernc. ....  1.125000
   Auto Start start iteration           ....    50
   Auto Start num. interpolation iter.  ....    10
   Max. Number of Micro iterations      ....    24
   Max. Number of Macro iterations      .... Maxiter - #DIIS iter
   Number of Davidson start vectors     ....     2
   Converg. threshold    (grad. norm)   ....   1.000e-05
   Grad. Scal. Fac. for Micro threshold ....   0.100
   Minimum threshold for Micro iter.    ....   1.000e-02
   NR start threshold (gradient norm)   ....   1.000e-04
   Initial trust radius                 ....   0.400
   Minimum AH scaling param. (alpha)    ....   1.000
   Maximum AH scaling param. (alpha)    .... 1000.000
   Quad. conv. algorithm                .... NR
   White noise on init. David. guess    .... on
   Maximum white noise                  ....   0.010
   Pseudo random numbers                .... off
   Inactive MOs                         .... canonical
   Orbital update algorithm             .... Taylor
   Preconditioner                       .... Diag
   Full preconditioner red. dimension   ....   250
 SOSCF                  CNVSOSCF        .... on
   Start iteration      SOSCFMaxIt      ....   150
   Startup grad/error   SOSCFStart      ....  0.003300
   Hessian update       SOSCFHessUp     .... L-BFGS
 Level Shifting         CNVShift        .... on
   Level shift para.    LevelShift      ....    0.2500
   Turn off err/grad.   ShiftErr        ....    0.0010
 Zerner damping         CNVZerner       .... off
 Static damping         CNVDamp         .... on
   Fraction old density DampFac         ....    0.7000
   Max. Damping (<1)    DampMax         ....    0.9800
   Min. Damping (>=0)   DampMin         ....    0.0000
   Turn off err/grad.   DampErr         ....    0.1000

SCF Procedure:
 Maximum # iterations   MaxIter         ....   125
 SCF integral mode      SCFMode         .... Direct
   Integral package                     .... SHARK and LIBINT hybrid scheme
 Reset frequency        DirectResetFreq ....    20
 Integral Threshold     Thresh          ....  2.500e-11 Eh
 Primitive CutOff       TCut            ....  2.500e-12 Eh

Convergence Tolerance:
 Convergence Check Mode ConvCheckMode   .... Total+1el-Energy
 Convergence forced     ConvForced      .... 0
 Energy Change          TolE            ....  1.000e-08 Eh
 1-El. energy change                    ....  1.000e-05 Eh
 Orbital Gradient       TolG            ....  1.000e-05
 Orbital Rotation angle TolX            ....  1.000e-05
 DIIS Error             TolErr          ....  5.000e-07

------------------------------
INITIAL GUESS: MODEL POTENTIAL
------------------------------
Loading Hartree-Fock densities                     ... done
Atomic calculation to generate a density for atom 0 (C  with ECP)
  Multiplicity assumed   :    1
  Atomic configuration   : 1s2 2s2 2p2 
  Number of open shells  : 1
  Command: /home/aspe232/Project/Software/ORCA/6_0_1/build/orca ./output/butyl_anthranilate/butyl_anthranilate_atom6.inp "" > ./output/butyl_anthranilate/butyl_anthranilate_atom6.out
Returned from the atomic calculation with res=0
Atomic calculation to generate a density for atom 4 (O  with ECP)
  Multiplicity assumed   :    3
  Atomic configuration   : 1s2 2s2 2p4 
  Number of open shells  : 1
  Command: /home/aspe232/Project/Software/ORCA/6_0_1/build/orca ./output/butyl_anthranilate/butyl_anthranilate_atom8.inp "" > ./output/butyl_anthranilate/butyl_anthranilate_atom8.out
Returned from the atomic calculation with res=0
Atomic calculation to generate a density for atom 13 (N  with ECP)
  Multiplicity assumed   :    4
  Atomic configuration   : 1s2 2s2 2p3 
  Number of open shells  : 1
  Command: /home/aspe232/Project/Software/ORCA/6_0_1/build/orca ./output/butyl_anthranilate/butyl_anthranilate_atom7.inp "" > ./output/butyl_anthranilate/butyl_anthranilate_atom7.out
Returned from the atomic calculation with res=0
Calculating cut-offs                               ... done
Initializing the effective Hamiltonian             ... done
Setting up the integral package (SHARK)            ... done
Starting the Coulomb interaction                   ... done (   0.1 sec)
Making the grid                                    ... done (   0.7 sec)
Mapping shells                                     ... done
Starting the XC term evaluation                    ... done (   0.1 sec)
  promolecular density results
     # of electrons  =    103.987010925
     EX              =    -56.193661405
     EC              =     -4.269504850
     EX+EC           =    -60.463166255
Transforming the Hamiltonian                       ... done (   0.0 sec)
Diagonalizing the Hamiltonian                      ... done (   0.0 sec)
Back transforming the eigenvectors                 ... done (   0.0 sec)
Now organizing SCF variables                       ... done
                      ------------------
                      INITIAL GUESS DONE (   2.4 sec)
                      ------------------
             **** ENERGY FILE WAS UPDATED (./output/butyl_anthranilate/butyl_anthranilate.en.tmp) ****
Finished Guess after   3.0 sec
Maximum memory used throughout the entire GUESS-calculation: 24.2 MB


           ************************************************************
           *        Program running with 40 parallel MPI-processes    *
           *              working on a common directory               *
           ************************************************************

-------------------------------------------------------------------------------------------
                                      ORCA LEAN-SCF
                              memory conserving SCF solver
-------------------------------------------------------------------------------------------

----------------------------------------D-I-I-S--------------------------------------------
Iteration    Energy (Eh)           Delta-E    RMSDP     MaxDP     DIISErr   Damp  Time(sec)
-------------------------------------------------------------------------------------------
               ***  Starting incremental Fock matrix formation  ***
    1    -113.2660288794071448     0.00e+00  3.40e-03  8.58e-02  1.98e-01  0.700   5.0
    2    -113.4595057717082227    -1.93e-01  2.51e-03  5.62e-02  1.12e-01  0.700   4.1
                               ***Turning on AO-DIIS***
    3    -113.5578857591240194    -9.84e-02  1.42e-03  3.16e-02  5.82e-02  0.700   3.9
    4    -113.6164394883091973    -5.86e-02  3.04e-03  6.58e-02  3.60e-02  0.000   3.8
    5    -113.7416434824340286    -1.25e-01  2.67e-04  8.18e-03  6.95e-03  0.000   3.9
    6    -113.7422249439623556    -5.81e-04  1.36e-04  6.01e-03  4.89e-03  0.000   3.7
                              *** Initializing SOSCF ***
---------------------------------------S-O-S-C-F--------------------------------------
Iteration    Energy (Eh)           Delta-E    RMSDP     MaxDP     MaxGrad    Time(sec)
--------------------------------------------------------------------------------------
    7    -113.7424020240413256    -1.77e-04  9.13e-05  3.89e-03  2.74e-03     3.7
               *** Restarting incremental Fock matrix formation ***
    8    -113.7424672503060492    -6.52e-05  6.26e-05  2.41e-03  1.13e-03     4.9
    9    -113.7424944013241657    -2.72e-05  7.90e-05  2.95e-03  4.74e-04     4.6
   10    -113.7425029189686256    -8.52e-06  2.40e-05  1.19e-03  3.57e-04     4.8
   11    -113.7425060969629840    -3.18e-06  8.22e-06  3.49e-04  4.83e-05     4.6
   12    -113.7425062067270574    -1.10e-07  3.89e-06  1.72e-04  4.71e-05     4.2
   13    -113.7425063605111291    -1.54e-07  1.18e-06  3.10e-05  1.54e-05     4.2
   14    -113.7425063676106447    -7.10e-09  8.58e-07  2.67e-05  9.60e-06     3.8
                 **** Energy Check signals convergence ****

               *****************************************************
               *                     SUCCESS                       *
               *           SCF CONVERGED AFTER  14 CYCLES          *
               *****************************************************

Recomputing exchange energy using gridx3       ... done (    4.663 sec)
Old exchange energy                            :    -14.816063159 Eh
New exchange energy                            :    -14.816089093 Eh
Exchange energy change after final integration :     -0.000025933 Eh
Total energy after final integration           :   -113.742532301 Eh
             **** ENERGY FILE WAS UPDATED (./output/butyl_anthranilate/butyl_anthranilate.en.tmp) ****

----------------
TOTAL SCF ENERGY
----------------

Total Energy       :       -113.74253230101176 Eh           -3095.09166 eV

Components:
Nuclear Repulsion  :        453.33405849652968 Eh           12335.84687 eV
Electronic Energy  :       -567.07656486414044 Eh          -15430.93782 eV
One Electron Energy:      -1074.58185033602490 Eh          -29240.85872 eV
Two Electron Energy:        507.50528547188452 Eh           13809.92090 eV

Virial components:
Potential Energy   :       -201.58936627851975 Eh           -5485.52554 eV
Kinetic Energy     :         87.84683397750798 Eh            2390.43388 eV
Virial Ratio       :          2.29478237462871

DFT components:
N(Alpha)           :       38.000041506365 electrons
N(Beta)            :       38.000041506365 electrons
N(Total)           :       76.000083012731 electrons
E(X)               :      -16.479024038306 Eh       
E(C)               :       -2.912106681425 Eh       
E(XC)              :      -19.391130719731 Eh       

---------------
SCF CONVERGENCE
---------------

  Last Energy change         ...    7.0995e-09  Tolerance :   1.0000e-08
  Last MAX-Density change    ...    2.6678e-05  Tolerance :   1.0000e-07
  Last RMS-Density change    ...    8.5789e-07  Tolerance :   5.0000e-09
  Last DIIS Error            ...    2.7431e-03  Tolerance :   5.0000e-07
  Last Orbital Gradient      ...    9.6004e-06  Tolerance :   1.0000e-05
  Last Orbital Rotation      ...    4.6407e-05  Tolerance :   1.0000e-05


----------------
ORBITAL ENERGIES
----------------

  NO   OCC          E(Eh)            E(eV) 
   0   2.0000      -1.209387       -32.9091 
   1   2.0000      -1.119938       -30.4751 
   2   2.0000      -1.043566       -28.3969 
   3   2.0000      -0.983583       -26.7646 
   4   2.0000      -0.942096       -25.6357 
   5   2.0000      -0.912429       -24.8284 
   6   2.0000      -0.873384       -23.7660 
   7   2.0000      -0.862442       -23.4682 
   8   2.0000      -0.799055       -21.7434 
   9   2.0000      -0.763150       -20.7664 
  10   2.0000      -0.740255       -20.1434 
  11   2.0000      -0.710758       -19.3407 
  12   2.0000      -0.685744       -18.6600 
  13   2.0000      -0.655160       -17.8278 
  14   2.0000      -0.628138       -17.0925 
  15   2.0000      -0.623563       -16.9680 
  16   2.0000      -0.599274       -16.3071 
  17   2.0000      -0.584081       -15.8936 
  18   2.0000      -0.576455       -15.6861 
  19   2.0000      -0.558137       -15.1877 
  20   2.0000      -0.554948       -15.1009 
  21   2.0000      -0.549442       -14.9511 
  22   2.0000      -0.548077       -14.9139 
  23   2.0000      -0.534564       -14.5462 
  24   2.0000      -0.512359       -13.9420 
  25   2.0000      -0.495553       -13.4847 
  26   2.0000      -0.491784       -13.3821 
  27   2.0000      -0.478519       -13.0212 
  28   2.0000      -0.469231       -12.7684 
  29   2.0000      -0.454987       -12.3808 
  30   2.0000      -0.446961       -12.1624 
  31   2.0000      -0.442452       -12.0397 
  32   2.0000      -0.430771       -11.7219 
  33   2.0000      -0.421777       -11.4771 
  34   2.0000      -0.397140       -10.8067 
  35   2.0000      -0.382811       -10.4168 
  36   2.0000      -0.356081        -9.6895 
  37   2.0000      -0.305188        -8.3046 
  38   0.0000       0.024147         0.6571 
  39   0.0000       0.070002         1.9049 
  40   0.0000       0.078273         2.1299 
  41   0.0000       0.089592         2.4379 
  42   0.0000       0.090133         2.4527 
  43   0.0000       0.103149         2.8068 
  44   0.0000       0.104625         2.8470 
  45   0.0000       0.108664         2.9569 
  46   0.0000       0.118031         3.2118 
  47   0.0000       0.128201         3.4885 
  48   0.0000       0.132078         3.5940 
*Only the first 10 virtual orbitals were printed.

                    ********************************
                    * MULLIKEN POPULATION ANALYSIS *
                    ********************************

-----------------------
MULLIKEN ATOMIC CHARGES
-----------------------
   0 C :   -0.093810
   1 C :   -0.092873
   2 C :   -0.068454
   3 C :    0.112708
   4 O :   -0.329045
   5 C :    0.246719
   6 O :   -0.366995
   7 C :   -0.059998
   8 C :    0.048690
   9 C :   -0.020428
  10 C :    0.005260
  11 C :    0.002346
  12 C :    0.059873
  13 N :   -0.187545
  14 H :    0.042975
  15 H :    0.031579
  16 H :    0.040515
  17 H :    0.033957
  18 H :    0.043092
  19 H :    0.052324
  20 H :    0.055501
  21 H :    0.056813
  22 H :    0.059275
  23 H :    0.031821
  24 H :    0.019758
  25 H :    0.021116
  26 H :    0.016743
  27 H :    0.125428
  28 H :    0.112653
Sum of atomic charges:    0.0000000

--------------------------------
MULLIKEN REDUCED ORBITAL CHARGES
--------------------------------
  0 C s       :     0.975009  s :     0.975009
      pz      :     0.998629  p :     3.044778
      px      :     1.032201
      py      :     1.013948
      dz2     :     0.024129  d :     0.074022
      dxz     :     0.007695
      dyz     :     0.011603
      dx2y2   :     0.022556
      dxy     :     0.008039

  1 C s       :     1.015614  s :     1.015614
      pz      :     1.021755  p :     2.976155
      px      :     0.934815
      py      :     1.019585
      dz2     :     0.025004  d :     0.101103
      dxz     :     0.019689
      dyz     :     0.011836
      dx2y2   :     0.025749
      dxy     :     0.018825

  2 C s       :     1.012847  s :     1.012847
      pz      :     0.969968  p :     2.961022
      px      :     0.949426
      py      :     1.041628
      dz2     :     0.020770  d :     0.094585
      dxz     :     0.020589
      dyz     :     0.014976
      dx2y2   :     0.021255
      dxy     :     0.016996

  3 C s       :     1.030591  s :     1.030591
      pz      :     1.015443  p :     2.719088
      px      :     0.651950
      py      :     1.051694
      dz2     :     0.027167  d :     0.137613
      dxz     :     0.034628
      dyz     :     0.015598
      dx2y2   :     0.032527
      dxy     :     0.027694

  4 O s       :     1.703272  s :     1.703272
      pz      :     1.774481  p :     4.589805
      px      :     1.266307
      py      :     1.549018
      dz2     :     0.004578  d :     0.035968
      dxz     :     0.005786
      dyz     :     0.004371
      dx2y2   :     0.010536
      dxy     :     0.010697

  5 C s       :     1.140193  s :     1.140193
      pz      :     0.702863  p :     2.364177
      px      :     0.902032
      py      :     0.759281
      dz2     :     0.018454  d :     0.248911
      dxz     :     0.034312
      dyz     :     0.049090
      dx2y2   :     0.077123
      dxy     :     0.069933

  6 O s       :     1.790291  s :     1.790291
      pz      :     1.418393  p :     4.543166
      px      :     1.734607
      py      :     1.390166
      dz2     :     0.004942  d :     0.033538
      dxz     :     0.002775
      dyz     :     0.009622
      dx2y2   :     0.008077
      dxy     :     0.008123

  7 C s       :     1.002195  s :     1.002195
      pz      :     1.110240  p :     2.953458
      px      :     0.844789
      py      :     0.998430
      dz2     :     0.009840  d :     0.104344
      dxz     :     0.013319
      dyz     :     0.018109
      dx2y2   :     0.035505
      dxy     :     0.027571

  8 C s       :     1.018574  s :     1.018574
      pz      :     0.909761  p :     2.835095
      px      :     0.968097
      py      :     0.957236
      dz2     :     0.006068  d :     0.097642
      dxz     :     0.021342
      dyz     :     0.013749
      dx2y2   :     0.023599
      dxy     :     0.032882

  9 C s       :     0.990464  s :     0.990464
      pz      :     1.010794  p :     2.938754
      px      :     0.953371
      py      :     0.974590
      dz2     :     0.006177  d :     0.091210
      dxz     :     0.018331
      dyz     :     0.009313
      dx2y2   :     0.027730
      dxy     :     0.029659

 10 C s       :     1.020298  s :     1.020298
      pz      :     0.918774  p :     2.875712
      px      :     0.986495
      py      :     0.970443
      dz2     :     0.009756  d :     0.098731
      dxz     :     0.008569
      dyz     :     0.022210
      dx2y2   :     0.035347
      dxy     :     0.022849

 11 C s       :     0.983241  s :     0.983241
      pz      :     1.020177  p :     2.926429
      px      :     0.921000
      py      :     0.985251
      dz2     :     0.006109  d :     0.087985
      dxz     :     0.016051
      dyz     :     0.011923
      dx2y2   :     0.024262
      dxy     :     0.029639

 12 C s       :     1.080768  s :     1.080768
      pz      :     0.884287  p :     2.703100
      px      :     0.972513
      py      :     0.846300
      dz2     :     0.017378  d :     0.156259
      dxz     :     0.027080
      dyz     :     0.033501
      dx2y2   :     0.037118
      dxy     :     0.041182

 13 N s       :     1.221790  s :     1.221790
      pz      :     1.660321  p :     3.933311
      px      :     1.143972
      py      :     1.129018
      dz2     :     0.003440  d :     0.032444
      dxz     :     0.003795
      dyz     :     0.004859
      dx2y2   :     0.009717
      dxy     :     0.010633

 14 H s       :     0.914106  s :     0.914106
      pz      :     0.009801  p :     0.042919
      px      :     0.010890
      py      :     0.022229

 15 H s       :     0.924469  s :     0.924469
      pz      :     0.021541  p :     0.043951
      px      :     0.010892
      py      :     0.011518

 16 H s       :     0.916105  s :     0.916105
      pz      :     0.010474  p :     0.043379
      px      :     0.022860
      py      :     0.010045

 17 H s       :     0.923917  s :     0.923917
      pz      :     0.009639  p :     0.042126
      px      :     0.010954
      py      :     0.021533

 18 H s       :     0.914712  s :     0.914712
      pz      :     0.020247  p :     0.042196
      px      :     0.011162
      py      :     0.010787

 19 H s       :     0.906188  s :     0.906188
      pz      :     0.017989  p :     0.041488
      px      :     0.011568
      py      :     0.011932

 20 H s       :     0.901693  s :     0.901693
      pz      :     0.009167  p :     0.042806
      px      :     0.010623
      py      :     0.023016

 21 H s       :     0.903342  s :     0.903342
      pz      :     0.010418  p :     0.039845
      px      :     0.006525
      py      :     0.022901

 22 H s       :     0.899302  s :     0.899302
      pz      :     0.020338  p :     0.041423
      px      :     0.007104
      py      :     0.013981

 23 H s       :     0.917615  s :     0.917615
      pz      :     0.014536  p :     0.050564
      px      :     0.015986
      py      :     0.020042

 24 H s       :     0.929931  s :     0.929931
      pz      :     0.015847  p :     0.050311
      px      :     0.011938
      py      :     0.022526

 25 H s       :     0.929741  s :     0.929741
      pz      :     0.013209  p :     0.049143
      px      :     0.025870
      py      :     0.010064

 26 H s       :     0.932158  s :     0.932158
      pz      :     0.016406  p :     0.051099
      px      :     0.015630
      py      :     0.019063

 27 H s       :     0.793480  s :     0.793480
      pz      :     0.028003  p :     0.081091
      px      :     0.038675
      py      :     0.014412

 28 H s       :     0.806656  s :     0.806656
      pz      :     0.029201  p :     0.080691
      px      :     0.022958
      py      :     0.028533



                     *******************************
                     * LOEWDIN POPULATION ANALYSIS *
                     *******************************

----------------------
LOEWDIN ATOMIC CHARGES
----------------------
   0 C :   -0.122807
   1 C :   -0.097895
   2 C :   -0.086116
   3 C :   -0.029034
   4 O :   -0.052050
   5 C :    0.025452
   6 O :   -0.195957
   7 C :   -0.054392
   8 C :   -0.007774
   9 C :   -0.069057
  10 C :   -0.027940
  11 C :   -0.053973
  12 C :    0.002871
  13 N :    0.004533
  14 H :    0.049515
  15 H :    0.042725
  16 H :    0.047931
  17 H :    0.045049
  18 H :    0.051240
  19 H :    0.050770
  20 H :    0.049569
  21 H :    0.060650
  22 H :    0.050570
  23 H :    0.054501
  24 H :    0.042684
  25 H :    0.050355
  26 H :    0.043611
  27 H :    0.063638
  28 H :    0.061333

-------------------------------
LOEWDIN REDUCED ORBITAL CHARGES
-------------------------------
  0 C s       :     0.781337  s :     0.781337
      pz      :     1.019354  p :     3.098214
      px      :     1.044811
      py      :     1.034049
      dz2     :     0.081902  d :     0.243256
      dxz     :     0.024191
      dyz     :     0.036373
      dx2y2   :     0.075457
      dxy     :     0.025334

  1 C s       :     0.767665  s :     0.767665
      pz      :     1.019755  p :     3.008794
      px      :     0.957288
      py      :     1.031751
      dz2     :     0.081025  d :     0.321436
      dxz     :     0.062784
      dyz     :     0.035694
      dx2y2   :     0.080966
      dxy     :     0.060967

  2 C s       :     0.771034  s :     0.771034
      pz      :     0.993875  p :     3.006844
      px      :     0.966751
      py      :     1.046218
      dz2     :     0.067972  d :     0.308238
      dxz     :     0.067682
      dyz     :     0.047619
      dx2y2   :     0.069224
      dxy     :     0.055741

  3 C s       :     0.769095  s :     0.769095
      pz      :     1.039521  p :     2.847228
      px      :     0.739055
      py      :     1.068652
      dz2     :     0.084777  d :     0.412711
      dxz     :     0.096852
      dyz     :     0.048636
      dx2y2   :     0.102032
      dxy     :     0.080413

  4 O s       :     1.396888  s :     1.396888
      pz      :     1.673470  p :     4.557465
      px      :     1.324393
      py      :     1.559602
      dz2     :     0.010804  d :     0.097696
      dxz     :     0.018395
      dyz     :     0.007419
      dx2y2   :     0.027208
      dxy     :     0.033870

  5 C s       :     0.780550  s :     0.780550
      pz      :     0.726155  p :     2.523711
      px      :     0.937338
      py      :     0.860217
      dz2     :     0.059708  d :     0.670287
      dxz     :     0.085829
      dyz     :     0.125821
      dx2y2   :     0.204931
      dxy     :     0.193997

  6 O s       :     1.557282  s :     1.557282
      pz      :     1.395471  p :     4.571170
      px      :     1.683487
      py      :     1.492212
      dz2     :     0.008794  d :     0.067504
      dxz     :     0.004919
      dyz     :     0.016400
      dx2y2   :     0.017791
      dxy     :     0.019601

  7 C s       :     0.780167  s :     0.780167
      pz      :     0.983606  p :     2.938120
      px      :     0.946133
      py      :     1.008382
      dz2     :     0.033472  d :     0.336105
      dxz     :     0.038966
      dyz     :     0.051843
      dx2y2   :     0.115684
      dxy     :     0.096140

  8 C s       :     0.801480  s :     0.801480
      pz      :     0.861701  p :     2.897930
      px      :     1.030957
      py      :     1.005272
      dz2     :     0.022261  d :     0.308364
      dxz     :     0.057142
      dyz     :     0.038440
      dx2y2   :     0.077318
      dxy     :     0.113203

  9 C s       :     0.796975  s :     0.796975
      pz      :     0.936462  p :     2.975387
      px      :     1.016026
      py      :     1.022900
      dz2     :     0.022536  d :     0.296694
      dxz     :     0.051973
      dyz     :     0.025510
      dx2y2   :     0.095753
      dxy     :     0.100923

 10 C s       :     0.802858  s :     0.802858
      pz      :     0.862206  p :     2.913410
      px      :     1.039374
      py      :     1.011829
      dz2     :     0.031664  d :     0.311673
      dxz     :     0.019963
      dyz     :     0.064511
      dx2y2   :     0.120500
      dxy     :     0.075035

 11 C s       :     0.795942  s :     0.795942
      pz      :     0.949922  p :     2.972130
      px      :     1.000737
      py      :     1.021470
      dz2     :     0.021837  d :     0.285901
      dxz     :     0.045071
      dyz     :     0.032589
      dx2y2   :     0.081523
      dxy     :     0.104881

 12 C s       :     0.784774  s :     0.784774
      pz      :     0.851376  p :     2.762215
      px      :     1.016744
      py      :     0.894095
      dz2     :     0.051600  d :     0.450141
      dxz     :     0.072100
      dyz     :     0.087717
      dx2y2   :     0.114586
      dxy     :     0.124138

 13 N s       :     0.992163  s :     0.992163
      pz      :     1.510208  p :     3.893040
      px      :     1.209423
      py      :     1.173410
      dz2     :     0.009509  d :     0.110263
      dxz     :     0.011545
      dyz     :     0.013730
      dx2y2   :     0.036408
      dxy     :     0.039071

 14 H s       :     0.805869  s :     0.805869
      pz      :     0.039011  p :     0.144616
      px      :     0.041768
      py      :     0.063838

 15 H s       :     0.809622  s :     0.809622
      pz      :     0.062577  p :     0.147652
      px      :     0.042323
      py      :     0.042753

 16 H s       :     0.806108  s :     0.806108
      pz      :     0.040275  p :     0.145961
      px      :     0.065727
      py      :     0.039959

 17 H s       :     0.808907  s :     0.808907
      pz      :     0.039881  p :     0.146044
      px      :     0.040592
      py      :     0.065571

 18 H s       :     0.803100  s :     0.803100
      pz      :     0.062970  p :     0.145661
      px      :     0.040901
      py      :     0.041789

 19 H s       :     0.802813  s :     0.802813
      pz      :     0.058284  p :     0.146418
      px      :     0.043211
      py      :     0.044922

 20 H s       :     0.803039  s :     0.803039
      pz      :     0.039176  p :     0.147391
      px      :     0.040831
      py      :     0.067384

 21 H s       :     0.804423  s :     0.804423
      pz      :     0.040447  p :     0.134927
      px      :     0.026329
      py      :     0.068151

 22 H s       :     0.807931  s :     0.807931
      pz      :     0.063524  p :     0.141499
      px      :     0.029316
      py      :     0.048660

 23 H s       :     0.796623  s :     0.796623
      pz      :     0.043270  p :     0.148876
      px      :     0.049268
      py      :     0.056338

 24 H s       :     0.804829  s :     0.804829
      pz      :     0.049213  p :     0.152487
      px      :     0.040069
      py      :     0.063206

 25 H s       :     0.802503  s :     0.802503
      pz      :     0.040584  p :     0.147142
      px      :     0.070737
      py      :     0.035821

 26 H s       :     0.804466  s :     0.804466
      pz      :     0.049621  p :     0.151923
      px      :     0.046101
      py      :     0.056201

 27 H s       :     0.701176  s :     0.701176
      pz      :     0.089792  p :     0.235186
      px      :     0.100328
      py      :     0.045066

 28 H s       :     0.707883  s :     0.707883
      pz      :     0.089367  p :     0.230784
      px      :     0.063542
      py      :     0.077875



                      *****************************
                      * MAYER POPULATION ANALYSIS *
                      *****************************

  NA   - Mulliken gross atomic population
  ZA   - Total nuclear charge
  QA   - Mulliken gross atomic charge
  VA   - Mayer's total valence
  BVA  - Mayer's bonded valence
  FA   - Mayer's free valence

  ATOM       NA         ZA         QA         VA         BVA        FA
  0 C      4.0938     4.0000    -0.0938     3.9668     3.9668     0.0000
  1 C      4.0929     4.0000    -0.0929     4.0103     4.0103     0.0000
  2 C      4.0685     4.0000    -0.0685     3.9495     3.9495     0.0000
  3 C      3.8873     4.0000     0.1127     3.8993     3.8993     0.0000
  4 O      6.3290     6.0000    -0.3290     2.0243     2.0243     0.0000
  5 C      3.7533     4.0000     0.2467     4.1016     4.1016    -0.0000
  6 O      6.3670     6.0000    -0.3670     1.9910     1.9910    -0.0000
  7 C      4.0600     4.0000    -0.0600     4.0843     4.0843    -0.0000
  8 C      3.9513     4.0000     0.0487     4.0550     4.0550     0.0000
  9 C      4.0204     4.0000    -0.0204     4.0390     4.0390    -0.0000
 10 C      3.9947     4.0000     0.0053     4.0931     4.0931     0.0000
 11 C      3.9977     4.0000     0.0023     3.9961     3.9961     0.0000
 12 C      3.9401     4.0000     0.0599     4.1891     4.1891    -0.0000
 13 N      5.1875     5.0000    -0.1875     3.2543     3.2543    -0.0000
 14 H      0.9570     1.0000     0.0430     1.0279     1.0279     0.0000
 15 H      0.9684     1.0000     0.0316     1.0299     1.0299     0.0000
 16 H      0.9595     1.0000     0.0405     1.0281     1.0281     0.0000
 17 H      0.9660     1.0000     0.0340     1.0245     1.0245    -0.0000
 18 H      0.9569     1.0000     0.0431     1.0201     1.0201     0.0000
 19 H      0.9477     1.0000     0.0523     1.0167     1.0167    -0.0000
 20 H      0.9445     1.0000     0.0555     1.0161     1.0161     0.0000
 21 H      0.9432     1.0000     0.0568     1.0166     1.0166     0.0000
 22 H      0.9407     1.0000     0.0593     1.0147     1.0147     0.0000
[...]
 34:    884.77   0.001617    8.17  0.000570  (-0.007876 -0.006727 -0.021519)
 35:    889.13   0.001821    9.20  0.000639  (-0.014082 -0.019279  0.008309)
 36:    921.53   0.000313    1.58  0.000106  (-0.006370  0.003497 -0.007285)
 37:    991.55   0.000083    0.42  0.000026  (-0.000750  0.004988  0.000731)
 38:   1003.47   0.000162    0.82  0.000050  ( 0.002986  0.000409 -0.006414)
 39:   1009.05   0.002044   10.33  0.000632  ( 0.024819  0.002641 -0.003041)
 40:   1020.32   0.000010    0.05  0.000003  ( 0.000472  0.000387 -0.001666)
 41:   1047.28   0.000543    2.74  0.000162  (-0.007875 -0.005788 -0.008144)
 42:   1074.53   0.001672    8.45  0.000486  (-0.002607 -0.021490 -0.004118)
 43:   1109.07   0.001098    5.55  0.000309  ( 0.005114  0.016781 -0.001148)
 44:   1126.48   0.000174    0.88  0.000048  ( 0.003546 -0.005931  0.000714)
 45:   1167.94   0.017876   90.34  0.004776  (-0.064809  0.023746  0.003498)
 46:   1168.39   0.006508   32.89  0.001738  (-0.038700  0.013283 -0.008010)
 47:   1201.46   0.019233   97.20  0.004996  ( 0.059271 -0.038401 -0.002811)
 48:   1204.85   0.004928   24.90  0.001276  (-0.032115 -0.015284 -0.003365)
 49:   1215.55   0.009617   48.60  0.002469  (-0.047559  0.014388  0.000205)
 50:   1300.07   0.000312    1.58  0.000075  ( 0.008237 -0.002326 -0.001275)
 51:   1309.08   0.082696  417.91  0.019713  (-0.127094  0.059580  0.003282)
 52:   1323.93   0.000516    2.61  0.000122  ( 0.010077 -0.004448  0.000633)
 53:   1352.17   0.025365  128.18  0.005854  (-0.069293  0.032440  0.000043)
 54:   1370.60   0.002101   10.62  0.000478  ( 0.013696  0.017038  0.000760)
 55:   1375.86   0.016275   82.25  0.003691  (-0.058987  0.013371 -0.005756)
 56:   1393.86   0.014875   75.17  0.003330  (-0.057700 -0.000566 -0.000846)
 57:   1409.27   0.026232  132.56  0.005809  ( 0.069523 -0.031224  0.000528)
 58:   1416.00   0.005761   29.12  0.001270  ( 0.034618 -0.008107  0.002364)
 59:   1455.78   0.001777    8.98  0.000381  (-0.008837 -0.016298  0.006108)
 60:   1475.44   0.002107   10.65  0.000446  ( 0.020101 -0.003901 -0.005137)
 61:   1519.71   0.001415    7.15  0.000291  ( 0.013403 -0.004089 -0.009708)
 62:   1521.03   0.000249    1.26  0.000051  (-0.001378 -0.006942  0.001030)
 63:   1527.45   0.001830    9.25  0.000374  (-0.012105  0.014289  0.004822)
 64:   1530.91   0.004703   23.77  0.000959  (-0.025053 -0.018143  0.001370)
 65:   1535.70   0.003123   15.78  0.000635  ( 0.000039  0.005492  0.024584)
 66:   1537.41   0.003376   17.06  0.000685  ( 0.023698 -0.009816 -0.005224)
 67:   1563.42   0.006582   33.26  0.001314  (-0.020867  0.029039  0.005918)
 68:   1641.67   0.032110  162.27  0.006104  (-0.022551 -0.074703  0.003809)
 69:   1683.99   0.030228  152.76  0.005602  (-0.046253  0.058737  0.003487)
 70:   1725.15   0.016669   84.24  0.003015  (-0.031294 -0.045090 -0.001679)
 71:   1812.93   0.069943  353.47  0.012040  (-0.060396 -0.091601  0.001088)
 72:   3093.81   0.006924   34.99  0.000698  (-0.014989  0.021103 -0.005327)
 73:   3104.52   0.004834   24.43  0.000486  (-0.014618 -0.013994  0.008737)
 74:   3111.17   0.002017   10.19  0.000202  ( 0.005635  0.006679 -0.011223)
 75:   3142.77   0.006914   34.94  0.000687  ( 0.020323 -0.007546 -0.014718)
 76:   3146.14   0.003451   17.44  0.000342  ( 0.001715  0.002461  0.018258)
 77:   3169.00   0.001951    9.86  0.000192  ( 0.002479 -0.013534 -0.001684)
 78:   3192.63   0.004397   22.22  0.000430  ( 0.017908 -0.008955 -0.005377)
 79:   3196.43   0.005111   25.83  0.000499  ( 0.008874  0.008000  0.018873)
 80:   3217.03   0.001359    6.87  0.000132  (-0.000285  0.010207 -0.005247)
 81:   3243.93   0.000892    4.51  0.000086  (-0.001308 -0.009133 -0.000846)
 82:   3260.45   0.001936    9.79  0.000185  (-0.010779  0.008213  0.001308)
 83:   3276.06   0.001048    5.30  0.000100  (-0.008755 -0.004814  0.000061)
 84:   3295.99   0.000669    3.38  0.000063  (-0.005200 -0.006007 -0.000436)
 85:   3640.28   0.022448  113.44  0.001924  (-0.037638 -0.021509  0.006715)
 86:   3802.78   0.020339  102.79  0.001669  (-0.035980  0.019306  0.001323)

* The epsilon (eps) is given for a Dirac delta lineshape.
** The dipole moment derivative (T) already includes vibrational overlap.

The first frequency considered to be a vibration is 6
The total number of vibrations considered is 81


--------------------------
THERMOCHEMISTRY AT 298.15K
--------------------------

Temperature         ...   298.15 K
Pressure            ...     1.00 atm
Total Mass          ...   193.25 AMU
Quasi RRHO          ...     True
Cut-Off Frequency   ...     1.00 cm^-1

Throughout the following assumptions are being made:
  (1) The electronic state is orbitally nondegenerate
  (2) There are no thermally accessible electronically excited states
  (3) Hindered rotations indicated by low frequency modes are not
      treated as such but are treated as vibrations and this may
      cause some error
  (4) All equations used are the standard statistical mechanics
      equations for an ideal gas
  (5) All vibrations are strictly harmonic

freq.      31.43  E(vib)   ...       0.55 
freq.      37.84  E(vib)   ...       0.54 
freq.      45.01  E(vib)   ...       0.53 
freq.      89.08  E(vib)   ...       0.47 
freq.     119.92  E(vib)   ...       0.44 
freq.     140.36  E(vib)   ...       0.41 
freq.     181.86  E(vib)   ...       0.37 
freq.     221.70  E(vib)   ...       0.33 
freq.     243.20  E(vib)   ...       0.31 
freq.     281.92  E(vib)   ...       0.28 
freq.     310.48  E(vib)   ...       0.26 
freq.     323.50  E(vib)   ...       0.25 
freq.     374.07  E(vib)   ...       0.21 
freq.     383.31  E(vib)   ...       0.20 
freq.     426.29  E(vib)   ...       0.18 
freq.     449.51  E(vib)   ...       0.17 
freq.     472.36  E(vib)   ...       0.15 
freq.     546.82  E(vib)   ...       0.12 
freq.     571.78  E(vib)   ...       0.11 
freq.     582.54  E(vib)   ...       0.11 
freq.     600.51  E(vib)   ...       0.10 
freq.     696.58  E(vib)   ...       0.07 
freq.     733.91  E(vib)   ...       0.06 
freq.     769.91  E(vib)   ...       0.05 
freq.     780.12  E(vib)   ...       0.05 
freq.     805.42  E(vib)   ...       0.05 
freq.     832.81  E(vib)   ...       0.04 
freq.     854.21  E(vib)   ...       0.04 
freq.     884.77  E(vib)   ...       0.04 
freq.     889.13  E(vib)   ...       0.04 
freq.     921.53  E(vib)   ...       0.03 
freq.     991.55  E(vib)   ...       0.02 
freq.    1003.47  E(vib)   ...       0.02 
freq.    1009.05  E(vib)   ...       0.02 
freq.    1020.32  E(vib)   ...       0.02 
freq.    1047.28  E(vib)   ...       0.02 
freq.    1074.53  E(vib)   ...       0.02 
freq.    1109.07  E(vib)   ...       0.02 
freq.    1126.48  E(vib)   ...       0.01 
freq.    1167.94  E(vib)   ...       0.01 
freq.    1168.39  E(vib)   ...       0.01 
freq.    1201.46  E(vib)   ...       0.01 
freq.    1204.85  E(vib)   ...       0.01 
freq.    1215.55  E(vib)   ...       0.01 
freq.    1300.07  E(vib)   ...       0.01 
freq.    1309.08  E(vib)   ...       0.01 
freq.    1323.93  E(vib)   ...       0.01 
freq.    1352.17  E(vib)   ...       0.01 
freq.    1370.60  E(vib)   ...       0.01 
freq.    1375.86  E(vib)   ...       0.01 
freq.    1393.86  E(vib)   ...       0.00 
freq.    1409.27  E(vib)   ...       0.00 
freq.    1416.00  E(vib)   ...       0.00 
freq.    1455.78  E(vib)   ...       0.00 
freq.    1475.44  E(vib)   ...       0.00 
freq.    1519.71  E(vib)   ...       0.00 
freq.    1521.03  E(vib)   ...       0.00 
freq.    1527.45  E(vib)   ...       0.00 
freq.    1530.91  E(vib)   ...       0.00 
freq.    1535.70  E(vib)   ...       0.00 
freq.    1537.41  E(vib)   ...       0.00 
freq.    1563.42  E(vib)   ...       0.00 
freq.    1641.67  E(vib)   ...       0.00 
freq.    1683.99  E(vib)   ...       0.00 
freq.    1725.15  E(vib)   ...       0.00 
freq.    1812.93  E(vib)   ...       0.00 
freq.    3093.81  E(vib)   ...       0.00 
freq.    3104.52  E(vib)   ...       0.00 
freq.    3111.17  E(vib)   ...       0.00 
freq.    3142.77  E(vib)   ...       0.00 
freq.    3146.14  E(vib)   ...       0.00 
freq.    3169.00  E(vib)   ...       0.00 
freq.    3192.63  E(vib)   ...       0.00 
freq.    3196.43  E(vib)   ...       0.00 
freq.    3217.03  E(vib)   ...       0.00 
freq.    3243.93  E(vib)   ...       0.00 
freq.    3260.45  E(vib)   ...       0.00 
freq.    3276.06  E(vib)   ...       0.00 
freq.    3295.99  E(vib)   ...       0.00 
freq.    3640.28  E(vib)   ...       0.00 
freq.    3802.78  E(vib)   ...       0.00 

------------
INNER ENERGY
------------

The inner energy is: U= E(el) + E(ZPE) + E(vib) + E(rot) + E(trans)
    E(el)   - is the total energy from the electronic structure calculation
              = E(kin-el) + E(nuc-el) + E(el-el) + E(nuc-nuc)
    E(ZPE)  - the the zero temperature vibrational energy from the frequency calculation
    E(vib)  - the the finite temperature correction to E(ZPE) due to population
              of excited vibrational states
    E(rot)  - is the rotational thermal energy
    E(trans)- is the translational thermal energy

Summary of contributions to the inner energy U:
Electronic energy                ...   -113.81381110 Eh
Zero point energy                ...      0.25200234 Eh     158.13 kcal/mol
Thermal vibrational correction   ...      0.01092650 Eh       6.86 kcal/mol
Thermal rotational correction    ...      0.00141627 Eh       0.89 kcal/mol
Thermal translational correction ...      0.00141627 Eh       0.89 kcal/mol
-----------------------------------------------------------------------
Total thermal energy                   -113.54804971 Eh


Summary of corrections to the electronic energy:
(perhaps to be used in another calculation)
Total thermal correction                  0.01375904 Eh       8.63 kcal/mol
Non-thermal (ZPE) correction              0.25200234 Eh     158.13 kcal/mol
-----------------------------------------------------------------------
Total correction                          0.26576139 Eh     166.77 kcal/mol


--------
ENTHALPY
--------

The enthalpy is H = U + kB*T
                kB is Boltzmann's constant
Total thermal energy              ...   -113.54804971 Eh 
Thermal Enthalpy correction       ...      0.00094421 Eh       0.59 kcal/mol
-----------------------------------------------------------------------
Total Enthalpy                    ...   -113.54710550 Eh


Note: Only C1 symmetry has been detected, increase convergence thresholds 
      if your molecule has a higher symmetry. Symmetry factor of 1.0 is   
      used for the rotational entropy correction. 
 

Note: Rotational entropy computed according to Herzberg 
Infrared and Raman Spectra, Chapter V,1, Van Nostrand Reinhold, 1945 
Point Group:  C1, Symmetry Number:   1  
Rotational constants in cm-1:     0.058691     0.010475     0.009212 

Vibrational entropy computed according to the QRRHO of S. Grimme
Chem.Eur.J. 2012 18 9955 using a reference frequency of 100.0 cm-1


-------
ENTROPY
-------

The entropy contributions are T*S = T*(S(el)+S(vib)+S(rot)+S(trans))
     S(el)   - electronic entropy
     S(vib)  - vibrational entropy
     S(rot)  - rotational entropy
     S(trans)- translational entropy
The entropies will be listed as multiplied by the temperature to get
units of energy

Electronic entropy                ...      0.00000000 Eh      0.00 kcal/mol
Vibrational entropy               ...      0.01919418 Eh     12.04 kcal/mol
Rotational entropy                ...      0.01521436 Eh      9.55 kcal/mol
Translational entropy             ...      0.01980427 Eh     12.43 kcal/mol
-----------------------------------------------------------------------
Final entropy term                ...      0.05421281 Eh     34.02 kcal/mol

In case the symmetry of your molecule has not been determined correctly
or in case you have a reason to use a different symmetry number we print 
out the resulting rotational entropy values for sn=1,12:

 non-linear molecules -----------------------------------
|  sn= 1 | S(rot)=       0.01521436 Eh      9.55 kcal/mol|
|  sn= 2 | S(rot)=       0.01455990 Eh      9.14 kcal/mol|
|  sn= 3 | S(rot)=       0.01417707 Eh      8.90 kcal/mol|
|  sn= 4 | S(rot)=       0.01390544 Eh      8.73 kcal/mol|
|  sn= 5 | S(rot)=       0.01369476 Eh      8.59 kcal/mol|
|  sn= 6 | S(rot)=       0.01352261 Eh      8.49 kcal/mol|
|  sn= 7 | S(rot)=       0.01337707 Eh      8.39 kcal/mol|
|  sn= 8 | S(rot)=       0.01325099 Eh      8.32 kcal/mol|
|  sn= 9 | S(rot)=       0.01313978 Eh      8.25 kcal/mol|
|  sn=10 | S(rot)=       0.01304030 Eh      8.18 kcal/mol|
|  sn=11 | S(rot)=       0.01295031 Eh      8.13 kcal/mol|
|  sn=12 | S(rot)=       0.01286815 Eh      8.07 kcal/mol|
 linear molecules ---------------------------------------
|  Dinfh | S(rot)=       0.00975144 Eh      6.12 kcal/mol|
|  Cinfv | S(rot)=       0.01040590 Eh      6.53 kcal/mol|
 --------------------------------------------------------


-------------------
GIBBS FREE ENERGY
-------------------

The Gibbs free energy is G = H - T*S

Total enthalpy                    ...   -113.54710550 Eh 
Total entropy correction          ...     -0.05421281 Eh    -34.02 kcal/mol
-----------------------------------------------------------------------
Final Gibbs free energy         ...   -113.60131832 Eh

For completeness - the Gibbs free energy minus the electronic energy
G-E(el)                           ...      0.21249278 Eh    133.34 kcal/mol


Maximum memory used throughout the entire PROP-calculation: 153.6 MB

--------------------------------
SUGGESTED CITATIONS FOR THIS RUN
--------------------------------

Below you find a list of papers that are relevant to this ORCA run
We neither can nor want to force you to cite these papers, but we appreciate if you do
You receive ORCA, which is the product of decades of hard work by many enthusiastic individuals, for free
The only thing we kindly ask in return is that you cite our papers,
We deeply appreciate it, if you show your appreciation for ORCA by not just citing the generic ORCA reference.

Please note that relegating all ORCA citations to the supporting information does *not* help us.
SI sections are not indexed - citations you put there will not count into any citation statistics
But we need these citations in order to attract the funding resources that allow us to do what we are doing

Therefore, if you are a happy ORCA user, please consider citing a few of the papers listed below in the main body of your paper

In addition to the list printed below, the program has created the file ./output/butyl_anthranilate/butyl_anthranilate.bibtex that contains the list in bibtex format
You can import this file easily into all common literature databanks and citation aid programs


List of essential papers. We consider these as the minimum necessary citations

  1. Neese,F.
     Software update: the ORCA program system, version 5.0
     WIRES Comput. Molec. Sci., 2022 12(1)e1606
     doi.org/10.1002/wcms.1606
  2. Mueller,M.; Hansen,A.; Grimme,S.
     wB97X-3c: A composite range-separated hybrid DFT method with a molecule-optimized polarized valence double-zeta basis set
     J. Chem. Phys., 2023 158 014103
     doi.org/10.1063/5.0133026

List of papers to cite with high priority. The work reported in these papers was absolutely
necessary for this run to complete.
Our perspective: the developers of density functionals and basis sets usually get cited in chemistry papers
Good! But without the algorithms to do something with them, the functionals or basis sets would not do anything.
Hence, in our opinion, the algorithm design and method developments papers are equally worthy of getting cited

  1. Neese,F.
     An improvement of the resolution of the identity approximation for the formation of the Coulomb matrix
     J. Comp. Chem., 2003 24(14)1740-1747
     doi.org/10.1002/jcc.10318
  2. Neese,F.; Wennmohs,F.; Hansen,A.; Becker,U.
     Efficient, approximate and parallel Hartree-Fock and hybrid DFT calculations. A 'chain-of-spheres' algorithm for the Hartree-Fock exchange
     Chem. Phys., 2009 356(1-3)98-109
     doi.org/10.1016/j.chemphys.2008.10.036
  3. Bykov,D.; Petrenko,T.; Izsak,R.; Kossmann,S.; Becker,U.; Valeev,E.; Neese,F.
     Efficient implementation of the analytic second derivatives of Hartree-Fock and hybrid DFT energies: a detailed analysis of different approximations
     Molec. Phys., 2015 113 1961-1977
     doi.org/10.1080/00268976.2015.1025114
  4. Helmich-Paris,B.; de Souza,B.; Neese,F.; Izsák,R.
     An improved chain of spheres for exchange algorithm
     J. Chem. Phys., 2021 155 104109
     doi.org/doi: 10.1063/5.0058766.
  5. Neese,F.
     The SHARK Integral Generation and Digestion System
     J. Comp. Chem., 2022  1-16
     doi.org/10.1002/jcc.26942
  6. Caldeweyher,E.; Bannwarth,C.; Grimme,S.
     Extension of the D3 dispersion coefficient model
     J. Chem. Phys., 2017 147 034112
     doi.org/10.1063/1.4993215
  7. Caldeweyher,E.; Ehlert,S.; Hansen,A.; Neugebauer,H.; Spicher,S.; Bannwarth,C.; Grimme,S.
     A generally applicable atomic-charge dependent London dispersion correction
     J. Chem. Phys., 2019 150 154122
     doi.org/10.1063/1.5090222
  8. Caldeweyher,E.; Mewes,J.; Ehlert,S.; Grimme,S.
     Extension and evaluation of the D4 London-dispersion model for periodic systems
     Phys. Chem. Chem. Phys., 2020 22(16)8499-8512
     doi.org/10.1039/D0CP00502A
  9. Wittmann,L.; Gordiy,I.; Friede,M.; Helmich-Paris,B.; Grimme,S.; Hansen,A.; Bursch,M.
     Extension of the D3 and D4 London Dispersion Corrections to the full Actinides Series
     Phys. Chem. Chem. Phys., 2024 26(32)21379-21394
     doi.org/https://doi.org/10.1039/D4CP01514B 

List of suggested additional citations. These are papers that are important in the 'surrounding' of 
of this run, or papers that preceded the highly important papers. If you like your results we are grateful for a citation.

  1. Izsak,R.; Neese,F.
     An overlap fitted chain of spheres exchange method
     J. Chem. Phys., 2011 135 144105
     doi.org/10.1063/1.3646921
  2. Izsak,R.; Hansen,A.; Neese,F.
     The resolution of identity and chain of spheres approximations for the LPNO-CCSD singles Fock term
     Molec. Phys., 2012 110 2413-2417
     doi.org/10.1080/00268976.2012.687466
  3. Neese,F.
     The ORCA program system
     WIRES Comput. Molec. Sci., 2012 2(1)73-78
     doi.org/10.1002/wcms.81
  4. Izsak,R.; Neese,F.; Klopper,W.
     Robust fitting techniques in the chain of spheres approximation to the Fock exchange: The role of the complementary space
     J. Chem. Phys., 2013 139 
     doi.org/10.1063/1.4819264
  5. Neese,F.
     Software update: the ORCA program system, version 4.0
     WIRES Comput. Molec. Sci., 2018 8(1)1-6
     doi.org/10.1002/wcms.1327
  6. Neese,F.; Wennmohs,F.; Becker,U.; Riplinger,C.
     The ORCA quantum chemistry program package
     J. Chem. Phys., 2020 152 Art. No. L224108
     doi.org/10.1063/5.0004608

List of optional additional citations

  1. Neese,F.
     Approximate second-order SCF convergence for spin unrestricted wavefunctions
     Chem. Phys. Lett., 2000 325(1-3)93-98
     doi.org/10.1016/s0009-2614(00)00662-x

Timings for individual modules:

Sum of individual times          ...     1576.577 sec (=  26.276 min)
Startup calculation              ...       84.970 sec (=   1.416 min)   5.4 %
SCF iterations                   ...     1055.280 sec (=  17.588 min)  66.9 %
Property integrals               ...       73.559 sec (=   1.226 min)   4.7 %
SCF Response                     ...       50.722 sec (=   0.845 min)   3.2 %
Property calculations            ...      114.134 sec (=   1.902 min)   7.2 %
SCF Gradient evaluation          ...      197.591 sec (=   3.293 min)  12.5 %
Geometry relaxation              ...        0.321 sec (=   0.005 min)   0.0 %
                             ****ORCA TERMINATED NORMALLY****
TOTAL RUN TIME: 0 days 0 hours 26 minutes 26 seconds 442 msec
