
                                 *****************
                                 * O   R   C   A *
                                 *****************

                                            #,                                       
                                            ###                                      
                                            ####                                     
                                            #####                                    
                                            ######                                   
                                           ########,                                 
                                     ,,################,,,,,                         
                               ,,#################################,,                 
                          ,,##########################################,,             
                       ,#########################################, ''#####,          
                    ,#############################################,,   '####,        
                  ,##################################################,,,,####,       
                ,###########''''           ''''###############################       
              ,#####''   ,,,,##########,,,,          '''####'''          '####       
            ,##' ,,,,###########################,,,                        '##       
           ' ,,###''''                  '''############,,,                           
         ,,##''                                '''############,,,,        ,,,,,,###''
      ,#''                                            '''#######################'''  
     '                                                          ''''####''''         
             ,#######,   #######,   ,#######,      ##                                
            ,#'     '#,  ##    ##  ,#'     '#,    #''#        ,####,   ,####,        
            ##       ##  ##   ,#'  ##            #'  '#       #'       #'  '#        
            ##       ##  #######   ##           ,######,      #####,   #    #        
            '#,     ,#'  ##    ##  '#,     ,#' ,#      #,     #,   #   #,  ,#        
             '#######'   ##     ##  '#######'  #'      '#     '####' # '####'        



                #########################################################
                #                        -***-                          #
                #          Department of theory and spectroscopy        #
                #                                                       #
                #                      Frank Neese                      #
                #                                                       #
                #     Directorship, Architecture, Infrastructure        #
                #                    SHARK, DRIVERS                     #
                #        Core code/Algorithms in most modules           #
                #                                                       #
                #        Max Planck Institute fuer Kohlenforschung      #
                #                Kaiser Wilhelm Platz 1                 #
                #                 D-45470 Muelheim/Ruhr                 #
                #                      Germany                          #
                #                                                       #
                #                  All rights reserved                  #
                #                        -***-                          #
                #########################################################


                         Program Version 6.0.1  -  RELEASE   -


 With contributions from (in alphabetic order):
[Max-Planck-Institut fuer Kohlenforschung]                               
  Daniel Aravena         : Magnetic Suceptibility                        
  Michael Atanasov       : Ab Initio Ligand Field Theory (pilot matlab implementation)
  Alexander A. Auer      : GIAO ZORA, VPT2 properties, NMR spectrum      
  Ute Becker             : All parallelization in ORCA, NUMFREQ, NUMCALC 
  Giovanni Bistoni       : ED, misc. LED, open-shell LED, HFLD           
  Martin Brehm           : Molecular dynamics                            
  Dmytro Bykov           : pre 5.0 version of the SCF Hessian            
  Marcos Casanova-Páez   : Triplet and SCS-CIS(D). UHF-(DLPNO)-IP/EA/STEOM-CCSD. UHF-CVS-IP/STEOM-CCSD   
  Vijay G. Chilkuri      : MRCI spin determinant printing, contributions to CSF-ICE 
  Pauline Colinet        : FMM embedding                                 
  Dipayan Datta          : RHF DLPNO-CCSD density                        
  Achintya Kumar Dutta   : EOM-CC, STEOM-CC                              
  Nicolas Foglia         : Exact transition moments, OPA infrastructure, MCD improvements    
  Dmitry Ganyushin       : Spin-Orbit,Spin-Spin,Magnetic field MRCI      
  Miquel Garcia-Rates    : C-PCM and meta-GGA Hessian, CCSD/C-PCM, Gaussian charge scheme 
  Tiago L. C. Gouveia    : GS-ROHF, GS-ROCIS                             
  Yang Guo               : DLPNO-NEVPT2, F12-NEVPT2, CIM, IAO-localization        
  Andreas Hansen         : Spin unrestricted coupled pair/coupled cluster methods 
  Ingolf Harden          : AUTO-CI MPn and infrastructure                
  Benjamin Helmich-Paris : MC-RPA, TRAH-(SCF,CASSCF), AVAS, COSX integrals, SCF dyn. polar. 
  Lee Huntington         : MR-EOM, pCC                                   
  Robert Izsak           : Overlap fitted RIJCOSX, COSX-SCS-MP3, EOM     
  Riya Kayal             : Wick's Theorem for AUTO-CI, AUTO-CI UHF-CCSDT 
  Emily Kempfer          : AUTO-CI, RHF CISDT and CCSDT                  
  Christian Kollmar      : KDIIS, OOCD, Brueckner-CCSD(T), CCSD density, CASPT2, CASPT2-K, improved NEVPT2 
  Axel Koslowski         : Symmetry handling                             
  Simone Kossmann        : meta-GGA functionals, TD-DFT gradient, OOMP2, (MP2 Hessian; deprecated post 5.0) 
  Lucas Lang             : DCDCAS                                        
  Marvin Lechner         : AUTO-CI (C++ implementation), FIC-MRCC        
  Spencer Leger          : CASSCF response                               
  Dagmar Lenk            : GEPOL surface, SMD, ORCA-2-JSON               
  Dimitrios Liakos       : Extrapolation schemes; Compound Job, initial MDCI parallelization 
  Dimitrios Manganas     : Further ROCIS development; embedding schemes. LFT, Crystal Embedding 
  Dimitrios Pantazis     : SARC Basis sets                               
  Anastasios Papadopoulos: AUTO-CI, single reference methods and gradients 
  Taras Petrenko         : pre 6.0 DFT Hessian and TD-DFT gradient, (ASA, deprecated), ECA, 1-Electron XAS/XES, NRVS 
  Peter Pinski           : DLPNO-MP2, DLPNO-MP2 Gradient                 
  Christoph Reimann      : Effective Core Potentials                     
  Marius Retegan         : Local ZFS, SOC                                
  Christoph Riplinger    : Optimizer, TS searches, QM/MM, DLPNO-CCSD(T), (RO)-DLPNO pert. Triples 
  Michael Roemelt        : Original ROCIS implementation                 
  Masaaki Saitow         : Open-shell DLPNO-CCSD energy and density      
  Barbara Sandhoefer     : DKH picture change effects                    
  Kantharuban Sivalingam : CASSCF convergence/infrastructure, NEVPT2 and variants, FIC-MRCI 
  Bernardo de Souza      : ESD, SOC TD-DFT                               
  Georgi L. Stoychev     : AutoAux, RI-MP2 NMR, DLPNO-MP2 response, X2C  
  Van Anh Tran           : RI-MP2 g-tensors                              
  Willem Van den Heuvel  : Paramagnetic NMR                              
  Zikuan Wang            : NOTCH, Electric field optimization            
  Frank Wennmohs         : Technical directorship and infrastructure     
  Hang Xu                : AUTO-CI-Response properties                   
                                                                         
[FACCTs GmbH]                                                            
  Markus Bursch, Miquel Garcia-Rates, Christoph Riplinger, Bernardo de Souza, Georgi L. Stoychev 
                                                                 
  APM, Basis sets (HGBS, AHGBS, def-TZVP (Ac-Lr), def2-XVPD (La-Lu)), CI-OPT, improved COSX, DLPNO-Multilevel,           
  DOCKER, DRACO, updates on ESD, GOAT, IRC, LR-CPCM, MBIS, meta-GGA TD-DFT gradient, ML-optimized integration grids, 
  MM, NACMEs, nearIR, NEB, NEB-TS, NL-DFT gradient (VV10), 2- and 3-layer-ONIOM, interface openCOSMO-RS, QMMM,   
  Crystal-QMMM, SF, symmetry and pop. for TD-DFT, r2SCAN hybrids, SOLVATOR                                   
                                                                         
[Other institutions]                                                     
  V. Asgeirsson          : NEB                                           
  Christoph Bannwarth    : sTDA-DFT, sTD-DFT, PBEh-3c, B97-3c, D3        
  Sebastian Ehlert       : rSCAN, r2SCAN, r2SCAN-3c, D4, dhf basis sets  
  Marvin Friede          : D4 for Fr, Ra, Ac-Lr                          
  Lars Goerigk           : TD-DFT with DH, B97 family of functionals     
  Stefan Grimme          : VdW corrections, initial TS optimization, DFT functionals, gCP, sTDA/sTD-DF 
  Waldemar Hujo          : DFT-NL                                        
  H. Jonsson             : NEB                                           
  Holger Kruse           : gCP                                           
  Marcel Mueller         : wB97X-3c, vDZP basis set                      
  Hagen Neugebauer       : wr2SCAN                                       
  Tobias Risthaus        : range-separated hybrid DFT                    
  Lukas Wittmann         : regularized MP2, r2SCAN double-hybrids, wr2SCAN        
                                                                         
We gratefully acknowledge several colleagues who have allowed us to      
interface, adapt or use parts of their codes:                            
  Ed Valeev, F. Pavosevic, A. Kumar             : LibInt (2-el integral package), F12 methods 
  Garnet Chan, S. Sharma, J. Yang, R. Olivares  : DMRG                   
  Ulf Ekstrom                                   : XCFun DFT Library      
  Mihaly Kallay                                 : mrcc  (arbitrary order and MRCC methods)
  Frank Weinhold                                : gennbo (NPA and NBO analysis)           
  Simon Mueller                                 : openCOSMO-RS                            
  Christopher J. Cramer and Donald G. Truhlar   : smd solvation model                     
  S Lehtola, MJT Oliveira, MAL Marques          : LibXC Library                           
  Liviu Ungur et al                             : ANISO software                          


 Your calculation uses the libint2 library for the computation of 2-el integrals
 For citations please refer to: http://libint.valeyev.net

 Your ORCA version has been built with support for libXC version: 6.2.2
 For citations please refer to: https://libxc.gitlab.io

 This ORCA versions uses:
   CBLAS   interface :  Fast vector & matrix operations
   LAPACKE interface :  Fast linear algebra routines
   SCALAPACK package :  Parallel linear algebra routines
   Shared memory     :  Shared parallel matrices
   BLAS/LAPACK       :  OpenBLAS 0.3.27  USE64BITINT DYNAMIC_ARCH NO_AFFINITY SkylakeX SINGLE_THREADED
        Core in use  :  SkylakeX
   Copyright (c) 2011-2014, The OpenBLAS Project


Your calculation utilizes the atom-pairwise dispersion correction
based on EEQ partial charges (D4)


================================================================================

cite the ECPs for C  [vDZP-ECP], O  [vDZP-ECP] as follows:
   B-Ne (ecp-2-mwb), Al-Ar (ecp-10-mwb), Ga-Kr (ecp-28-mwb), Y-Cd (ecp-28-mwb), In-Xe (ecp-46-mwb):
     A. Bergner, M. Dolg, W. Küchle, H. Stoll, and H. Preuß, Mol. Phys. 80, 1431 (1993)., T. Leininger, A. Berning, A. Nicklass, H. Stoll, H.-J. Werner, and H.-J.Flad, Chem. Phys. 217, 19 (1997).
   Na-Mg, K-Ca, Rb-Sr, Cs-Ba (CRENBL):
     L. Fernandez Pacios and P. A. Christiansen, J. Chem. Phys. 82, 2664 (1985)., M. M. Hurley, L. F. Pacios, P. A. Christiansen, R. B. Ross, and W. C. Ermler, J. Chem. Phys. 84, 6840 (1986)., L. A. LaJohn, P. A. Christiansen, R. B. Ross, T. Atashroo, and W. C. Ermler, J. Chem. Phys. 87, 2812 (1987)., R. B. Ross, J. M. Powers, T. Atashroo, W. C. Ermler, L. A. LaJohn, and P. A. Christiansen, J. Chem. Phys. 93, 6654 (1990). 
   Sc-Zn (ecp-10-mdf):
     M. Dolg, U. Wedig, H. Stoll, and H. Preuss, J. Chem. Phys. 86, 866 (1986). 
   Y-Cd (ecp-28-mwb), Hf-Hg (ecp-60-mwb):
     D. Andrae, U. Häußermann, M. Dolg, H. Stoll, and H. Preuß, Theor. Chim. Acta 77, 123 (1990). 
   La (ecp-46-mwb):
     M. Dolg, H. Stoll, and H. Preuss, J. Chem. Phys. 90, 1730 (1989)., M. Dolg, H. Stoll, and H. Preuss, Theor. Chim. Acta 85, 441 (1993).
   Ce-Lu (SBKJC-ecp):
     T. R. Cundari and W. J. Stevens, J. Chem. Phys. 98, 5555 (1993).
   Tl-Rn (ecp-78-mwb):
     W. Küchle, M. Dolg, H. Stoll, and H. Preuss, Mol. Phys. 74, 1245 (1991).

ECP parameters for C  [vDZP-ECP], O  [vDZP-ECP] have been obtained from:
MM, AH, SG, J. Chem. Phys. 158, 014103 (2023), 10.1063/5.0133026

----- Orbital basis set information -----
Your calculation utilizes the basis: vDZP
   Marcel Mueller, Andreas Hansen, Stefan Grimme 
   J. Chem. Phys. 158, 014103 (2023). DOI: 10.1063/5.0133026

----- AuxJ basis set information -----
Your calculation utilizes the auxiliary basis: def2/J
   F. Weigend, Phys. Chem. Chem. Phys. 8, 1057 (2006).

================================================================================
                                        WARNINGS
                       Please study these warnings very carefully!
================================================================================

WARNING: Frozen-Core approximation turned on, but there are no core electrons.
  ===> : Turning off frozen-core approximation


WARNING: Geometry Optimization
  ===> : Switching off AutoStart
         For restart on a previous wavefunction, please use MOREAD

================================================================================
                                       INPUT FILE
================================================================================
NAME = ./output/myrtenyl_acetate/myrtenyl_acetate.inp
|  1> ! wB97X-3c OPT FREQ TightSCF
|  2> %pal
|  3>   nprocs 40
|  4> end
|  5> * xyz 0 1
|  6> C      4.508302    -0.287958     0.264937
|  7> C      3.214364    -1.027714     0.274042
|  8> O      2.923205    -1.787424    -0.689475
|  9> O      2.317380    -0.833416     1.330287
| 10> C      1.030045    -1.443532     1.384741
| 11> C      0.119893    -0.832344     0.355985
| 12> C     -0.389963    -1.553672    -0.686170
| 13> C     -1.306013    -0.841996    -1.701741
| 14> C     -1.438033     0.676672    -1.334522
| 15> C     -0.003486     1.162988    -1.042845
| 16> C     -0.228123     0.661672     0.397011
| 17> C     -1.753191     0.840941     0.177975
| 18> C     -2.232256     2.273335     0.524210
| 19> C     -2.719836    -0.172986     0.852051
| 20> H      4.400691     0.635850    -0.340528
| 21> H      5.307882    -0.922639    -0.172036
| 22> H      4.795052    -0.012970     1.301528
| 23> H      0.594363    -1.265301     2.389747
| 24> H      1.125230    -2.543150     1.247774
| 25> H     -0.172868    -2.611173    -0.799291
| 26> H     -2.307292    -1.321359    -1.710672
| 27> H     -0.868202    -0.940548    -2.717698
| 28> H     -2.025953     1.301472    -2.041045
| 29> H      0.810670     0.659855    -1.615517
| 30> H      0.100890     2.267733    -1.104818
| 31> H      0.243538     1.264559     1.203135
| 32> H     -2.221546     2.420029     1.625324
| 33> H     -3.270144     2.423472     0.157690
| 34> H     -1.601287     3.066430     0.075055
| 35> H     -2.463748    -1.238723     0.714805
| 36> H     -2.744189     0.010295     1.947224
| 37> H     -3.745373    -0.028399     0.451087
| 38> *
| 39> 
| 40>                          ****END OF INPUT****
================================================================================

                       *****************************
                       * Geometry Optimization Run *
                       *****************************

Geometry optimization settings:
Update method            Update   .... BFGS
Choice of coordinates    CoordSys .... (2022) Redundant Internals
Initial Hessian          InHess   .... Almloef's Model
Max. no of cycles        MaxIter  .... 96

Convergence Tolerances:
Energy Change            TolE     ....  5.0000e-06 Eh
Max. Gradient            TolMAXG  ....  3.0000e-04 Eh/bohr
RMS Gradient             TolRMSG  ....  1.0000e-04 Eh/bohr
Max. Displacement        TolMAXD  ....  4.0000e-03 bohr
RMS Displacement         TolRMSD  ....  2.0000e-03 bohr
Strict Convergence                .... False

------------------------------------------------------------------------------
                        ORCA OPTIMIZATION COORDINATE SETUP
------------------------------------------------------------------------------

The optimization will be done in redundant internal coordinates (2022)
Making redundant internal coordinates   ...  (2022 redundants) done
Evaluating the initial hessian          ...  (Almloef) done
Evaluating the coordinates              ...  done
Calculating the B-matrix                .... done
Calculating the G-matrix                .... done
Diagonalizing the G-matrix              .... done
Small eigenvalue found = 6.826e-03
Small eigenvalue found = 8.849e-03
Small eigenvalue found = 2.670e-02
The first mode is                       ....   78
The number of degrees of freedom        ....   90

    -----------------------------------------------------------------
                    Redundant Internal Coordinates


    -----------------------------------------------------------------
         Definition                    Initial Value    Approx d2E/dq
    -----------------------------------------------------------------
      1. B(C   1,C   0)                  1.4905         0.431910   
      2. B(O   2,C   1)                  1.2611         0.898617   
      3. B(O   3,C   1)                  1.3993         0.540841   
      4. B(C   4,O   3)                  1.4256         0.490931   
      5. B(C   5,C   4)                  1.5034         0.411895   
      6. B(C   6,C   5)                  1.3661         0.682019   
      7. B(C   7,C   6)                  1.5418         0.357783   
      8. B(C   8,C   7)                  1.5680         0.324898   
      9. B(C   9,C   8)                  1.5426         0.356724   
     10. B(C  10,C   9)                  1.5411         0.358658   
     11. B(C  10,C   5)                  1.5346         0.367365   
     12. B(C  11,C  10)                  1.5511         0.345697   
     13. B(C  11,C   8)                  1.5537         0.342436   
     14. B(C  12,C  11)                  1.5496         0.347674   
     15. B(C  13,C  11)                  1.5546         0.341276   
     16. B(H  14,C   0)                  1.1098         0.334874   
     17. B(H  15,C   0)                  1.1104         0.334042   
     18. B(H  16,C   0)                  1.1101         0.334445   
     19. B(H  17,C   4)                  1.1098         0.334856   
     20. B(H  18,C   4)                  1.1122         0.331903   
     21. B(H  19,C   6)                  1.0855         0.366149   
     22. B(H  20,C   7)                  1.1101         0.334409   
     23. B(H  21,C   7)                  1.1107         0.333784   
     24. B(H  22,C   8)                  1.1114         0.332880   
     25. B(H  23,C   9)                  1.1153         0.328111   
     26. B(H  24,C   9)                  1.1114         0.332882   
     27. B(H  25,C  10)                  1.1117         0.332565   
     28. B(H  26,C  12)                  1.1109         0.333494   
     29. B(H  27,C  12)                  1.1109         0.333492   
     30. B(H  28,C  12)                  1.1085         0.336390   
     31. B(H  29,C  13)                  1.1046         0.341254   
     32. B(H  30,C  13)                  1.1107         0.333768   
     33. B(H  31,C  13)                  1.1106         0.333870   
     34. A(H  14,C   0,H  15)          109.3241         0.284202   
     35. A(C   1,C   0,H  16)          109.9670         0.328141   
     36. A(C   1,C   0,H  15)          110.1102         0.328076   
     37. A(H  15,C   0,H  16)          108.8465         0.284145   
     38. A(H  14,C   0,H  16)          109.1648         0.284255   
     39. A(C   1,C   0,H  14)          109.4085         0.328211   
     40. A(O   2,C   1,O   3)          120.8230         0.446915   
     41. A(C   0,C   1,O   2)          119.6541         0.431974   
     42. A(C   0,C   1,O   3)          119.4846         0.394740   
     43. A(C   1,O   3,C   4)          123.2473         0.401144   
     44. A(O   3,C   4,H  17)          108.6846         0.333218   
     45. A(O   3,C   4,C   5)          110.2760         0.384918   
     46. A(C   5,C   4,H  18)          111.6834         0.325179   
     47. A(C   5,C   4,H  17)          108.4646         0.325653   
     48. A(O   3,C   4,H  18)          109.9461         0.332729   
     49. A(H  17,C   4,H  18)          107.6923         0.283916   
     50. A(C   4,C   5,C   6)          122.2275         0.410422   
     51. A(C   6,C   5,C  10)          116.7313         0.402205   
     52. A(C   4,C   5,C  10)          120.9834         0.368421   
     53. A(C   5,C   6,C   7)          118.7188         0.400337   
     54. A(C   7,C   6,H  19)          119.9930         0.322910   
     55. A(C   5,C   6,H  19)          121.2824         0.359684   
     56. A(H  20,C   7,H  21)          108.0508         0.284106   
     57. A(C   8,C   7,H  21)          109.4727         0.313117   
     58. A(C   8,C   7,H  20)          110.1305         0.313212   
     59. A(C   6,C   7,H  20)          109.9910         0.318158   
     60. A(C   6,C   7,C   8)          110.0498         0.352232   
     61. A(C   6,C   7,H  21)          109.1094         0.318061   
     62. A(C   9,C   8,C  11)           88.3517         0.355204   
     63. A(C   7,C   8,C  11)          110.3324         0.349633   
     64. A(C  11,C   8,H  22)          116.8793         0.315660   
     65. A(C   9,C   8,H  22)          115.7802         0.317767   
     66. A(C   7,C   8,H  22)          116.1133         0.312979   
     67. A(C   7,C   8,C   9)          105.7433         0.352055   
     68. A(C   8,C   9,C  10)           86.4770         0.358008   
     69. A(H  23,C   9,H  24)          110.5622         0.283149   
     70. A(C  10,C   9,H  24)          112.9011         0.318048   
     71. A(C   8,C   9,H  24)          112.9653         0.317767   
     72. A(C  10,C   9,H  23)          116.0648         0.317300   
     73. A(C   8,C   9,H  23)          116.0752         0.317021   
     74. A(C  11,C  10,H  25)          117.1863         0.316098   
     75. A(C   5,C  10,C   9)          104.9911         0.359804   
     76. A(C   9,C  10,H  25)          116.0563         0.317998   
     77. A(C   5,C  10,H  25)          116.8187         0.319245   
     78. A(C   9,C  10,C  11)           88.4978         0.356103   
     79. A(C   5,C  10,C  11)          109.3734         0.357557   
     80. A(C  12,C  11,C  13)          108.2867         0.353457   
     81. A(C  10,C  11,C  13)          118.3426         0.353116   
     82. A(C   8,C  11,C  13)          118.6378         0.352550   
     83. A(C  10,C  11,C  12)          112.2875         0.354229   
     84. A(C   8,C  11,C  12)          112.2075         0.353661   
     85. A(C   8,C  11,C  10)           85.7453         0.353319   
     86. A(H  27,C  12,H  28)          107.5423         0.284328   
     87. A(H  26,C  12,H  28)          107.5566         0.284329   
     88. A(C  11,C  12,H  28)          113.2560         0.316981   
     89. A(H  26,C  12,H  27)          108.5534         0.283946   
     90. A(C  11,C  12,H  27)          109.8802         0.316535   
     91. A(C  11,C  12,H  26)          109.9109         0.316535   
     92. A(H  29,C  13,H  31)          107.1471         0.285014   
     93. A(C  11,C  13,H  31)          109.4338         0.315639   
     94. A(H  29,C  13,H  30)          106.6667         0.285001   
     95. A(C  11,C  13,H  30)          109.4847         0.315623   
     96. A(C  11,C  13,H  29)          115.5448         0.316763   
     97. A(H  30,C  13,H  31)          108.3167         0.284033   
     98. D(O   3,C   1,C   0,H  15)    144.8980         0.013774   
     99. D(O   2,C   1,C   0,H  15)    -37.3341         0.013774   
    100. D(O   2,C   1,C   0,H  14)     82.8401         0.013774   
    101. D(O   3,C   1,C   0,H  14)    -94.9278         0.013774   
    102. D(O   2,C   1,C   0,H  16)   -157.2703         0.013774   
    103. D(C   4,O   3,C   1,O   2)     -1.1699         0.021124   
    104. D(C   4,O   3,C   1,C   0)    176.5712         0.021124   
    105. D(C   5,C   4,O   3,C   1)    -70.4900         0.019033   
    106. D(H  17,C   4,O   3,C   1)    170.7356         0.019033   
    107. D(H  18,C   4,O   3,C   1)     53.0892         0.019033   
    108. D(C   6,C   5,C   4,H  17)   -124.9975         0.012561   
    109. D(C  10,C   5,C   4,O   3)    -61.0518         0.012561   
    110. D(C   6,C   5,C   4,H  18)     -6.4711         0.012561   
    111. D(C  10,C   5,C   4,H  17)     57.8568         0.012561   
    112. D(C   6,C   5,C   4,O   3)    116.0939         0.012561   
    113. D(H  19,C   6,C   5,C  10)    178.6641         0.032621   
    114. D(H  19,C   6,C   5,C   4)      1.4038         0.032621   
    115. D(C   7,C   6,C   5,C  10)     -2.2103         0.032621   
    116. D(C   7,C   6,C   5,C   4)   -179.4705         0.032621   
    117. D(H  21,C   7,C   6,C   5)    122.0901         0.009636   
    118. D(C   8,C   7,C   6,H  19)   -178.9053         0.009636   
    119. D(H  20,C   7,C   6,C   5)   -119.5507         0.009636   
    120. D(C   8,C   7,C   6,C   5)      1.9575         0.009636   
    121. D(H  20,C   7,C   6,H  19)     59.5865         0.009636   
    122. D(C  11,C   8,C   7,H  21)   -167.7698         0.008624   
    123. D(C  11,C   8,C   7,C   6)    -47.8572         0.008624   
    124. D(C   9,C   8,C   7,H  21)    -73.6070         0.008624   
    125. D(C   9,C   8,C   7,H  20)    167.7305         0.008624   
    126. D(C   9,C   8,C   7,C   6)     46.3056         0.008624   
    127. D(C  11,C   8,C   7,H  20)     73.5678         0.008624   
    128. D(C  10,C   9,C   8,C   7)    -85.9824         0.010223   
    129. D(H  23,C   9,C   8,H  22)    -98.6880         0.010223   
    130. D(H  23,C   9,C   8,C  11)    142.0769         0.010223   
    131. D(H  23,C   9,C   8,C   7)     31.4032         0.010223   
    132. D(C  10,C   9,C   8,H  22)    143.9265         0.010223   
    133. D(C  10,C   9,C   8,C  11)     24.6914         0.010223   
    134. D(C  11,C  10,C   9,H  23)   -142.1287         0.010326   
    135. D(C  11,C  10,C   9,C   8)    -24.7334         0.010326   
    136. D(C   5,C  10,C   9,H  24)   -161.5939         0.010326   
    137. D(C   5,C  10,C   9,H  23)    -32.4646         0.010326   
    138. D(C   5,C  10,C   9,C   8)     84.9308         0.010326   
    139. D(H  25,C  10,C   5,C   4)      1.4727         0.010117   
    140. D(C  11,C  10,C   5,C   6)     48.0847         0.010117   
    141. D(C  11,C  10,C   5,C   4)   -134.6187         0.010117   
    142. D(C   9,C  10,C   5,C   6)    -45.6647         0.010117   
    143. D(C  11,C  10,C   9,H  24)     88.7419         0.010326   
    144. D(C   9,C  10,C   5,C   4)    131.6319         0.010117   
    145. D(C  12,C  11,C  10,C   9)    -87.7117         0.009648   
    146. D(C  12,C  11,C  10,C   5)    166.9174         0.009648   
    147. D(C   8,C  11,C  10,H  25)    143.2858         0.009648   
    148. D(C   8,C  11,C  10,C   9)     24.5672         0.009648   
    149. D(C   8,C  11,C  10,C   5)    -80.8037         0.009648   
    150. D(C  12,C  11,C   8,H  22)    -30.4287         0.009482   
    151. D(C  12,C  11,C   8,C   9)     87.8145         0.009482   
    152. D(C  12,C  11,C   8,C   7)   -165.9961         0.009482   
    153. D(C  10,C  11,C   8,H  22)   -142.7872         0.009482   
    154. D(C  10,C  11,C   8,C   9)    -24.5441         0.009482   
    155. D(C  12,C  11,C  10,H  25)     31.0069         0.009648   
    156. D(C  10,C  11,C   8,C   7)     81.6454         0.009482   
    157. D(H  27,C  12,C  11,C   8)     73.5939         0.009749   
    158. D(H  26,C  12,C  11,C  13)     60.1371         0.009749   
    159. D(H  26,C  12,C  11,C  10)    -72.3801         0.009749   
    160. D(H  26,C  12,C  11,C   8)   -167.0103         0.009749   
    161. D(H  27,C  12,C  11,C  13)    -59.2587         0.009749   
    162. D(H  27,C  12,C  11,C  10)    168.2241         0.009749   
    163. D(H  30,C  13,C  11,C  12)    -57.2450         0.009424   
    164. D(H  30,C  13,C  11,C  10)     71.9588         0.009424   
    165. D(H  30,C  13,C  11,C   8)    173.4087         0.009424   
    166. D(H  29,C  13,C  11,C  12)   -177.6619         0.009424   
    167. D(H  29,C  13,C  11,C  10)    -48.4581         0.009424   
    168. D(H  29,C  13,C  11,C   8)     52.9918         0.009424   
    -----------------------------------------------------------------

Number of atoms                         .... 32
Number of degrees of freedom            .... 168


         *************************************************************
         *                GEOMETRY OPTIMIZATION CYCLE   1            *
         *************************************************************
---------------------------------
CARTESIAN COORDINATES (ANGSTROEM)
---------------------------------
  C      4.508302   -0.287958    0.264937
  C      3.214364   -1.027714    0.274042
  O      2.923205   -1.787424   -0.689475
  O      2.317380   -0.833416    1.330287
  C      1.030045   -1.443532    1.384741
  C      0.119893   -0.832344    0.355985
  C     -0.389963   -1.553672   -0.686170
  C     -1.306013   -0.841996   -1.701741
  C     -1.438033    0.676672   -1.334522
  C     -0.003486    1.162988   -1.042845
  C     -0.228123    0.661672    0.397011
  C     -1.753191    0.840941    0.177975
  C     -2.232256    2.273335    0.524210
  C     -2.719836   -0.172986    0.852051
  H      4.400691    0.635850   -0.340528
  H      5.307882   -0.922639   -0.172036
  H      4.795052   -0.012970    1.301528
  H      0.594363   -1.265301    2.389747
  H      1.125230   -2.543150    1.247774
  H     -0.172868   -2.611173   -0.799291
  H     -2.307292   -1.321359   -1.710672
  H     -0.868202   -0.940548   -2.717698
  H     -2.025953    1.301472   -2.041045
  H      0.810670    0.659855   -1.615517
  H      0.100890    2.267733   -1.104818
  H      0.243538    1.264559    1.203135
  H     -2.221546    2.420029    1.625324
  H     -3.270144    2.423472    0.157690
  H     -1.601287    3.066430    0.075055
  H     -2.463748   -1.238723    0.714805
  H     -2.744189    0.010295    1.947224
  H     -3.745373   -0.028399    0.451087

----------------------------
CARTESIAN COORDINATES (A.U.)
----------------------------
  NO LB      ZA    FRAG     MASS         X           Y           Z
   0 C     4.0000*   0    12.011    8.519456   -0.544162    0.500658
   1 C     4.0000*   0    12.011    6.074268   -1.942098    0.517864
   2 O     6.0000*   0    15.999    5.524057   -3.377742   -1.302919
   3 O     6.0000*   0    15.999    4.379214   -1.574928    2.513878
   4 C     4.0000*   0    12.011    1.946503   -2.727880    2.616781
   5 C     4.0000*   0    12.011    0.226565   -1.572902    0.672714
   6 C     4.0000*   0    12.011   -0.736923   -2.936015   -1.296673
   7 C     4.0000*   0    12.011   -2.468007   -1.591142   -3.215824
   8 C     4.0000*   0    12.011   -2.717489    1.278725   -2.521881
   9 C     4.0000*   0    12.011   -0.006588    2.197729   -1.970691
  10 C     4.0000*   0    12.011   -0.431090    1.250379    0.750242
  11 C     4.0000*   0    12.011   -3.313051    1.589148    0.336324
  12 C     4.0000*   0    12.011   -4.218353    4.295981    0.990613
  13 C     4.0000*   0    12.011   -5.139745   -0.326896    1.610143
  14 H     1.0000    0     1.008    8.316101    1.201582   -0.643505
  15 H     1.0000    0     1.008   10.030443   -1.743535   -0.325101
  16 H     1.0000    0     1.008    9.061335   -0.024510    2.459531
  17 H     1.0000    0     1.008    1.123183   -2.391072    4.515967
  18 H     1.0000    0     1.008    2.126377   -4.805857    2.357951
  19 H     1.0000    0     1.008   -0.326673   -4.934402   -1.510441
  20 H     1.0000    0     1.008   -4.360150   -2.497007   -3.232702
  21 H     1.0000    0     1.008   -1.640664   -1.777378   -5.135705
  22 H     1.0000    0     1.008   -3.828496    2.459426   -3.857016
  23 H     1.0000    0     1.008    1.531944    1.246945   -3.052885
  24 H     1.0000    0     1.008    0.190654    4.285394   -2.087803
  25 H     1.0000    0     1.008    0.460220    2.389670    2.273596
  26 H     1.0000    0     1.008   -4.198114    4.573192    3.071417
  27 H     1.0000    0     1.008   -6.179677    4.579698    0.297991
  28 H     1.0000    0     1.008   -3.025994    5.794713    0.141833
  29 H     1.0000    0     1.008   -4.655809   -2.340847    1.350786
  30 H     1.0000    0     1.008   -5.185766    0.019455    3.679720
  31 H     1.0000    0     1.008   -7.077729   -0.053666    0.852431
* core charge reduced due to ECP

--------------------------------
INTERNAL COORDINATES (ANGSTROEM)
--------------------------------
 C      0   0   0     0.000000000000     0.00000000     0.00000000
 C      1   0   0     1.490502394632     0.00000000     0.00000000
 O      2   1   0     1.261070123613   119.65407072     0.00000000
 O      2   1   3     1.399280353998   119.48459740   182.23210181
 C      4   2   1     1.425636059377   123.24727410   176.57124950
 C      5   4   2     1.503418219254   110.27601531   289.50999110
 C      6   5   4     1.366145771265   122.22750585   116.09389903
 C      7   6   5     1.541757045555   118.71880390   180.52946724
 C      8   7   6     1.568002413450   110.04977245     1.95750669
 C      9   8   7     1.542564040614   105.74330535    46.30557532
 C      6   5   4     1.534562503513   120.98341652   298.94819580
 C     11   6   5     1.551111391319   109.37338531   225.38134429
 C     12  11   6     1.549559460197   112.28749957   166.91739376
 C     12  11   6     1.554615377233   118.34262410    39.58902735
 H      1   2   3     1.109769892550   109.40847240    82.84006993
 H      1   2   3     1.110447455258   110.11020736   322.66591976
 H      1   2   3     1.110119301663   109.96698315   202.72968816
 H      5   4   2     1.109784733415   108.68456003   170.73558225
 H      5   4   2     1.112195976093   109.94611782    53.08923071
 H      7   6   5     1.085465321725   121.28239405     1.40383950
 H      8   7   6     1.110147865994   109.99096239   240.44930982
 H      8   7   6     1.110657280296   109.10943895   122.09012067
 H      9   8   7     1.111395391357   116.11329855   176.20352999
 H     10   9   8     1.115323283900   116.07521123    31.40318448
 H     10   9   8     1.111393952264   112.96527103   160.60500792
 H     11   6   5     1.111653155020   116.81869295     1.47270981
 H     13  12  11     1.110894178008   109.91093241   287.61994714
 H     13  12  11     1.110895823069   109.88017965   168.22413689
 H     13  12  11     1.108540379062   113.25599810    47.94210160
 H     14  12  11     1.104632464410   115.54479543   311.54192540
 H     14  12  11     1.110670470256   109.48466090    71.95884586
 H     14  12  11     1.110587082688   109.43382387   190.53551798

---------------------------
INTERNAL COORDINATES (A.U.)
---------------------------
 C      0   0   0     0.000000000000     0.00000000     0.00000000
 C      1   0   0     2.816641327809     0.00000000     0.00000000
 O      2   1   0     2.383077169299   119.65407072     0.00000000
 O      2   1   3     2.644256653633   119.48459740   182.23210181
 C      4   2   1     2.694061718866   123.24727410   176.57124950
 C      5   4   2     2.841048699137   110.27601531   289.50999110
 C      6   5   4     2.581641366705   122.22750585   116.09389903
 C      7   6   5     2.913498581142   118.71880390   180.52946724
 C      8   7   6     2.963095138748   110.04977245     1.95750669
 C      9   8   7     2.915023580795   105.74330535    46.30557532
 C      6   5   4     2.899902867024   120.98341652   298.94819580
 C     11   6   5     2.931175732799   109.37338531   225.38134429
 C     12  11   6     2.928243007999   112.28749957   166.91739376
 C     12  11   6     2.937797306553   118.34262410    39.58902735
 H      1   2   3     2.097161168590   109.40847240    82.84006993
 H      1   2   3     2.098441576548   110.11020736   322.66591976
 H      1   2   3     2.097821456123   109.96698315   202.72968816
 H      5   4   2     2.097189213761   108.68456003   170.73558225
 H      5   4   2     2.101745802065   109.94611782    53.08923071
 H      7   6   5     2.051232185928   121.28239405     1.40383950
 H      8   7   6     2.097875434886   109.99096239   240.44930982
 H      8   7   6     2.098838088405   109.10943895   122.09012067
 H      9   8   7     2.100232916166   116.11329855   176.20352999
 H     10   9   8     2.107655557356   116.07521123    31.40318448
 H     10   9   8     2.100230196676   112.96527103   160.60500792
 H     11   6   5     2.100720018897   116.81869295     1.47270981
 H     13  12  11     2.099285760203   109.91093241   287.61994714
 H     13  12  11     2.099288868918   109.88017965   168.22413689
 H     13  12  11     2.094837724820   113.25599810    47.94210160
 H     14  12  11     2.087452836374   115.54479543   311.54192540
 H     14  12  11     2.098863013818   109.48466090    71.95884586
 H     14  12  11     2.098705434151   109.43382387   190.53551798

---------------------
BASIS SET INFORMATION
---------------------
There are 3 groups of distinct atoms

 Group   1 Type C   : 6s6p2d contracted to 2s2p1d pattern {42/42/2}
 Group   2 Type O   : 6s6p2d contracted to 2s2p1d pattern {42/42/2}
 Group   3 Type H   : 8s2p contracted to 2s1p pattern {53/2}

Atom   0C    basis set group =>   1
Atom   1C    basis set group =>   1
Atom   2O    basis set group =>   2
Atom   3O    basis set group =>   2
Atom   4C    basis set group =>   1
Atom   5C    basis set group =>   1
Atom   6C    basis set group =>   1
Atom   7C    basis set group =>   1
Atom   8C    basis set group =>   1
Atom   9C    basis set group =>   1
Atom  10C    basis set group =>   1
Atom  11C    basis set group =>   1
Atom  12C    basis set group =>   1
Atom  13C    basis set group =>   1
Atom  14H    basis set group =>   3
Atom  15H    basis set group =>   3
Atom  16H    basis set group =>   3
Atom  17H    basis set group =>   3
Atom  18H    basis set group =>   3
Atom  19H    basis set group =>   3
Atom  20H    basis set group =>   3
Atom  21H    basis set group =>   3
Atom  22H    basis set group =>   3
Atom  23H    basis set group =>   3
Atom  24H    basis set group =>   3
Atom  25H    basis set group =>   3
Atom  26H    basis set group =>   3
Atom  27H    basis set group =>   3
Atom  28H    basis set group =>   3
Atom  29H    basis set group =>   3
Atom  30H    basis set group =>   3
Atom  31H    basis set group =>   3
---------------------------------
AUXILIARY/J BASIS SET INFORMATION
---------------------------------
There are 3 groups of distinct atoms

 Group   1 Type C   : 12s5p4d2f1g contracted to 6s4p3d1f1g pattern {711111/2111/211/2/1}
 Group   2 Type O   : 12s5p4d2f1g contracted to 6s4p3d1f1g pattern {711111/2111/211/2/1}
 Group   3 Type H   : 5s2p1d contracted to 3s1p1d pattern {311/2/1}

Atom   0C    basis set group =>   1
Atom   1C    basis set group =>   1
Atom   2O    basis set group =>   2
Atom   3O    basis set group =>   2
Atom   4C    basis set group =>   1
Atom   5C    basis set group =>   1
Atom   6C    basis set group =>   1
Atom   7C    basis set group =>   1
Atom   8C    basis set group =>   1
Atom   9C    basis set group =>   1
Atom  10C    basis set group =>   1
Atom  11C    basis set group =>   1
Atom  12C    basis set group =>   1
Atom  13C    basis set group =>   1
Atom  14H    basis set group =>   3
Atom  15H    basis set group =>   3
Atom  16H    basis set group =>   3
Atom  17H    basis set group =>   3
Atom  18H    basis set group =>   3
Atom  19H    basis set group =>   3
Atom  20H    basis set group =>   3
Atom  21H    basis set group =>   3
Atom  22H    basis set group =>   3
Atom  23H    basis set group =>   3
Atom  24H    basis set group =>   3
Atom  25H    basis set group =>   3
Atom  26H    basis set group =>   3
Atom  27H    basis set group =>   3
Atom  28H    basis set group =>   3
Atom  29H    basis set group =>   3
Atom  30H    basis set group =>   3
Atom  31H    basis set group =>   3
-------------------------
ECP PARAMETER INFORMATION
-------------------------

 Group 1, Type C  ECP vDZP-ECP (replacing 2 core electrons, lmax=3)
 Group 2, Type O  ECP vDZP-ECP (replacing 2 core electrons, lmax=3)

Atom   0C    ECP group =>   1
Atom   1C    ECP group =>   1
Atom   2O    ECP group =>   2
Atom   3O    ECP group =>   2
Atom   4C    ECP group =>   1
Atom   5C    ECP group =>   1
Atom   6C    ECP group =>   1
Atom   7C    ECP group =>   1
Atom   8C    ECP group =>   1
Atom   9C    ECP group =>   1
Atom  10C    ECP group =>   1
Atom  11C    ECP group =>   1
Atom  12C    ECP group =>   1
Atom  13C    ECP group =>   1



           ************************************************************
           *        Program running with 40 parallel MPI-processes    *
           *              working on a common directory               *
           ************************************************************
------------------------------------------------------------------------------
                             ORCA STARTUP CALCULATIONS
                           -- RI-GTO INTEGRALS CHOSEN --
------------------------------------------------------------------------------
------------------------------------------------------------------------------
                   ___                                                        
                  /   \      - P O W E R E D   B Y -                         
                 /     \                                                     
                 |  |  |   _    _      __       _____    __    __             
                 |  |  |  | |  | |    /  \     |  _  \  |  |  /  |          
                  \  \/   | |  | |   /    \    | | | |  |  | /  /          
                 / \  \   | |__| |  /  /\  \   | |_| |  |  |/  /          
                |  |  |   |  __  | /  /__\  \  |    /   |      \           
                |  |  |   | |  | | |   __   |  |    \   |  |\   \          
                \     /   | |  | | |  |  |  |  | |\  \  |  | \   \       
                 \___/    |_|  |_| |__|  |__|  |_| \__\ |__|  \__/        
                                                                              
                      - O R C A' S   B I G   F R I E N D -                    
                                      &                                       
                       - I N T E G R A L  F E E D E R -                       
                                                                              
 v1 FN, 2020, v2 2021, v3 2022-2024                                           
------------------------------------------------------------------------------


----------------------
SHARK INTEGRAL PACKAGE
----------------------

Number of atoms                             ...     32
Number of basis functions                   ...    272
Number of shells                            ...    124
Maximum angular momentum                    ...      2
Integral batch strategy                     ... SHARK/LIBINT Hybrid
RI-J (if used) integral strategy            ... SPLIT-RIJ (Revised 2003 algorithm where possible)
Printlevel                                  ...      1
Contraction scheme used                     ... SEGMENTED contraction
Prescreening option                         ... SCHWARTZ
   Thresh                                   ... 2.500e-11
   Tcut                                     ... 2.500e-12
   Tpresel                                  ... 2.500e-12 
Coulomb Range Separation                    ... NOT USED
Exchange Range Separation                   ... Long Range
   Mu parameter                             ... 3.000e-01
   Scaling (regular/separated)              ... 1.670e-01 8.330e-01
Multipole approximations                    ... NOT USED
Finite Nucleus Model                        ... NOT USED
CABS basis                                  ... NOT available
Auxiliary Coulomb fitting basis             ... AVAILABLE
   # of basis functions in Aux-J            ...    884
   # of shells in Aux-J                     ...    300
   Maximum angular momentum in Aux-J        ...      4
Auxiliary J/K fitting basis                 ... NOT available
Auxiliary Correlation fitting basis         ... NOT available
Auxiliary 'external' fitting basis          ... NOT available

Checking pre-screening integrals            ... done (  0.0 sec) Dimension = 124
Check shell pair data                       ... done (  0.0 sec)
Shell pair information
Shell pair cut-off parameter TPreSel        ...   2.5e-12
Total number of shell pairs                 ...      7750
Shell pairs after pre-screening             ...      7662
Total number of primitive shell pairs       ...     71338
Primitive shell pairs kept                  ...     55220
          la=0 lb=0:   2072 shell pairs
          la=1 lb=0:   2911 shell pairs
          la=1 lb=1:   1046 shell pairs
          la=2 lb=0:    892 shell pairs
          la=2 lb=1:    636 shell pairs
          la=2 lb=2:    105 shell pairs

Calculating one electron integrals          ... done (  0.0 sec)
Calculating ECP integrals                   ... done (  0.1 sec)
Calculating RI/J V-Matrix + Cholesky decomp.... done (  0.0 sec)
Calculating Nuclear repulsion               ... done (  0.0 sec) ENN=    505.467491160726 Eh

Diagonalization of the overlap matrix:
Smallest eigenvalue                        ... 1.000e-03
Time for diagonalization                   ...    0.010 sec
Threshold for overlap eigenvalues          ... 1.000e-07
Number of eigenvalues below threshold      ... 0
Time for construction of square roots      ...    0.005 sec
Total time needed                          ...    0.019 sec

-------------------
DFT GRID GENERATION
-------------------

General Integration Accuracy     IntAcc      ... 4.388
Radial Grid Type                 RadialGrid  ... OptM3 with GC (2021)
Angular Grid (max. ang.)         AngularGrid ... 4 (Lebedev-302)
Angular grid pruning method      GridPruning ... 4 (adaptive)
Weight generation scheme         WeightScheme... mBecke (2022)
Basis function cutoff            BFCut       ... 1.0000e-11
Integration weight cutoff        WCut        ... 1.0000e-14
Partially contracted basis set               ... off
Rotationally invariant grid construction     ... off
Angular grids for H and He will be reduced by one unit

Total number of grid points                  ...   140665
Total number of batches                      ...     2214
Average number of points per batch           ...       63
Average number of grid points per atom       ...     4396

--------------------
COSX GRID GENERATION
--------------------

GRIDX 1
-------
General Integration Accuracy     IntAcc      ... 3.816
Radial Grid Type                 RadialGrid  ... OptM3 with GC (2021)
Angular Grid (max. ang.)         AngularGrid ... 1 (Lebedev-50)
Angular grid pruning method      GridPruning ... 4 (adaptive)
Weight generation scheme         WeightScheme... mBecke (2022)
Basis function cutoff            BFCut       ... 1.0000e-11
Integration weight cutoff        WCut        ... 1.0000e-14
Partially contracted basis set               ... on
Rotationally invariant grid construction     ... off
Angular grids for H and He will be reduced by one unit

Total number of grid points                  ...    17959
Total number of batches                      ...      161
Average number of points per batch           ...      111
Average number of grid points per atom       ...      561
UseSFitting                                  ... on

GRIDX 2
-------
General Integration Accuracy     IntAcc      ... 4.020
Radial Grid Type                 RadialGrid  ... OptM3 with GC (2021)
Angular Grid (max. ang.)         AngularGrid ... 2 (Lebedev-110)
Angular grid pruning method      GridPruning ... 4 (adaptive)
Weight generation scheme         WeightScheme... mBecke (2022)
Basis function cutoff            BFCut       ... 1.0000e-11
Integration weight cutoff        WCut        ... 1.0000e-14
Partially contracted basis set               ... on
Rotationally invariant grid construction     ... off
Angular grids for H and He will be reduced by one unit

Total number of grid points                  ...    37790
Total number of batches                      ...      313
Average number of points per batch           ...      120
Average number of grid points per atom       ...     1181
UseSFitting                                  ... on

GRIDX 3
-------
General Integration Accuracy     IntAcc      ... 4.338
Radial Grid Type                 RadialGrid  ... OptM3 with GC (2021)
Angular Grid (max. ang.)         AngularGrid ... 3 (Lebedev-194)
Angular grid pruning method      GridPruning ... 4 (adaptive)
Weight generation scheme         WeightScheme... mBecke (2022)
Basis function cutoff            BFCut       ... 1.0000e-11
Integration weight cutoff        WCut        ... 1.0000e-14
Partially contracted basis set               ... on
Rotationally invariant grid construction     ... off
Angular grids for H and He will be reduced by one unit

Total number of grid points                  ...    82373
Total number of batches                      ...      660
Average number of points per batch           ...      124
Average number of grid points per atom       ...     2574
UseSFitting                                  ... on
Initializing property integral containers    ... done (  0.0 sec)

SHARK setup successfully completed in   4.2 seconds

Maximum memory used throughout the entire STARTUP-calculation: 44.0 MB


           ************************************************************
           *        Program running with 40 parallel MPI-processes    *
           *              working on a common directory               *
           ************************************************************
-------------------------------------------------------------------------------
                                 ORCA GUESS
                   Start orbitals & Density for SCF / CASSCF
-------------------------------------------------------------------------------

------------
SCF SETTINGS
------------
Hamiltonian:
 Density Functional     Method          .... DFT(GTOs)
 Exchange Functional    Exchange        .... WB97X-V
 Correlation Functional Correlation     .... WB97X-V
 Gradients option       PostSCFGGA      .... off
 Hybrid DFT is turned on
   Fraction HF Exchange ScalHFX         ....  0.167000
   Scaling of DF-GGA-X  ScalDFX         ....  0.000000
   Scaling of DF-GGA-C  ScalDFC         ....  1.000000
   Scaling of DF-LDA-C  ScalLDAC        ....  1.000000
   Perturbative correction              ....  0.000000
 Long-range corrected/Screened/Range-Separated Hybrid DFT is turned on
   Amount of maximum screened exact exchange              ....  0.833000
   Range separation parameter mu (erf(mu*r12)/r12)        ....  0.300000
   NL short-range parameter             ....  6.000000
   NL long-range parameter              ....  0.010000
 RI-approximation to the Coulomb term is turned on
   Number of AuxJ basis functions       .... 884
   RIJ-COSX (HFX calculated with COS-X)).... on


General Settings:
 Integral files         IntName         .... ./output/myrtenyl_acetate/myrtenyl_acetate
 Hartree-Fock type      HFTyp           .... RHF
 Total Charge           Charge          ....    0
 Multiplicity           Mult            ....    1
 Number of Electrons    NEL             ....   78
 Basis Dimension        Dim             ....  272
 Nuclear Repulsion      ENuc            ....    505.4674911607 Eh

Convergence Acceleration:
 AO-DIIS                CNVDIIS         .... on
   Start iteration      DIISMaxIt       ....    12
   Startup error        DIISStart       ....  0.200000
   # of expansion vecs  DIISMaxEq       ....     5
   Bias factor          DIISBfac        ....   1.050
   Max. coefficient     DIISMaxC        ....  10.000
 MO-DIIS                CNVKDIIS        .... off
 Trust-Rad. Augm. Hess. CNVTRAH         .... auto
   Auto Start mean grad. ratio tolernc. ....  1.125000
   Auto Start start iteration           ....    50
   Auto Start num. interpolation iter.  ....    10
   Max. Number of Micro iterations      ....    24
   Max. Number of Macro iterations      .... Maxiter - #DIIS iter
   Number of Davidson start vectors     ....     2
   Converg. threshold    (grad. norm)   ....   1.000e-05
   Grad. Scal. Fac. for Micro threshold ....   0.100
   Minimum threshold for Micro iter.    ....   1.000e-02
   NR start threshold (gradient norm)   ....   1.000e-04
   Initial trust radius                 ....   0.400
   Minimum AH scaling param. (alpha)    ....   1.000
   Maximum AH scaling param. (alpha)    .... 1000.000
   Quad. conv. algorithm                .... NR
   White noise on init. David. guess    .... on
   Maximum white noise                  ....   0.010
   Pseudo random numbers                .... off
   Inactive MOs                         .... canonical
   Orbital update algorithm             .... Taylor
   Preconditioner                       .... Diag
   Full preconditioner red. dimension   ....   250
 SOSCF                  CNVSOSCF        .... on
   Start iteration      SOSCFMaxIt      ....   150
   Startup grad/error   SOSCFStart      ....  0.003300
   Hessian update       SOSCFHessUp     .... L-BFGS
 Level Shifting         CNVShift        .... on
   Level shift para.    LevelShift      ....    0.2500
   Turn off err/grad.   ShiftErr        ....    0.0010
 Zerner damping         CNVZerner       .... off
 Static damping         CNVDamp         .... on
   Fraction old density DampFac         ....    0.7000
   Max. Damping (<1)    DampMax         ....    0.9800
   Min. Damping (>=0)   DampMin         ....    0.0000
   Turn off err/grad.   DampErr         ....    0.1000

SCF Procedure:
 Maximum # iterations   MaxIter         ....   125
 SCF integral mode      SCFMode         .... Direct
   Integral package                     .... SHARK and LIBINT hybrid scheme
 Reset frequency        DirectResetFreq ....    20
 Integral Threshold     Thresh          ....  2.500e-11 Eh
 Primitive CutOff       TCut            ....  2.500e-12 Eh

Convergence Tolerance:
 Convergence Check Mode ConvCheckMode   .... Total+1el-Energy
 Convergence forced     ConvForced      .... 0
 Energy Change          TolE            ....  1.000e-08 Eh
 1-El. energy change                    ....  1.000e-05 Eh
 Orbital Gradient       TolG            ....  1.000e-05
 Orbital Rotation angle TolX            ....  1.000e-05
 DIIS Error             TolErr          ....  5.000e-07

------------------------------
INITIAL GUESS: MODEL POTENTIAL
------------------------------
Loading Hartree-Fock densities                     ... done
Atomic calculation to generate a density for atom 0 (C  with ECP)
  Multiplicity assumed   :    1
  Atomic configuration   : 1s2 2s2 2p2 
  Number of open shells  : 1
  Command: /home/aspe232/Project/Software/ORCA/6_0_1/build/orca ./output/myrtenyl_acetate/myrtenyl_acetate_atom6.inp "" > ./output/myrtenyl_acetate/myrtenyl_acetate_atom6.out
Returned from the atomic calculation with res=0
Atomic calculation to generate a density for atom 2 (O  with ECP)
  Multiplicity assumed   :    3
  Atomic configuration   : 1s2 2s2 2p4 
  Number of open shells  : 1
  Command: /home/aspe232/Project/Software/ORCA/6_0_1/build/orca ./output/myrtenyl_acetate/myrtenyl_acetate_atom8.inp "" > ./output/myrtenyl_acetate/myrtenyl_acetate_atom8.out
Returned from the atomic calculation with res=0
Calculating cut-offs                               ... done
Initializing the effective Hamiltonian             ... done
Setting up the integral package (SHARK)            ... done
Starting the Coulomb interaction                   ... done (   0.1 sec)
Making the grid                                    ... done (   1.0 sec)
Mapping shells                                     ... done
Starting the XC term evaluation                    ... done (   0.1 sec)
  promolecular density results
     # of electrons  =    105.988010642
     EX              =    -55.553469889
     EC              =     -4.328095167
     EX+EC           =    -59.881565056
Transforming the Hamiltonian                       ... done (   0.0 sec)
Diagonalizing the Hamiltonian                      ... done (   0.0 sec)
Back transforming the eigenvectors                 ... done (   0.0 sec)
Now organizing SCF variables                       ... done
                      ------------------
                      INITIAL GUESS DONE (   2.4 sec)
                      ------------------
             **** ENERGY FILE WAS UPDATED (./output/myrtenyl_acetate/myrtenyl_acetate.en.tmp) ****
Finished Guess after   3.2 sec
Maximum memory used throughout the entire GUESS-calculation: 28.0 MB


           ************************************************************
           *        Program running with 40 parallel MPI-processes    *
           *              working on a common directory               *
           ************************************************************

-------------------------------------------------------------------------------------------
                                      ORCA LEAN-SCF
                              memory conserving SCF solver
-------------------------------------------------------------------------------------------

----------------------------------------D-I-I-S--------------------------------------------
Iteration    Energy (Eh)           Delta-E    RMSDP     MaxDP     DIISErr   Damp  Time(sec)
-------------------------------------------------------------------------------------------
               ***  Starting incremental Fock matrix formation  ***
    1    -110.7134684504929396     0.00e+00  3.42e-03  8.59e-02  2.00e-01  0.700   6.1
    2    -110.9365315935294234    -2.23e-01  2.46e-03  5.52e-02  1.17e-01  0.700   4.7
                               ***Turning on AO-DIIS***
    3    -111.0465399023499344    -1.10e-01  1.31e-03  2.85e-02  5.88e-02  0.700   4.2
    4    -111.1118001087732523    -6.53e-02  2.81e-03  5.99e-02  3.62e-02  0.000   4.4
    5    -111.2511363220824592    -1.39e-01  2.48e-04  5.50e-03  5.71e-03  0.000   4.7
    6    -111.2516102394430959    -4.74e-04  1.21e-04  4.89e-03  3.63e-03  0.000   4.6
                              *** Initializing SOSCF ***
---------------------------------------S-O-S-C-F--------------------------------------
Iteration    Energy (Eh)           Delta-E    RMSDP     MaxDP     MaxGrad    Time(sec)
--------------------------------------------------------------------------------------
    7    -111.2516914595877893    -8.12e-05  6.28e-05  2.32e-03  1.59e-03     4.6
               *** Restarting incremental Fock matrix formation ***
    8    -111.2517453588151852    -5.39e-05  3.51e-05  1.42e-03  1.97e-04     6.7
    9    -111.2517489858864224    -3.63e-06  2.25e-05  1.00e-03  4.39e-04     5.5
   10    -111.2517514738945579    -2.49e-06  6.33e-06  1.21e-04  3.12e-05     5.2
   11    -111.2517515553532235    -8.15e-08  2.54e-06  6.67e-05  2.12e-05     5.0
   12    -111.2517515984441729    -4.31e-08  6.22e-07  1.82e-05  8.82e-06     5.3
   13    -111.2517515916018169     6.84e-09  2.23e-07  5.45e-06  1.53e-06     4.4
                 **** Energy Check signals convergence ****

               *****************************************************
               *                     SUCCESS                       *
               *           SCF CONVERGED AFTER  13 CYCLES          *
               *****************************************************

Recomputing exchange energy using gridx3       ... done (    6.400 sec)
Old exchange energy                            :    -15.123857285 Eh
New exchange energy                            :    -15.123857905 Eh
Exchange energy change after final integration :     -0.000000620 Eh
Total energy after final integration           :   -111.251752212 Eh
             **** ENERGY FILE WAS UPDATED (./output/myrtenyl_acetate/myrtenyl_acetate.en.tmp) ****

----------------
TOTAL SCF ENERGY
----------------

Total Energy       :       -111.25175221173751 Eh           -3027.31408 eV

Components:
Nuclear Repulsion  :        505.46749116072596 Eh           13754.46970 eV
Electronic Energy  :       -616.71924275232777 Eh          -16781.78376 eV
One Electron Energy:      -1173.79444695821803 Eh          -31940.57073 eV
Two Electron Energy:        557.07520420589026 Eh           15158.78696 eV

Virial components:
Potential Energy   :       -197.43243918049433 Eh           -5372.40980 eV
Kinetic Energy     :         86.18068696875683 Eh            2345.09571 eV
Virial Ratio       :          2.29091280337635

DFT components:
N(Alpha)           :       39.000021138558 electrons
N(Beta)            :       39.000021138558 electrons
N(Total)           :       78.000042277116 electrons
E(X)               :      -16.475227822282 Eh       
E(C)               :       -2.976127881091 Eh       
E(XC)              :      -19.451355703373 Eh       

---------------
SCF CONVERGENCE
---------------

  Last Energy change         ...   -6.8424e-09  Tolerance :   1.0000e-08
  Last MAX-Density change    ...    5.4501e-06  Tolerance :   1.0000e-07
  Last RMS-Density change    ...    2.2305e-07  Tolerance :   5.0000e-09
  Last DIIS Error            ...    1.5937e-03  Tolerance :   5.0000e-07
  Last Orbital Gradient      ...    1.5258e-06  Tolerance :   1.0000e-05
  Last Orbital Rotation      ...    6.7480e-06  Tolerance :   1.0000e-05


----------------
ORBITAL ENERGIES
----------------

  NO   OCC          E(Eh)            E(eV) 
   0   2.0000      -1.209902       -32.9231 
   1   2.0000      -1.117929       -30.4204 
   2   2.0000      -1.026885       -27.9430 
   3   2.0000      -0.928241       -25.2587 
   4   2.0000      -0.899525       -24.4773 
   5   2.0000      -0.875918       -23.8349 
   6   2.0000      -0.865208       -23.5435 
   7   2.0000      -0.818167       -22.2635 
   8   2.0000      -0.807174       -21.9643 
   9   2.0000      -0.739082       -20.1114 
  10   2.0000      -0.729415       -19.8484 
  11   2.0000      -0.695196       -18.9172 
  12   2.0000      -0.668698       -18.1962 
  13   2.0000      -0.620276       -16.8786 
  14   2.0000      -0.612956       -16.6794 
  15   2.0000      -0.600788       -16.3483 
  16   2.0000      -0.591479       -16.0950 
  17   2.0000      -0.578131       -15.7317 
  18   2.0000      -0.564820       -15.3695 
  19   2.0000      -0.550846       -14.9893 
  20   2.0000      -0.545490       -14.8435 
  21   2.0000      -0.539963       -14.6932 
  22   2.0000      -0.523045       -14.2328 
  23   2.0000      -0.521099       -14.1798 
  24   2.0000      -0.505371       -13.7518 
  25   2.0000      -0.500290       -13.6136 
  26   2.0000      -0.491449       -13.3730 
  27   2.0000      -0.480933       -13.0868 
  28   2.0000      -0.477909       -13.0046 
  29   2.0000      -0.470181       -12.7943 
  30   2.0000      -0.457173       -12.4403 
  31   2.0000      -0.443282       -12.0623 
  32   2.0000      -0.435261       -11.8440 
  33   2.0000      -0.410965       -11.1829 
  34   2.0000      -0.397576       -10.8186 
  35   2.0000      -0.394261       -10.7284 
  36   2.0000      -0.383898       -10.4464 
  37   2.0000      -0.375180       -10.2092 
  38   2.0000      -0.326919        -8.8959 
  39   0.0000       0.069190         1.8828 
  40   0.0000       0.078528         2.1368 
  41   0.0000       0.086279         2.3478 
  42   0.0000       0.093614         2.5474 
  43   0.0000       0.098053         2.6682 
  44   0.0000       0.106562         2.8997 
  45   0.0000       0.117717         3.2032 
  46   0.0000       0.124790         3.3957 
  47   0.0000       0.129550         3.5252 
  48   0.0000       0.133824         3.6415 
  49   0.0000       0.135348         3.6830 
*Only the first 10 virtual orbitals were printed.

                    ********************************
                    * MULLIKEN POPULATION ANALYSIS *
                    ********************************

-----------------------
MULLIKEN ATOMIC CHARGES
-----------------------
   0 C :   -0.078105
   1 C :    0.280258
   2 O :   -0.353269
   3 O :   -0.317213
   4 C :    0.114185
   5 C :   -0.075861
   6 C :    0.003955
   7 C :   -0.075584
   8 C :   -0.038264
   9 C :   -0.034188
  10 C :   -0.017185
  11 C :   -0.158910
  12 C :   -0.050374
  13 C :   -0.038388
  14 H :    0.072795
  15 H :    0.077658
  16 H :    0.061058
  17 H :    0.060734
  18 H :    0.048532
  19 H :    0.030309
  20 H :    0.048792
  21 H :    0.057797
  22 H :    0.041751
  23 H :    0.053479
  24 H :    0.033520
  25 H :    0.042829
  26 H :    0.036589
  27 H :    0.038099
  28 H :    0.026261
  29 H :    0.041077
  30 H :    0.032393
  31 H :    0.035271
Sum of atomic charges:   -0.0000000

--------------------------------
MULLIKEN REDUCED ORBITAL CHARGES
--------------------------------
  0 C s       :     0.962200  s :     0.962200
      pz      :     1.072032  p :     3.052665
      px      :     0.946406
      py      :     1.034227
      dz2     :     0.013853  d :     0.063241
      dxz     :     0.009046
      dyz     :     0.012379
      dx2y2   :     0.011738
      dxy     :     0.016225

  1 C s       :     1.150074  s :     1.150074
      pz      :     0.730659  p :     2.324559
      px      :     0.824627
      py      :     0.769273
      dz2     :     0.069224  d :     0.245110
      dxz     :     0.061210
      dyz     :     0.037713
      dx2y2   :     0.034173
      dxy     :     0.042790

  2 O s       :     1.793463  s :     1.793463
      pz      :     1.405087  p :     4.526173
      px      :     1.733556
      py      :     1.387530
      dz2     :     0.009618  d :     0.033633
      dxz     :     0.005981
      dyz     :     0.009739
      dx2y2   :     0.005239
      dxy     :     0.003055

  3 O s       :     1.699134  s :     1.699134
      pz      :     1.564635  p :     4.582164
      px      :     1.296483
      py      :     1.721046
      dz2     :     0.008251  d :     0.035915
      dxz     :     0.009801
      dyz     :     0.004126
      dx2y2   :     0.005445
      dxy     :     0.008292

  4 C s       :     1.024982  s :     1.024982
      pz      :     1.036465  p :     2.720004
      px      :     0.707454
      py      :     0.976086
      dz2     :     0.030378  d :     0.140829
      dxz     :     0.032506
      dyz     :     0.010443
      dx2y2   :     0.040773
      dxy     :     0.026728

  5 C s       :     1.069635  s :     1.069635
      pz      :     0.933687  p :     2.894212
      px      :     0.971598
      py      :     0.988928
      dz2     :     0.027386  d :     0.112014
      dxz     :     0.015189
      dyz     :     0.026311
      dx2y2   :     0.020255
      dxy     :     0.022873

  6 C s       :     1.058180  s :     1.058180
      pz      :     0.933855  p :     2.849277
      px      :     0.940991
      py      :     0.974432
      dz2     :     0.025794  d :     0.088587
      dxz     :     0.015046
      dyz     :     0.015907
      dx2y2   :     0.019149
      dxy     :     0.012692

  7 C s       :     0.997107  s :     0.997107
      pz      :     1.015291  p :     2.981783
      px      :     1.020566
      py      :     0.945926
      dz2     :     0.024091  d :     0.096694
      dxz     :     0.014781
      dyz     :     0.015288
      dx2y2   :     0.019647
      dxy     :     0.022887

  8 C s       :     1.061343  s :     1.061343
      pz      :     0.944632  p :     2.858873
      px      :     0.953353
      py      :     0.960888
      dz2     :     0.024911  d :     0.118049
      dxz     :     0.026100
      dyz     :     0.022435
      dx2y2   :     0.022386
      dxy     :     0.022217

  9 C s       :     1.011141  s :     1.011141
      pz      :     0.942338  p :     2.925581
      px      :     0.959882
      py      :     1.023361
      dz2     :     0.021662  d :     0.097466
      dxz     :     0.023434
      dyz     :     0.012802
      dx2y2   :     0.025759
      dxy     :     0.013809

 10 C s       :     1.033618  s :     1.033618
      pz      :     0.974209  p :     2.864808
      px      :     0.933801
      py      :     0.956798
      dz2     :     0.024645  d :     0.118758
      dxz     :     0.023840
      dyz     :     0.023894
      dx2y2   :     0.025182
      dxy     :     0.021197

 11 C s       :     1.102513  s :     1.102513
      pz      :     0.969394  p :     2.910674
      px      :     0.930507
      py      :     1.010772
      dz2     :     0.034186  d :     0.145723
      dxz     :     0.025471
      dyz     :     0.023560
      dx2y2   :     0.033254
      dxy     :     0.029251

 12 C s       :     0.956726  s :     0.956726
      pz      :     1.033900  p :     3.020052
      px      :     1.028680
      py      :     0.957472
      dz2     :     0.020377  d :     0.073597
      dxz     :     0.006704
      dyz     :     0.012583
      dx2y2   :     0.017089
      dxy     :     0.016845

 13 C s       :     0.944298  s :     0.944298
      pz      :     1.017938  p :     3.022694
      px      :     0.995739
      py      :     1.009018
      dz2     :     0.022615  d :     0.071396
      dxz     :     0.008616
      dyz     :     0.006585
      dx2y2   :     0.023442
      dxy     :     0.010139

 14 H s       :     0.881363  s :     0.881363
      pz      :     0.014922  p :     0.045842
      px      :     0.010163
      py      :     0.020757

 15 H s       :     0.878190  s :     0.878190
      pz      :     0.012574  p :     0.044152
      px      :     0.017016
      py      :     0.014563

 16 H s       :     0.894634  s :     0.894634
      pz      :     0.022628  p :     0.044308
      px      :     0.010469
      py      :     0.011210

 17 H s       :     0.898880  s :     0.898880
      pz      :     0.022600  p :     0.040387
      px      :     0.008578
      py      :     0.009209

 18 H s       :     0.910492  s :     0.910492
      pz      :     0.009923  p :     0.040976
      px      :     0.006756
      py      :     0.024297

 19 H s       :     0.921631  s :     0.921631
      pz      :     0.010963  p :     0.048060
      px      :     0.012847
      py      :     0.024250

 20 H s       :     0.907856  s :     0.907856
      pz      :     0.009656  p :     0.043352
      px      :     0.021368
      py      :     0.012328

 21 H s       :     0.899460  s :     0.899460
      pz      :     0.021294  p :     0.042744
      px      :     0.011997
      py      :     0.009453

 22 H s       :     0.917255  s :     0.917255
      pz      :     0.014701  p :     0.040994
      px      :     0.013235
      py      :     0.013058

 23 H s       :     0.903640  s :     0.903640
      pz      :     0.013256  p :     0.042880
      px      :     0.017105
      py      :     0.012519

 24 H s       :     0.922346  s :     0.922346
      pz      :     0.010523  p :     0.044134
      px      :     0.010372
      py      :     0.023239

 25 H s       :     0.915628  s :     0.915628
      pz      :     0.016570  p :     0.041542
      px      :     0.011926
      py      :     0.013045

 26 H s       :     0.920441  s :     0.920441
      pz      :     0.023238  p :     0.042970
      px      :     0.009962
      py      :     0.009770

 27 H s       :     0.918902  s :     0.918902
      pz      :     0.011267  p :     0.043000
      px      :     0.021914
      py      :     0.009819

 28 H s       :     0.929041  s :     0.929041
      pz      :     0.012541  p :     0.044698
      px      :     0.014717
      py      :     0.017440

 29 H s       :     0.911216  s :     0.911216
      pz      :     0.010968  p :     0.047706
      px      :     0.013033
      py      :     0.023705

 30 H s       :     0.924221  s :     0.924221
      pz      :     0.022948  p :     0.043386
      px      :     0.010048
      py      :     0.010391

 31 H s       :     0.921467  s :     0.921467
      pz      :     0.011416  p :     0.043262
      px      :     0.021593
      py      :     0.010253



                     *******************************
                     * LOEWDIN POPULATION ANALYSIS *
                     *******************************

----------------------
LOEWDIN ATOMIC CHARGES
----------------------
   0 C :   -0.092157
   1 C :    0.023051
   2 O :   -0.195120
   3 O :   -0.055278
   4 C :   -0.037237
   5 C :   -0.035004
   6 C :   -0.013309
   7 C :   -0.075024
   8 C :   -0.036738
   9 C :   -0.062269
  10 C :   -0.041092
  11 C :   -0.056993
  12 C :   -0.109641
  13 C :   -0.112996
  14 H :    0.071416
  15 H :    0.076268
  16 H :    0.062995
  17 H :    0.064687
  18 H :    0.060350
  19 H :    0.035983
  20 H :    0.045739
  21 H :    0.052427
  22 H :    0.036649
  23 H :    0.044748
  24 H :    0.036961
  25 H :    0.039751
  26 H :    0.047044
  27 H :    0.047875
  28 H :    0.044922
  29 H :    0.041311
  30 H :    0.045169
  31 H :    0.045512

-------------------------------
LOEWDIN REDUCED ORBITAL CHARGES
-------------------------------
  0 C s       :     0.783558  s :     0.783558
      pz      :     1.072054  p :     3.096612
      px      :     0.980292
      py      :     1.044266
      dz2     :     0.042417  d :     0.211987
      dxz     :     0.033637
      dyz     :     0.041510
      dx2y2   :     0.039654
      dxy     :     0.054769

  1 C s       :     0.786474  s :     0.786474
      pz      :     0.829280  p :     2.521893
      px      :     0.879120
      py      :     0.813493
      dz2     :     0.177754  d :     0.668581
      dxz     :     0.166118
      dyz     :     0.123362
      dx2y2   :     0.090998
      dxy     :     0.110348

  2 O s       :     1.561578  s :     1.561578
      pz      :     1.479774  p :     4.566021
      px      :     1.663815
      py      :     1.422432
      dz2     :     0.016774  d :     0.067522
      dxz     :     0.011936
      dyz     :     0.023065
      dx2y2   :     0.008015
      dxy     :     0.007732

  3 O s       :     1.399932  s :     1.399932
      pz      :     1.565351  p :     4.557027
      px      :     1.346007
      py      :     1.645668
      dz2     :     0.017556  d :     0.098319
      dxz     :     0.031773
      dyz     :     0.008630
      dx2y2   :     0.020010
      dxy     :     0.020350

  4 C s       :     0.765900  s :     0.765900
      pz      :     1.047570  p :     2.852763
      px      :     0.789797
      py      :     1.015395
      dz2     :     0.094301  d :     0.418575
      dxz     :     0.094004
      dyz     :     0.028862
      dx2y2   :     0.119325
      dxy     :     0.082082

  5 C s       :     0.796980  s :     0.796980
      pz      :     0.976630  p :     2.878918
      px      :     0.921095
      py      :     0.981194
      dz2     :     0.083144  d :     0.359106
      dxz     :     0.051997
      dyz     :     0.087358
      dx2y2   :     0.066885
      dxy     :     0.069722

  6 C s       :     0.816623  s :     0.816623
      pz      :     0.959016  p :     2.910264
      px      :     0.916730
      py      :     1.034517
      dz2     :     0.079879  d :     0.286422
      dxz     :     0.049594
      dyz     :     0.055482
      dx2y2   :     0.065370
      dxy     :     0.036098

  7 C s       :     0.772371  s :     0.772371
      pz      :     1.015008  p :     3.002035
      px      :     1.029582
      py      :     0.957445
      dz2     :     0.076287  d :     0.300618
      dxz     :     0.044558
      dyz     :     0.047596
      dx2y2   :     0.060518
      dxy     :     0.071659

  8 C s       :     0.765990  s :     0.765990
      pz      :     0.970784  p :     2.900064
      px      :     0.965593
      py      :     0.963687
      dz2     :     0.072973  d :     0.370684
      dxz     :     0.087127
      dyz     :     0.074831
      dx2y2   :     0.065467
      dxy     :     0.070286

  9 C s       :     0.767718  s :     0.767718
      pz      :     0.953436  p :     2.976688
      px      :     0.981605
      py      :     1.041647
      dz2     :     0.064049  d :     0.317863
      dxz     :     0.079599
      dyz     :     0.042876
      dx2y2   :     0.084281
      dxy     :     0.047058

 10 C s       :     0.757568  s :     0.757568
      pz      :     0.985022  p :     2.911003
      px      :     0.958002
      py      :     0.967978
      dz2     :     0.074048  d :     0.372521
      dxz     :     0.078236
      dyz     :     0.075935
      dx2y2   :     0.075699
      dxy     :     0.068603

 11 C s       :     0.755922  s :     0.755922
      pz      :     0.961507  p :     2.863079
      px      :     0.944573
      py      :     0.956999
      dz2     :     0.097196  d :     0.437992
      dxz     :     0.080179
      dyz     :     0.074260
      dx2y2   :     0.096803
      dxy     :     0.089554

 12 C s       :     0.779028  s :     0.779028
      pz      :     1.057184  p :     3.090015
      px      :     1.049971
      py      :     0.982860
      dz2     :     0.065831  d :     0.240599
      dxz     :     0.021365
      dyz     :     0.041702
      dx2y2   :     0.056678
      dxy     :     0.055023

 13 C s       :     0.779385  s :     0.779385
      pz      :     1.042648  p :     3.097316
      px      :     1.022993
      py      :     1.031674
      dz2     :     0.074676  d :     0.236295
      dxz     :     0.028692
      dyz     :     0.021417
      dx2y2   :     0.078846
      dxy     :     0.032664

 14 H s       :     0.782741  s :     0.782741
      pz      :     0.048753  p :     0.145843
      px      :     0.037964
      py      :     0.059126

 15 H s       :     0.783184  s :     0.783184
      pz      :     0.044756  p :     0.140548
      px      :     0.048886
      py      :     0.046906

 16 H s       :     0.792388  s :     0.792388
      pz      :     0.063969  p :     0.144617
      px      :     0.038310
      py      :     0.042339

 17 H s       :     0.799789  s :     0.799789
      pz      :     0.067218  p :     0.135524
      px      :     0.031175
      py      :     0.037131

 18 H s       :     0.804471  s :     0.804471
      pz      :     0.038243  p :     0.135179
      px      :     0.025794
      py      :     0.071142

 19 H s       :     0.809777  s :     0.809777
      pz      :     0.038610  p :     0.154239
      px      :     0.043991
      py      :     0.071638

 20 H s       :     0.804290  s :     0.804290
      pz      :     0.040258  p :     0.149971
      px      :     0.064089
      py      :     0.045624

 21 H s       :     0.799788  s :     0.799788
      pz      :     0.064714  p :     0.147785
      px      :     0.044195
[...]
 48:   1141.59   0.000287    1.45  0.000079  (-0.001593  0.007730  0.004028)
 49:   1166.57   0.000433    2.19  0.000116  ( 0.000226  0.005799 -0.009069)
 50:   1187.14   0.000969    4.90  0.000255  (-0.009049 -0.008075 -0.010380)
 51:   1233.30   0.000815    4.12  0.000206  (-0.002289  0.002392  0.013972)
 52:   1242.08   0.000389    1.97  0.000098  ( 0.008557 -0.000435  0.004939)
 53:   1273.05   0.000367    1.85  0.000090  (-0.009021 -0.002926 -0.000141)
 54:   1285.77   0.003834   19.38  0.000931  (-0.029060 -0.002500  0.008939)
 55:   1294.70   0.004401   22.24  0.001061  (-0.027467  0.007422  0.015854)
 56:   1297.54   0.010465   52.89  0.002517  ( 0.050010  0.003415 -0.002044)
 57:   1311.74   0.038312  193.61  0.009114  (-0.091731  0.013701  0.022631)
 58:   1339.61   0.021147  106.87  0.004926  (-0.065375  0.011455  0.022830)
 59:   1352.78   0.004819   24.35  0.001112  ( 0.030272 -0.002396 -0.013763)
 60:   1387.22   0.000703    3.55  0.000158  ( 0.011759 -0.003531 -0.002700)
 61:   1406.51   0.000559    2.83  0.000124  ( 0.004389 -0.008292 -0.006005)
 62:   1423.27   0.004929   24.91  0.001081  ( 0.031485  0.006574  0.006792)
 63:   1433.99   0.001161    5.87  0.000253  ( 0.015254 -0.003012  0.003315)
 64:   1438.57   0.003525   17.82  0.000765  (-0.013982 -0.023379  0.004762)
 65:   1450.72   0.005388   27.23  0.001159  ( 0.029457 -0.003702 -0.016658)
 66:   1453.87   0.017229   87.07  0.003698  (-0.055520 -0.007736  0.023574)
 67:   1502.32   0.003207   16.21  0.000666  (-0.005822 -0.018026 -0.017534)
 68:   1505.44   0.001569    7.93  0.000325  ( 0.009169  0.006645  0.014038)
 69:   1508.94   0.002927   14.79  0.000605  ( 0.006620 -0.018002  0.015408)
 70:   1510.41   0.001569    7.93  0.000324  (-0.007315 -0.016443  0.000483)
 71:   1513.50   0.004727   23.89  0.000975  (-0.024743 -0.016514  0.009468)
 72:   1519.63   0.001482    7.49  0.000304  ( 0.009611  0.008913  0.011511)
 73:   1530.52   0.000142    0.72  0.000029  (-0.001339 -0.005218  0.000130)
 74:   1544.13   0.002468   12.47  0.000499  ( 0.000234 -0.008821  0.020518)
 75:   1548.57   0.001414    7.15  0.000285  ( 0.016560  0.003192 -0.000728)
 76:   1793.30   0.000911    4.60  0.000159  (-0.008941  0.007148 -0.005244)
 77:   1878.76   0.050520  255.31  0.008391  (-0.007060  0.072259  0.055858)
 78:   3088.59   0.006751   34.12  0.000682  (-0.009943 -0.015455 -0.018558)
 79:   3094.38   0.004681   23.66  0.000472  (-0.009680 -0.018239  0.006763)
 80:   3099.64   0.010577   53.45  0.001065  ( 0.024140 -0.013550 -0.017278)
 81:   3128.46   0.009728   49.16  0.000970  (-0.027022  0.004408 -0.014856)
 82:   3132.37   0.002257   11.40  0.000225  (-0.009757 -0.002840  0.011025)
 83:   3135.97   0.000359    1.81  0.000036  (-0.004625 -0.003635 -0.001063)
 84:   3138.09   0.002750   13.90  0.000273  ( 0.009433  0.007280 -0.011468)
 85:   3140.44   0.010816   54.66  0.001075  ( 0.003145  0.011628 -0.030491)
 86:   3150.52   0.004451   22.49  0.000441  (-0.013994 -0.013137 -0.008510)
 87:   3171.68   0.000831    4.20  0.000082  (-0.005333 -0.000110 -0.007303)
 88:   3177.81   0.005904   29.84  0.000580  ( 0.014635 -0.000053  0.019121)
 89:   3204.93   0.003044   15.38  0.000296  ( 0.014107 -0.002162 -0.009629)
 90:   3213.70   0.000508    2.57  0.000049  (-0.000588  0.006866  0.001365)
 91:   3219.04   0.001763    8.91  0.000171  (-0.004436  0.011695  0.003809)
 92:   3221.04   0.005860   29.62  0.000568  (-0.001433 -0.023578  0.003128)
 93:   3230.22   0.000113    0.57  0.000011  (-0.002407  0.001188 -0.001937)
 94:   3242.57   0.001476    7.46  0.000142  (-0.002853  0.011570  0.000275)
 95:   3264.74   0.000234    1.18  0.000022  ( 0.004567  0.000155 -0.001211)

* The epsilon (eps) is given for a Dirac delta lineshape.
** The dipole moment derivative (T) already includes vibrational overlap.

The first frequency considered to be a vibration is 6
The total number of vibrations considered is 90


--------------------------
THERMOCHEMISTRY AT 298.15K
--------------------------

Temperature         ...   298.15 K
Pressure            ...     1.00 atm
Total Mass          ...   194.27 AMU
Quasi RRHO          ...     True
Cut-Off Frequency   ...     1.00 cm^-1

Throughout the following assumptions are being made:
  (1) The electronic state is orbitally nondegenerate
  (2) There are no thermally accessible electronically excited states
  (3) Hindered rotations indicated by low frequency modes are not
      treated as such but are treated as vibrations and this may
      cause some error
  (4) All equations used are the standard statistical mechanics
      equations for an ideal gas
  (5) All vibrations are strictly harmonic

freq.      29.67  E(vib)   ...       0.55 
freq.      43.33  E(vib)   ...       0.53 
freq.      53.72  E(vib)   ...       0.52 
freq.      80.05  E(vib)   ...       0.49 
freq.     114.13  E(vib)   ...       0.44 
freq.     175.31  E(vib)   ...       0.38 
freq.     182.57  E(vib)   ...       0.37 
freq.     211.58  E(vib)   ...       0.34 
freq.     239.05  E(vib)   ...       0.32 
freq.     265.29  E(vib)   ...       0.29 
freq.     299.78  E(vib)   ...       0.26 
freq.     348.84  E(vib)   ...       0.23 
freq.     385.83  E(vib)   ...       0.20 
freq.     399.80  E(vib)   ...       0.19 
freq.     405.57  E(vib)   ...       0.19 
freq.     436.26  E(vib)   ...       0.17 
freq.     465.17  E(vib)   ...       0.16 
freq.     480.83  E(vib)   ...       0.15 
freq.     520.00  E(vib)   ...       0.13 
freq.     614.96  E(vib)   ...       0.10 
freq.     624.47  E(vib)   ...       0.09 
freq.     662.05  E(vib)   ...       0.08 
freq.     696.06  E(vib)   ...       0.07 
freq.     727.57  E(vib)   ...       0.06 
freq.     818.07  E(vib)   ...       0.05 
freq.     838.47  E(vib)   ...       0.04 
freq.     867.28  E(vib)   ...       0.04 
freq.     888.82  E(vib)   ...       0.04 
freq.     901.90  E(vib)   ...       0.03 
freq.     933.07  E(vib)   ...       0.03 
freq.     960.88  E(vib)   ...       0.03 
freq.     978.09  E(vib)   ...       0.03 
freq.     980.79  E(vib)   ...       0.02 
freq.    1002.32  E(vib)   ...       0.02 
freq.    1007.06  E(vib)   ...       0.02 
freq.    1023.05  E(vib)   ...       0.02 
freq.    1042.55  E(vib)   ...       0.02 
freq.    1065.42  E(vib)   ...       0.02 
freq.    1091.14  E(vib)   ...       0.02 
freq.    1095.09  E(vib)   ...       0.02 
freq.    1100.41  E(vib)   ...       0.02 
freq.    1109.86  E(vib)   ...       0.02 
freq.    1141.59  E(vib)   ...       0.01 
freq.    1166.57  E(vib)   ...       0.01 
freq.    1187.14  E(vib)   ...       0.01 
freq.    1233.30  E(vib)   ...       0.01 
freq.    1242.08  E(vib)   ...       0.01 
freq.    1273.05  E(vib)   ...       0.01 
freq.    1285.77  E(vib)   ...       0.01 
freq.    1294.70  E(vib)   ...       0.01 
freq.    1297.54  E(vib)   ...       0.01 
freq.    1311.74  E(vib)   ...       0.01 
freq.    1339.61  E(vib)   ...       0.01 
freq.    1352.78  E(vib)   ...       0.01 
freq.    1387.22  E(vib)   ...       0.00 
freq.    1406.51  E(vib)   ...       0.00 
freq.    1423.27  E(vib)   ...       0.00 
freq.    1433.99  E(vib)   ...       0.00 
freq.    1438.57  E(vib)   ...       0.00 
freq.    1450.72  E(vib)   ...       0.00 
freq.    1453.87  E(vib)   ...       0.00 
freq.    1502.32  E(vib)   ...       0.00 
freq.    1505.44  E(vib)   ...       0.00 
freq.    1508.94  E(vib)   ...       0.00 
freq.    1510.41  E(vib)   ...       0.00 
freq.    1513.50  E(vib)   ...       0.00 
freq.    1519.63  E(vib)   ...       0.00 
freq.    1530.52  E(vib)   ...       0.00 
freq.    1544.13  E(vib)   ...       0.00 
freq.    1548.57  E(vib)   ...       0.00 
freq.    1793.30  E(vib)   ...       0.00 
freq.    1878.76  E(vib)   ...       0.00 
freq.    3088.59  E(vib)   ...       0.00 
freq.    3094.38  E(vib)   ...       0.00 
freq.    3099.64  E(vib)   ...       0.00 
freq.    3128.46  E(vib)   ...       0.00 
freq.    3132.37  E(vib)   ...       0.00 
freq.    3135.97  E(vib)   ...       0.00 
freq.    3138.09  E(vib)   ...       0.00 
freq.    3140.44  E(vib)   ...       0.00 
freq.    3150.52  E(vib)   ...       0.00 
freq.    3171.68  E(vib)   ...       0.00 
freq.    3177.81  E(vib)   ...       0.00 
freq.    3204.93  E(vib)   ...       0.00 
freq.    3213.70  E(vib)   ...       0.00 
freq.    3219.04  E(vib)   ...       0.00 
freq.    3221.04  E(vib)   ...       0.00 
freq.    3230.22  E(vib)   ...       0.00 
freq.    3242.57  E(vib)   ...       0.00 
freq.    3264.74  E(vib)   ...       0.00 

------------
INNER ENERGY
------------

The inner energy is: U= E(el) + E(ZPE) + E(vib) + E(rot) + E(trans)
    E(el)   - is the total energy from the electronic structure calculation
              = E(kin-el) + E(nuc-el) + E(el-el) + E(nuc-nuc)
    E(ZPE)  - the the zero temperature vibrational energy from the frequency calculation
    E(vib)  - the the finite temperature correction to E(ZPE) due to population
              of excited vibrational states
    E(rot)  - is the rotational thermal energy
    E(trans)- is the translational thermal energy

Summary of contributions to the inner energy U:
Electronic energy                ...   -111.32366211 Eh
Zero point energy                ...      0.28635632 Eh     179.69 kcal/mol
Thermal vibrational correction   ...      0.01107613 Eh       6.95 kcal/mol
Thermal rotational correction    ...      0.00141627 Eh       0.89 kcal/mol
Thermal translational correction ...      0.00141627 Eh       0.89 kcal/mol
-----------------------------------------------------------------------
Total thermal energy                   -111.02339711 Eh


Summary of corrections to the electronic energy:
(perhaps to be used in another calculation)
Total thermal correction                  0.01390868 Eh       8.73 kcal/mol
Non-thermal (ZPE) correction              0.28635632 Eh     179.69 kcal/mol
-----------------------------------------------------------------------
Total correction                          0.30026500 Eh     188.42 kcal/mol


--------
ENTHALPY
--------

The enthalpy is H = U + kB*T
                kB is Boltzmann's constant
Total thermal energy              ...   -111.02339711 Eh 
Thermal Enthalpy correction       ...      0.00094421 Eh       0.59 kcal/mol
-----------------------------------------------------------------------
Total Enthalpy                    ...   -111.02245290 Eh


Note: Only C1 symmetry has been detected, increase convergence thresholds 
      if your molecule has a higher symmetry. Symmetry factor of 1.0 is   
      used for the rotational entropy correction. 
 

Note: Rotational entropy computed according to Herzberg 
Infrared and Raman Spectra, Chapter V,1, Van Nostrand Reinhold, 1945 
Point Group:  C1, Symmetry Number:   1  
Rotational constants in cm-1:     0.046421     0.013816     0.013245 

Vibrational entropy computed according to the QRRHO of S. Grimme
Chem.Eur.J. 2012 18 9955 using a reference frequency of 100.0 cm-1


-------
ENTROPY
-------

The entropy contributions are T*S = T*(S(el)+S(vib)+S(rot)+S(trans))
     S(el)   - electronic entropy
     S(vib)  - vibrational entropy
     S(rot)  - rotational entropy
     S(trans)- translational entropy
The entropies will be listed as multiplied by the temperature to get
units of energy

Electronic entropy                ...      0.00000000 Eh      0.00 kcal/mol
Vibrational entropy               ...      0.01929463 Eh     12.11 kcal/mol
Rotational entropy                ...      0.01502298 Eh      9.43 kcal/mol
Translational entropy             ...      0.01981179 Eh     12.43 kcal/mol
-----------------------------------------------------------------------
Final entropy term                ...      0.05412940 Eh     33.97 kcal/mol

In case the symmetry of your molecule has not been determined correctly
or in case you have a reason to use a different symmetry number we print 
out the resulting rotational entropy values for sn=1,12:

 non-linear molecules -----------------------------------
|  sn= 1 | S(rot)=       0.01502298 Eh      9.43 kcal/mol|
|  sn= 2 | S(rot)=       0.01436852 Eh      9.02 kcal/mol|
|  sn= 3 | S(rot)=       0.01398569 Eh      8.78 kcal/mol|
|  sn= 4 | S(rot)=       0.01371407 Eh      8.61 kcal/mol|
|  sn= 5 | S(rot)=       0.01350338 Eh      8.47 kcal/mol|
|  sn= 6 | S(rot)=       0.01333124 Eh      8.37 kcal/mol|
|  sn= 7 | S(rot)=       0.01318569 Eh      8.27 kcal/mol|
|  sn= 8 | S(rot)=       0.01305961 Eh      8.20 kcal/mol|
|  sn= 9 | S(rot)=       0.01294840 Eh      8.13 kcal/mol|
|  sn=10 | S(rot)=       0.01284892 Eh      8.06 kcal/mol|
|  sn=11 | S(rot)=       0.01275893 Eh      8.01 kcal/mol|
|  sn=12 | S(rot)=       0.01267678 Eh      7.95 kcal/mol|
 linear molecules ---------------------------------------
|  Dinfh | S(rot)=       0.00940857 Eh      5.90 kcal/mol|
|  Cinfv | S(rot)=       0.01006302 Eh      6.31 kcal/mol|
 --------------------------------------------------------


-------------------
GIBBS FREE ENERGY
-------------------

The Gibbs free energy is G = H - T*S

Total enthalpy                    ...   -111.02245290 Eh 
Total entropy correction          ...     -0.05412940 Eh    -33.97 kcal/mol
-----------------------------------------------------------------------
Final Gibbs free energy         ...   -111.07658230 Eh

For completeness - the Gibbs free energy minus the electronic energy
G-E(el)                           ...      0.24707981 Eh    155.04 kcal/mol


Maximum memory used throughout the entire PROP-calculation: 177.1 MB

--------------------------------
SUGGESTED CITATIONS FOR THIS RUN
--------------------------------

Below you find a list of papers that are relevant to this ORCA run
We neither can nor want to force you to cite these papers, but we appreciate if you do
You receive ORCA, which is the product of decades of hard work by many enthusiastic individuals, for free
The only thing we kindly ask in return is that you cite our papers,
We deeply appreciate it, if you show your appreciation for ORCA by not just citing the generic ORCA reference.

Please note that relegating all ORCA citations to the supporting information does *not* help us.
SI sections are not indexed - citations you put there will not count into any citation statistics
But we need these citations in order to attract the funding resources that allow us to do what we are doing

Therefore, if you are a happy ORCA user, please consider citing a few of the papers listed below in the main body of your paper

In addition to the list printed below, the program has created the file ./output/myrtenyl_acetate/myrtenyl_acetate.bibtex that contains the list in bibtex format
You can import this file easily into all common literature databanks and citation aid programs


List of essential papers. We consider these as the minimum necessary citations

  1. Neese,F.
     Software update: the ORCA program system, version 5.0
     WIRES Comput. Molec. Sci., 2022 12(1)e1606
     doi.org/10.1002/wcms.1606
  2. Mueller,M.; Hansen,A.; Grimme,S.
     wB97X-3c: A composite range-separated hybrid DFT method with a molecule-optimized polarized valence double-zeta basis set
     J. Chem. Phys., 2023 158 014103
     doi.org/10.1063/5.0133026

List of papers to cite with high priority. The work reported in these papers was absolutely
necessary for this run to complete.
Our perspective: the developers of density functionals and basis sets usually get cited in chemistry papers
Good! But without the algorithms to do something with them, the functionals or basis sets would not do anything.
Hence, in our opinion, the algorithm design and method developments papers are equally worthy of getting cited

  1. Neese,F.
     An improvement of the resolution of the identity approximation for the formation of the Coulomb matrix
     J. Comp. Chem., 2003 24(14)1740-1747
     doi.org/10.1002/jcc.10318
  2. Neese,F.; Wennmohs,F.; Hansen,A.; Becker,U.
     Efficient, approximate and parallel Hartree-Fock and hybrid DFT calculations. A 'chain-of-spheres' algorithm for the Hartree-Fock exchange
     Chem. Phys., 2009 356(1-3)98-109
     doi.org/10.1016/j.chemphys.2008.10.036
  3. Bykov,D.; Petrenko,T.; Izsak,R.; Kossmann,S.; Becker,U.; Valeev,E.; Neese,F.
     Efficient implementation of the analytic second derivatives of Hartree-Fock and hybrid DFT energies: a detailed analysis of different approximations
     Molec. Phys., 2015 113 1961-1977
     doi.org/10.1080/00268976.2015.1025114
  4. Helmich-Paris,B.; de Souza,B.; Neese,F.; Izsák,R.
     An improved chain of spheres for exchange algorithm
     J. Chem. Phys., 2021 155 104109
     doi.org/doi: 10.1063/5.0058766.
  5. Neese,F.
     The SHARK Integral Generation and Digestion System
     J. Comp. Chem., 2022  1-16
     doi.org/10.1002/jcc.26942
  6. Caldeweyher,E.; Bannwarth,C.; Grimme,S.
     Extension of the D3 dispersion coefficient model
     J. Chem. Phys., 2017 147 034112
     doi.org/10.1063/1.4993215
  7. Caldeweyher,E.; Ehlert,S.; Hansen,A.; Neugebauer,H.; Spicher,S.; Bannwarth,C.; Grimme,S.
     A generally applicable atomic-charge dependent London dispersion correction
     J. Chem. Phys., 2019 150 154122
     doi.org/10.1063/1.5090222
  8. Caldeweyher,E.; Mewes,J.; Ehlert,S.; Grimme,S.
     Extension and evaluation of the D4 London-dispersion model for periodic systems
     Phys. Chem. Chem. Phys., 2020 22(16)8499-8512
     doi.org/10.1039/D0CP00502A
  9. Wittmann,L.; Gordiy,I.; Friede,M.; Helmich-Paris,B.; Grimme,S.; Hansen,A.; Bursch,M.
     Extension of the D3 and D4 London Dispersion Corrections to the full Actinides Series
     Phys. Chem. Chem. Phys., 2024 26(32)21379-21394
     doi.org/https://doi.org/10.1039/D4CP01514B 

List of suggested additional citations. These are papers that are important in the 'surrounding' of 
of this run, or papers that preceded the highly important papers. If you like your results we are grateful for a citation.

  1. Izsak,R.; Neese,F.
     An overlap fitted chain of spheres exchange method
     J. Chem. Phys., 2011 135 144105
     doi.org/10.1063/1.3646921
  2. Izsak,R.; Hansen,A.; Neese,F.
     The resolution of identity and chain of spheres approximations for the LPNO-CCSD singles Fock term
     Molec. Phys., 2012 110 2413-2417
     doi.org/10.1080/00268976.2012.687466
  3. Neese,F.
     The ORCA program system
     WIRES Comput. Molec. Sci., 2012 2(1)73-78
     doi.org/10.1002/wcms.81
  4. Izsak,R.; Neese,F.; Klopper,W.
     Robust fitting techniques in the chain of spheres approximation to the Fock exchange: The role of the complementary space
     J. Chem. Phys., 2013 139 
     doi.org/10.1063/1.4819264
  5. Neese,F.
     Software update: the ORCA program system, version 4.0
     WIRES Comput. Molec. Sci., 2018 8(1)1-6
     doi.org/10.1002/wcms.1327
  6. Neese,F.; Wennmohs,F.; Becker,U.; Riplinger,C.
     The ORCA quantum chemistry program package
     J. Chem. Phys., 2020 152 Art. No. L224108
     doi.org/10.1063/5.0004608

List of optional additional citations

  1. Neese,F.
     Approximate second-order SCF convergence for spin unrestricted wavefunctions
     Chem. Phys. Lett., 2000 325(1-3)93-98
     doi.org/10.1016/s0009-2614(00)00662-x

Timings for individual modules:

Sum of individual times          ...     1589.206 sec (=  26.487 min)
Startup calculation              ...       79.070 sec (=   1.318 min)   5.0 %
SCF iterations                   ...      992.618 sec (=  16.544 min)  62.5 %
Property integrals               ...       95.575 sec (=   1.593 min)   6.0 %
SCF Response                     ...       59.401 sec (=   0.990 min)   3.7 %
Property calculations            ...      147.772 sec (=   2.463 min)   9.3 %
SCF Gradient evaluation          ...      214.336 sec (=   3.572 min)  13.5 %
Geometry relaxation              ...        0.435 sec (=   0.007 min)   0.0 %
                             ****ORCA TERMINATED NORMALLY****
TOTAL RUN TIME: 0 days 0 hours 26 minutes 37 seconds 740 msec
