
                                 *****************
                                 * O   R   C   A *
                                 *****************

                                            #,                                       
                                            ###                                      
                                            ####                                     
                                            #####                                    
                                            ######                                   
                                           ########,                                 
                                     ,,################,,,,,                         
                               ,,#################################,,                 
                          ,,##########################################,,             
                       ,#########################################, ''#####,          
                    ,#############################################,,   '####,        
                  ,##################################################,,,,####,       
                ,###########''''           ''''###############################       
              ,#####''   ,,,,##########,,,,          '''####'''          '####       
            ,##' ,,,,###########################,,,                        '##       
           ' ,,###''''                  '''############,,,                           
         ,,##''                                '''############,,,,        ,,,,,,###''
      ,#''                                            '''#######################'''  
     '                                                          ''''####''''         
             ,#######,   #######,   ,#######,      ##                                
            ,#'     '#,  ##    ##  ,#'     '#,    #''#        ,####,   ,####,        
            ##       ##  ##   ,#'  ##            #'  '#       #'       #'  '#        
            ##       ##  #######   ##           ,######,      #####,   #    #        
            '#,     ,#'  ##    ##  '#,     ,#' ,#      #,     #,   #   #,  ,#        
             '#######'   ##     ##  '#######'  #'      '#     '####' # '####'        



                #########################################################
                #                        -***-                          #
                #          Department of theory and spectroscopy        #
                #                                                       #
                #                      Frank Neese                      #
                #                                                       #
                #     Directorship, Architecture, Infrastructure        #
                #                    SHARK, DRIVERS                     #
                #        Core code/Algorithms in most modules           #
                #                                                       #
                #        Max Planck Institute fuer Kohlenforschung      #
                #                Kaiser Wilhelm Platz 1                 #
                #                 D-45470 Muelheim/Ruhr                 #
                #                      Germany                          #
                #                                                       #
                #                  All rights reserved                  #
                #                        -***-                          #
                #########################################################


                         Program Version 6.0.1  -  RELEASE   -


 With contributions from (in alphabetic order):
[Max-Planck-Institut fuer Kohlenforschung]                               
  Daniel Aravena         : Magnetic Suceptibility                        
  Michael Atanasov       : Ab Initio Ligand Field Theory (pilot matlab implementation)
  Alexander A. Auer      : GIAO ZORA, VPT2 properties, NMR spectrum      
  Ute Becker             : All parallelization in ORCA, NUMFREQ, NUMCALC 
  Giovanni Bistoni       : ED, misc. LED, open-shell LED, HFLD           
  Martin Brehm           : Molecular dynamics                            
  Dmytro Bykov           : pre 5.0 version of the SCF Hessian            
  Marcos Casanova-Páez   : Triplet and SCS-CIS(D). UHF-(DLPNO)-IP/EA/STEOM-CCSD. UHF-CVS-IP/STEOM-CCSD   
  Vijay G. Chilkuri      : MRCI spin determinant printing, contributions to CSF-ICE 
  Pauline Colinet        : FMM embedding                                 
  Dipayan Datta          : RHF DLPNO-CCSD density                        
  Achintya Kumar Dutta   : EOM-CC, STEOM-CC                              
  Nicolas Foglia         : Exact transition moments, OPA infrastructure, MCD improvements    
  Dmitry Ganyushin       : Spin-Orbit,Spin-Spin,Magnetic field MRCI      
  Miquel Garcia-Rates    : C-PCM and meta-GGA Hessian, CCSD/C-PCM, Gaussian charge scheme 
  Tiago L. C. Gouveia    : GS-ROHF, GS-ROCIS                             
  Yang Guo               : DLPNO-NEVPT2, F12-NEVPT2, CIM, IAO-localization        
  Andreas Hansen         : Spin unrestricted coupled pair/coupled cluster methods 
  Ingolf Harden          : AUTO-CI MPn and infrastructure                
  Benjamin Helmich-Paris : MC-RPA, TRAH-(SCF,CASSCF), AVAS, COSX integrals, SCF dyn. polar. 
  Lee Huntington         : MR-EOM, pCC                                   
  Robert Izsak           : Overlap fitted RIJCOSX, COSX-SCS-MP3, EOM     
  Riya Kayal             : Wick's Theorem for AUTO-CI, AUTO-CI UHF-CCSDT 
  Emily Kempfer          : AUTO-CI, RHF CISDT and CCSDT                  
  Christian Kollmar      : KDIIS, OOCD, Brueckner-CCSD(T), CCSD density, CASPT2, CASPT2-K, improved NEVPT2 
  Axel Koslowski         : Symmetry handling                             
  Simone Kossmann        : meta-GGA functionals, TD-DFT gradient, OOMP2, (MP2 Hessian; deprecated post 5.0) 
  Lucas Lang             : DCDCAS                                        
  Marvin Lechner         : AUTO-CI (C++ implementation), FIC-MRCC        
  Spencer Leger          : CASSCF response                               
  Dagmar Lenk            : GEPOL surface, SMD, ORCA-2-JSON               
  Dimitrios Liakos       : Extrapolation schemes; Compound Job, initial MDCI parallelization 
  Dimitrios Manganas     : Further ROCIS development; embedding schemes. LFT, Crystal Embedding 
  Dimitrios Pantazis     : SARC Basis sets                               
  Anastasios Papadopoulos: AUTO-CI, single reference methods and gradients 
  Taras Petrenko         : pre 6.0 DFT Hessian and TD-DFT gradient, (ASA, deprecated), ECA, 1-Electron XAS/XES, NRVS 
  Peter Pinski           : DLPNO-MP2, DLPNO-MP2 Gradient                 
  Christoph Reimann      : Effective Core Potentials                     
  Marius Retegan         : Local ZFS, SOC                                
  Christoph Riplinger    : Optimizer, TS searches, QM/MM, DLPNO-CCSD(T), (RO)-DLPNO pert. Triples 
  Michael Roemelt        : Original ROCIS implementation                 
  Masaaki Saitow         : Open-shell DLPNO-CCSD energy and density      
  Barbara Sandhoefer     : DKH picture change effects                    
  Kantharuban Sivalingam : CASSCF convergence/infrastructure, NEVPT2 and variants, FIC-MRCI 
  Bernardo de Souza      : ESD, SOC TD-DFT                               
  Georgi L. Stoychev     : AutoAux, RI-MP2 NMR, DLPNO-MP2 response, X2C  
  Van Anh Tran           : RI-MP2 g-tensors                              
  Willem Van den Heuvel  : Paramagnetic NMR                              
  Zikuan Wang            : NOTCH, Electric field optimization            
  Frank Wennmohs         : Technical directorship and infrastructure     
  Hang Xu                : AUTO-CI-Response properties                   
                                                                         
[FACCTs GmbH]                                                            
  Markus Bursch, Miquel Garcia-Rates, Christoph Riplinger, Bernardo de Souza, Georgi L. Stoychev 
                                                                 
  APM, Basis sets (HGBS, AHGBS, def-TZVP (Ac-Lr), def2-XVPD (La-Lu)), CI-OPT, improved COSX, DLPNO-Multilevel,           
  DOCKER, DRACO, updates on ESD, GOAT, IRC, LR-CPCM, MBIS, meta-GGA TD-DFT gradient, ML-optimized integration grids, 
  MM, NACMEs, nearIR, NEB, NEB-TS, NL-DFT gradient (VV10), 2- and 3-layer-ONIOM, interface openCOSMO-RS, QMMM,   
  Crystal-QMMM, SF, symmetry and pop. for TD-DFT, r2SCAN hybrids, SOLVATOR                                   
                                                                         
[Other institutions]                                                     
  V. Asgeirsson          : NEB                                           
  Christoph Bannwarth    : sTDA-DFT, sTD-DFT, PBEh-3c, B97-3c, D3        
  Sebastian Ehlert       : rSCAN, r2SCAN, r2SCAN-3c, D4, dhf basis sets  
  Marvin Friede          : D4 for Fr, Ra, Ac-Lr                          
  Lars Goerigk           : TD-DFT with DH, B97 family of functionals     
  Stefan Grimme          : VdW corrections, initial TS optimization, DFT functionals, gCP, sTDA/sTD-DF 
  Waldemar Hujo          : DFT-NL                                        
  H. Jonsson             : NEB                                           
  Holger Kruse           : gCP                                           
  Marcel Mueller         : wB97X-3c, vDZP basis set                      
  Hagen Neugebauer       : wr2SCAN                                       
  Tobias Risthaus        : range-separated hybrid DFT                    
  Lukas Wittmann         : regularized MP2, r2SCAN double-hybrids, wr2SCAN        
                                                                         
We gratefully acknowledge several colleagues who have allowed us to      
interface, adapt or use parts of their codes:                            
  Ed Valeev, F. Pavosevic, A. Kumar             : LibInt (2-el integral package), F12 methods 
  Garnet Chan, S. Sharma, J. Yang, R. Olivares  : DMRG                   
  Ulf Ekstrom                                   : XCFun DFT Library      
  Mihaly Kallay                                 : mrcc  (arbitrary order and MRCC methods)
  Frank Weinhold                                : gennbo (NPA and NBO analysis)           
  Simon Mueller                                 : openCOSMO-RS                            
  Christopher J. Cramer and Donald G. Truhlar   : smd solvation model                     
  S Lehtola, MJT Oliveira, MAL Marques          : LibXC Library                           
  Liviu Ungur et al                             : ANISO software                          


 Your calculation uses the libint2 library for the computation of 2-el integrals
 For citations please refer to: http://libint.valeyev.net

 Your ORCA version has been built with support for libXC version: 6.2.2
 For citations please refer to: https://libxc.gitlab.io

 This ORCA versions uses:
   CBLAS   interface :  Fast vector & matrix operations
   LAPACKE interface :  Fast linear algebra routines
   SCALAPACK package :  Parallel linear algebra routines
   Shared memory     :  Shared parallel matrices
   BLAS/LAPACK       :  OpenBLAS 0.3.27  USE64BITINT DYNAMIC_ARCH NO_AFFINITY SkylakeX SINGLE_THREADED
        Core in use  :  SkylakeX
   Copyright (c) 2011-2014, The OpenBLAS Project


Your calculation utilizes the atom-pairwise dispersion correction
based on EEQ partial charges (D4)


================================================================================

cite the ECPs for C  [vDZP-ECP] as follows:
   B-Ne (ecp-2-mwb), Al-Ar (ecp-10-mwb), Ga-Kr (ecp-28-mwb), Y-Cd (ecp-28-mwb), In-Xe (ecp-46-mwb):
     A. Bergner, M. Dolg, W. Küchle, H. Stoll, and H. Preuß, Mol. Phys. 80, 1431 (1993)., T. Leininger, A. Berning, A. Nicklass, H. Stoll, H.-J. Werner, and H.-J.Flad, Chem. Phys. 217, 19 (1997).
   Na-Mg, K-Ca, Rb-Sr, Cs-Ba (CRENBL):
     L. Fernandez Pacios and P. A. Christiansen, J. Chem. Phys. 82, 2664 (1985)., M. M. Hurley, L. F. Pacios, P. A. Christiansen, R. B. Ross, and W. C. Ermler, J. Chem. Phys. 84, 6840 (1986)., L. A. LaJohn, P. A. Christiansen, R. B. Ross, T. Atashroo, and W. C. Ermler, J. Chem. Phys. 87, 2812 (1987)., R. B. Ross, J. M. Powers, T. Atashroo, W. C. Ermler, L. A. LaJohn, and P. A. Christiansen, J. Chem. Phys. 93, 6654 (1990). 
   Sc-Zn (ecp-10-mdf):
     M. Dolg, U. Wedig, H. Stoll, and H. Preuss, J. Chem. Phys. 86, 866 (1986). 
   Y-Cd (ecp-28-mwb), Hf-Hg (ecp-60-mwb):
     D. Andrae, U. Häußermann, M. Dolg, H. Stoll, and H. Preuß, Theor. Chim. Acta 77, 123 (1990). 
   La (ecp-46-mwb):
     M. Dolg, H. Stoll, and H. Preuss, J. Chem. Phys. 90, 1730 (1989)., M. Dolg, H. Stoll, and H. Preuss, Theor. Chim. Acta 85, 441 (1993).
   Ce-Lu (SBKJC-ecp):
     T. R. Cundari and W. J. Stevens, J. Chem. Phys. 98, 5555 (1993).
   Tl-Rn (ecp-78-mwb):
     W. Küchle, M. Dolg, H. Stoll, and H. Preuss, Mol. Phys. 74, 1245 (1991).

ECP parameters for C  [vDZP-ECP] have been obtained from:
MM, AH, SG, J. Chem. Phys. 158, 014103 (2023), 10.1063/5.0133026

----- Orbital basis set information -----
Your calculation utilizes the basis: vDZP
   Marcel Mueller, Andreas Hansen, Stefan Grimme 
   J. Chem. Phys. 158, 014103 (2023). DOI: 10.1063/5.0133026

----- AuxJ basis set information -----
Your calculation utilizes the auxiliary basis: def2/J
   F. Weigend, Phys. Chem. Chem. Phys. 8, 1057 (2006).

================================================================================
                                        WARNINGS
                       Please study these warnings very carefully!
================================================================================

WARNING: Frozen-Core approximation turned on, but there are no core electrons.
  ===> : Turning off frozen-core approximation


WARNING: Geometry Optimization
  ===> : Switching off AutoStart
         For restart on a previous wavefunction, please use MOREAD

================================================================================
                                       INPUT FILE
================================================================================
NAME = ./output/alpha_bulnesene/alpha_bulnesene.inp
|  1> ! wB97X-3c OPT FREQ TightSCF
|  2> %pal
|  3>   nprocs 40
|  4> end
|  5> * xyz 0 1
|  6> C     -2.111571    -2.836219     0.297608
|  7> C     -1.901862    -1.408423     0.814668
|  8> C     -3.194324    -0.589466     0.787129
|  9> C     -2.769100     0.856556     0.591044
| 10> C     -1.434803     0.770548    -0.083196
| 11> C     -0.848146     1.815383    -0.721291
| 12> C      0.425540     1.627069    -1.519868
| 13> C      1.620532     1.272099    -0.626708
| 14> C      1.672778    -0.228475    -0.270871
| 15> C      0.520029    -0.660893     0.659633
| 16> C     -0.867926    -0.622351    -0.021070
| 17> C      3.018488    -0.575344     0.357167
| 18> C      3.407110    -0.021997     1.519066
| 19> C      3.942663    -1.554518    -0.320068
| 20> C     -1.482685     3.187494    -0.682852
| 21> H     -1.157216    -3.401655     0.350256
| 22> H     -2.864864    -3.358722     0.924729
| 23> H     -2.465202    -2.827667    -0.755794
| 24> H     -1.572276    -1.468517     1.877895
| 25> H     -3.772892    -0.713149     1.728498
| 26> H     -3.833733    -0.897203    -0.070888
| 27> H     -2.660483     1.371723     1.569869
| 28> H     -3.517621     1.383939    -0.038499
| 29> H      0.270039     0.852453    -2.301762
| 30> H      0.674246     2.562104    -2.066051
| 31> H      1.607425     1.899575     0.291722
| 32> H      2.547309     1.529444    -1.186506
| 33> H      1.575515    -0.805398    -1.216804
| 34> H      0.720735    -1.708743     0.977593
| 35> H      0.506445    -0.035167     1.579749
| 36> H     -0.810452    -1.035442    -1.053131
| 37> H      2.776741     0.687559     2.044672
| 38> H      4.366740    -0.274254     1.960736
| 39> H      4.132518    -2.417513     0.352745
| 40> H      4.907858    -1.057901    -0.555094
| 41> H      3.512274    -1.941335    -1.266805
| 42> H     -2.455927     3.170873    -1.216234
| 43> H     -1.643036     3.500702     0.370436
| 44> H     -0.840862     3.952833    -1.166243
| 45> *
| 46> 
| 47>                          ****END OF INPUT****
================================================================================

                       *****************************
                       * Geometry Optimization Run *
                       *****************************

Geometry optimization settings:
Update method            Update   .... BFGS
Choice of coordinates    CoordSys .... (2022) Redundant Internals
Initial Hessian          InHess   .... Almloef's Model
Max. no of cycles        MaxIter  .... 117

Convergence Tolerances:
Energy Change            TolE     ....  5.0000e-06 Eh
Max. Gradient            TolMAXG  ....  3.0000e-04 Eh/bohr
RMS Gradient             TolRMSG  ....  1.0000e-04 Eh/bohr
Max. Displacement        TolMAXD  ....  4.0000e-03 bohr
RMS Displacement         TolRMSD  ....  2.0000e-03 bohr
Strict Convergence                .... False

------------------------------------------------------------------------------
                        ORCA OPTIMIZATION COORDINATE SETUP
------------------------------------------------------------------------------

The optimization will be done in redundant internal coordinates (2022)
Making redundant internal coordinates   ...  (2022 redundants) done
Evaluating the initial hessian          ...  (Almloef) done
Evaluating the coordinates              ...  done
Calculating the B-matrix                .... done
Calculating the G-matrix                .... done
Diagonalizing the G-matrix              .... done
Small eigenvalue found = 1.554e-02
Small eigenvalue found = 1.822e-02
Small eigenvalue found = 2.916e-02
The first mode is                       ....   93
The number of degrees of freedom        ....  111

    -----------------------------------------------------------------
                    Redundant Internal Coordinates


    -----------------------------------------------------------------
         Definition                    Initial Value    Approx d2E/dq
    -----------------------------------------------------------------
      1. B(C   1,C   0)                  1.5329         0.369550   
      2. B(C   2,C   1)                  1.5303         0.373123   
      3. B(C   3,C   2)                  1.5199         0.387627   
      4. B(C   4,C   3)                  1.4974         0.421032   
      5. B(C   5,C   4)                  1.3576         0.703833   
      6. B(C   6,C   5)                  1.5151         0.394624   
      7. B(C   7,C   6)                  1.5335         0.368748   
      8. B(C   8,C   7)                  1.5431         0.356059   
      9. B(C   9,C   8)                  1.5433         0.355812   
     10. B(C  10,C   9)                  1.5464         0.351771   
     11. B(C  10,C   1)                  1.5445         0.354234   
     12. B(C  10,C   4)                  1.5051         0.409333   
     13. B(C  11,C   8)                  1.5250         0.380472   
     14. B(C  12,C  11)                  1.3443         0.738922   
     15. B(C  13,C  11)                  1.5072         0.406274   
     16. B(C  14,C   5)                  1.5122         0.398792   
     17. B(H  15,C   0)                  1.1105         0.333937   
     18. B(H  16,C   0)                  1.1107         0.333684   
     19. B(H  17,C   0)                  1.1112         0.333109   
     20. B(H  18,C   1)                  1.1148         0.328791   
     21. B(H  19,C   2)                  1.1119         0.332323   
     22. B(H  20,C   2)                  1.1134         0.330395   
     23. B(H  21,C   3)                  1.1114         0.332829   
     24. B(H  22,C   3)                  1.1112         0.333133   
     25. B(H  23,C   6)                  1.1116         0.332677   
     26. B(H  24,C   6)                  1.1111         0.333287   
     27. B(H  25,C   7)                  1.1124         0.331666   
     28. B(H  26,C   7)                  1.1129         0.331062   
     29. B(H  27,C   8)                  1.1122         0.331843   
     30. B(H  28,C   9)                  1.1133         0.330595   
     31. B(H  29,C   9)                  1.1128         0.331163   
     32. B(H  30,C  10)                  1.1131         0.330745   
     33. B(H  31,C  12)                  1.0849         0.366855   
     34. B(H  32,C  12)                  1.0861         0.365307   
     35. B(H  33,C  13)                  1.1106         0.333827   
     36. B(H  34,C  13)                  1.1106         0.333835   
     37. B(H  35,C  13)                  1.1096         0.335105   
     38. B(H  36,C  14)                  1.1099         0.334662   
     39. B(H  37,C  14)                  1.1105         0.333968   
     40. B(H  38,C  14)                  1.1097         0.335008   
     41. A(C   1,C   0,H  16)          109.9063         0.319729   
     42. A(H  15,C   0,H  16)          108.4535         0.284031   
     43. A(H  16,C   0,H  17)          108.8457         0.283921   
     44. A(C   1,C   0,H  15)          109.9182         0.319769   
     45. A(H  15,C   0,H  17)          108.8048         0.283954   
     46. A(C   1,C   0,H  17)          110.8620         0.319639   
     47. A(C   0,C   1,H  18)          108.1763         0.318959   
     48. A(C   2,C   1,C  10)          106.4561         0.359996   
     49. A(C   0,C   1,C  10)          112.5265         0.359406   
     50. A(C   2,C   1,H  18)          107.2003         0.319461   
     51. A(C  10,C   1,H  18)          110.2192         0.316767   
     52. A(C   0,C   1,C   2)          112.1378         0.362605   
     53. A(C   1,C   2,H  20)          110.5464         0.319715   
     54. A(C   3,C   2,H  20)          108.9163         0.321714   
     55. A(C   1,C   2,C   3)          105.9720         0.365578   
     56. A(C   3,C   2,H  19)          111.1392         0.322021   
     57. A(C   1,C   2,H  19)          111.3900         0.320019   
     58. A(H  19,C   2,H  20)          108.8367         0.283380   
     59. A(C   4,C   3,H  21)          109.6382         0.326504   
     60. A(C   2,C   3,C   4)          104.6389         0.373245   
     61. A(C   4,C   3,H  22)          111.8634         0.326553   
     62. A(H  21,C   3,H  22)          110.1691         0.283811   
     63. A(C   2,C   3,H  22)          109.6433         0.322150   
     64. A(C   2,C   3,H  21)          110.7748         0.322101   
     65. A(C   3,C   4,C  10)          111.7259         0.376772   
     66. A(C   3,C   4,C   5)          123.5375         0.414332   
     67. A(C   5,C   4,C  10)          124.6732         0.412263   
     68. A(C   6,C   5,C  14)          118.6154         0.370914   
     69. A(C   4,C   5,C  14)          120.3347         0.410360   
     70. A(C   4,C   5,C   6)          121.0221         0.409597   
     71. A(C   5,C   6,C   7)          112.1400         0.365960   
     72. A(C   7,C   6,H  24)          107.8592         0.319554   
     73. A(C   5,C   6,H  24)          110.0407         0.323120   
     74. A(C   7,C   6,H  23)          110.9399         0.319458   
     75. A(C   5,C   6,H  23)          109.8631         0.323023   
     76. A(H  23,C   6,H  24)          105.7826         0.283811   
     77. A(C   8,C   7,H  26)          108.2204         0.317387   
     78. A(H  25,C   7,H  26)          107.1384         0.283382   
     79. A(C   6,C   7,H  26)          107.6039         0.319205   
     80. A(C   8,C   7,H  25)          111.0111         0.317481   
     81. A(C   6,C   7,H  25)          109.9449         0.319300   
     82. A(C   6,C   7,C   8)          112.6926         0.359588   
     83. A(C  11,C   8,H  27)          108.0248         0.320965   
     84. A(C   9,C   8,H  27)          107.5856         0.317473   
     85. A(C   7,C   8,H  27)          107.7782         0.317509   
     86. A(C   9,C   8,C  11)          110.3095         0.361469   
     87. A(C   7,C   8,C  11)          110.2449         0.361512   
     88. A(C   7,C   8,C   9)          112.7202         0.357410   
     89. A(C  10,C   9,H  29)          109.8160         0.316777   
     90. A(H  28,C   9,H  29)          107.1756         0.283253   
     91. A(C   8,C   9,H  29)          110.4939         0.317367   
     92. A(C   8,C   9,H  28)          107.5341         0.317279   
     93. A(C   8,C   9,C  10)          113.4556         0.356675   
     94. A(C  10,C   9,H  28)          108.1194         0.316689   
     95. A(C   4,C  10,H  30)          108.9419         0.324659   
     96. A(C   1,C  10,H  30)          110.3276         0.317072   
     97. A(C   1,C  10,C   9)          110.4862         0.356405   
     98. A(C   1,C  10,C   4)          103.9581         0.365737   
     99. A(C   9,C  10,H  30)          110.6425         0.316712   
    100. A(C   4,C  10,C   9)          112.2894         0.365300   
    101. A(C  12,C  11,C  13)          118.5890         0.415288   
    102. A(C   8,C  11,C  13)          120.2526         0.369772   
    103. A(C   8,C  11,C  12)          121.1584         0.410478   
    104. A(H  31,C  12,H  32)          117.9211         0.292350   
    105. A(C  11,C  12,H  32)          120.7500         0.364495   
    106. A(C  11,C  12,H  31)          121.3288         0.364759   
    107. A(H  34,C  13,H  35)          108.2051         0.284205   
    108. A(H  33,C  13,H  35)          108.1985         0.284204   
    109. A(C  11,C  13,H  35)          111.8415         0.324957   
    110. A(H  33,C  13,H  34)          109.0924         0.284036   
    111. A(C  11,C  13,H  34)          109.7235         0.324755   
    112. A(C  11,C  13,H  33)          109.7207         0.324753   
    113. A(H  37,C  14,H  38)          107.5878         0.284209   
    114. A(H  36,C  14,H  38)          107.9479         0.284301   
    115. A(C   5,C  14,H  38)          111.8409         0.323951   
    116. A(H  36,C  14,H  37)          109.4754         0.284164   
    117. A(C   5,C  14,H  37)          109.9139         0.323786   
    118. A(C   5,C  14,H  36)          110.0065         0.323896   
    119. D(C  10,C   1,C   0,H  17)    -59.3309         0.010919   
    120. D(C  10,C   1,C   0,H  15)     61.0007         0.010919   
    121. D(C  10,C   1,C   0,H  16)   -179.7057         0.010919   
    122. D(C   2,C   1,C   0,H  17)     60.6572         0.010919   
    123. D(C   2,C   1,C   0,H  16)    -59.7175         0.010919   
    124. D(C   2,C   1,C   0,H  15)   -179.0112         0.010919   
    125. D(C   3,C   2,C   1,H  18)     90.6392         0.011118   
    126. D(C   3,C   2,C   1,C   0)   -150.7752         0.011118   
    127. D(H  19,C   2,C   1,H  18)    -30.3566         0.011118   
    128. D(H  19,C   2,C   1,C  10)   -148.3055         0.011118   
    129. D(H  19,C   2,C   1,C   0)     88.2290         0.011118   
    130. D(C   3,C   2,C   1,C  10)    -27.3097         0.011118   
    131. D(C   4,C   3,C   2,H  20)    -94.1930         0.011952   
    132. D(C   4,C   3,C   2,C   1)     24.7528         0.011952   
    133. D(C   4,C   3,C   2,H  19)    145.9106         0.011952   
    134. D(H  21,C   3,C   2,C   1)    -93.3205         0.011952   
    135. D(H  21,C   3,C   2,H  19)     27.8372         0.011952   
    136. D(H  21,C   3,C   2,H  20)    147.7336         0.011952   
    137. D(C  10,C   4,C   3,C   2)    -13.5098         0.013106   
    138. D(C   5,C   4,C   3,H  22)     45.0820         0.013106   
    139. D(C   5,C   4,C   3,C   2)    163.7138         0.013106   
    140. D(C  10,C   4,C   3,H  21)    105.3353         0.013106   
    141. D(C   5,C   4,C   3,H  21)    -77.4411         0.013106   
    142. D(C  14,C   5,C   4,C  10)   -177.9693         0.034922   
    143. D(C  14,C   5,C   4,C   3)      5.1672         0.034922   
    144. D(C   6,C   5,C   4,C  10)      3.9726         0.034922   
    145. D(C   6,C   5,C   4,C   3)   -172.8909         0.034922   
    146. D(C   7,C   6,C   5,C  14)    114.8492         0.011572   
    147. D(C   7,C   6,C   5,C   4)    -67.0600         0.011572   
    148. D(H  23,C   6,C   5,C  14)   -121.2861         0.011572   
    149. D(H  23,C   6,C   5,C   4)     56.8047         0.011572   
    150. D(H  24,C   6,C   5,C   4)    172.8839         0.011572   
    151. D(H  25,C   7,C   6,H  24)     78.9939         0.010874   
    152. D(H  25,C   7,C   6,H  23)   -165.5854         0.010874   
    153. D(H  25,C   7,C   6,C   5)    -42.3244         0.010874   
    154. D(C   8,C   7,C   6,H  24)   -156.5919         0.010874   
    155. D(C   8,C   7,C   6,H  23)    -41.1712         0.010874   
    156. D(C   8,C   7,C   6,C   5)     82.0898         0.010874   
    157. D(C  11,C   8,C   7,H  26)     49.1165         0.010187   
    158. D(C  11,C   8,C   7,H  25)    -68.1910         0.010187   
    159. D(C  11,C   8,C   7,C   6)    167.9825         0.010187   
    160. D(C   9,C   8,C   7,H  26)    172.8617         0.010187   
    161. D(C   9,C   8,C   7,H  25)     55.5542         0.010187   
    162. D(C   9,C   8,C   7,C   6)    -68.2723         0.010187   
    163. D(H  28,C   9,C   8,H  27)     69.3487         0.010174   
    164. D(H  28,C   9,C   8,C  11)    -48.2591         0.010174   
    165. D(H  28,C   9,C   8,C   7)   -171.9685         0.010174   
    166. D(C  10,C   9,C   8,H  27)    -50.1642         0.010174   
    167. D(C  10,C   9,C   8,C  11)   -167.7721         0.010174   
    168. D(C  10,C   9,C   8,C   7)     68.5185         0.010174   
    169. D(C   1,C  10,C   9,C   8)    164.8827         0.009962   
    170. D(H  30,C  10,C   4,C   3)    114.5178         0.012411   
    171. D(C   9,C  10,C   4,C   5)     60.2539         0.012411   
    172. D(C   1,C  10,C   4,C   5)    179.7022         0.012411   
    173. D(C   1,C  10,C   4,C   3)     -3.1118         0.012411   
    174. D(C   9,C  10,C   1,H  18)     23.2716         0.010091   
    175. D(C   9,C  10,C   1,C   2)    139.2087         0.010091   
    176. D(C   9,C  10,C   4,C   3)   -122.5601         0.012411   
    177. D(C   9,C  10,C   1,C   0)    -97.5684         0.010091   
    178. D(C   4,C  10,C   1,H  18)    -97.3971         0.010091   
    179. D(C   4,C  10,C   1,C   2)     18.5400         0.010091   
    180. D(C   1,C  10,C   9,H  28)     45.7045         0.009962   
    181. D(C   4,C  10,C   1,C   0)    141.7629         0.010091   
    182. D(C   4,C  10,C   9,H  29)     44.6367         0.009962   
    183. D(C   4,C  10,C   9,H  28)    161.2635         0.009962   
    184. D(C   4,C  10,C   9,C   8)    -79.5583         0.009962   
    185. D(C   1,C  10,C   9,H  29)    -70.9223         0.009962   
    186. D(C  13,C  11,C   8,C   9)    117.3392         0.010800   
    187. D(C  13,C  11,C   8,C   7)   -117.5296         0.010800   
    188. D(C  12,C  11,C   8,H  27)   -179.9271         0.010800   
    189. D(C  12,C  11,C   8,C   9)    -62.5906         0.010800   
    190. D(C  12,C  11,C   8,C   7)     62.5407         0.010800   
    191. D(H  32,C  12,C  11,C  13)      0.0330         0.038828   
    192. D(H  32,C  12,C  11,C   8)    179.9640         0.038828   
    193. D(H  31,C  12,C  11,C  13)   -179.9627         0.038828   
    194. D(H  31,C  12,C  11,C   8)     -0.0317         0.038828   
    195. D(H  35,C  13,C  11,C   8)      0.0333         0.012233   
    196. D(H  34,C  13,C  11,C  12)    -59.9521         0.012233   
    197. D(H  34,C  13,C  11,C   8)    120.1164         0.012233   
    198. D(H  33,C  13,C  11,C  12)     59.8920         0.012233   
    199. D(H  33,C  13,C  11,C   8)   -120.0396         0.012233   
    200. D(H  38,C  14,C   5,C   4)    174.6317         0.011806   
    201. D(H  37,C  14,C   5,C   6)   -126.6989         0.011806   
    202. D(H  37,C  14,C   5,C   4)     55.1967         0.011806   
    203. D(H  36,C  14,C   5,C   6)    112.6852         0.011806   
    204. D(H  36,C  14,C   5,C   4)    -65.4191         0.011806   
    -----------------------------------------------------------------

Number of atoms                         .... 39
Number of degrees of freedom            .... 204


         *************************************************************
         *                GEOMETRY OPTIMIZATION CYCLE   1            *
         *************************************************************
---------------------------------
CARTESIAN COORDINATES (ANGSTROEM)
---------------------------------
  C     -2.111571   -2.836219    0.297608
  C     -1.901862   -1.408423    0.814668
  C     -3.194324   -0.589466    0.787129
  C     -2.769100    0.856556    0.591044
  C     -1.434803    0.770548   -0.083196
  C     -0.848146    1.815383   -0.721291
  C      0.425540    1.627069   -1.519868
  C      1.620532    1.272099   -0.626708
  C      1.672778   -0.228475   -0.270871
  C      0.520029   -0.660893    0.659633
  C     -0.867926   -0.622351   -0.021070
  C      3.018488   -0.575344    0.357167
  C      3.407110   -0.021997    1.519066
  C      3.942663   -1.554518   -0.320068
  C     -1.482685    3.187494   -0.682852
  H     -1.157216   -3.401655    0.350256
  H     -2.864864   -3.358722    0.924729
  H     -2.465202   -2.827667   -0.755794
  H     -1.572276   -1.468517    1.877895
  H     -3.772892   -0.713149    1.728498
  H     -3.833733   -0.897203   -0.070888
  H     -2.660483    1.371723    1.569869
  H     -3.517621    1.383939   -0.038499
  H      0.270039    0.852453   -2.301762
  H      0.674246    2.562104   -2.066051
  H      1.607425    1.899575    0.291722
  H      2.547309    1.529444   -1.186506
  H      1.575515   -0.805398   -1.216804
  H      0.720735   -1.708743    0.977593
  H      0.506445   -0.035167    1.579749
  H     -0.810452   -1.035442   -1.053131
  H      2.776741    0.687559    2.044672
  H      4.366740   -0.274254    1.960736
  H      4.132518   -2.417513    0.352745
  H      4.907858   -1.057901   -0.555094
  H      3.512274   -1.941335   -1.266805
  H     -2.455927    3.170873   -1.216234
  H     -1.643036    3.500702    0.370436
  H     -0.840862    3.952833   -1.166243

----------------------------
CARTESIAN COORDINATES (A.U.)
----------------------------
  NO LB      ZA    FRAG     MASS         X           Y           Z
   0 C     4.0000*   0    12.011   -3.990291   -5.359677    0.562398
   1 C     4.0000*   0    12.011   -3.593998   -2.661534    1.539499
   2 C     4.0000*   0    12.011   -6.036398   -1.113929    1.487458
   3 C     4.0000*   0    12.011   -5.232841    1.618656    1.116911
   4 C     4.0000*   0    12.011   -2.711385    1.456125   -0.157218
   5 C     4.0000*   0    12.011   -1.602764    3.430577   -1.363042
   6 C     4.0000*   0    12.011    0.804154    3.074715   -2.872134
   7 C     4.0000*   0    12.011    3.062362    2.403919   -1.184306
   8 C     4.0000*   0    12.011    3.161092   -0.431755   -0.511872
   9 C     4.0000*   0    12.011    0.982712   -1.248907    1.246526
  10 C     4.0000*   0    12.011   -1.640142   -1.176073   -0.039817
  11 C     4.0000*   0    12.011    5.704116   -1.087243    0.674948
  12 C     4.0000*   0    12.011    6.438505   -0.041568    2.870619
  13 C     4.0000*   0    12.011    7.450553   -2.937613   -0.604841
  14 C     4.0000*   0    12.011   -2.801869    6.023491   -1.290403
  15 H     1.0000    0     1.008   -2.186821   -6.428196    0.661888
  16 H     1.0000    0     1.008   -5.413808   -6.347065    1.747485
  17 H     1.0000    0     1.008   -4.658557   -5.343516   -1.428244
  18 H     1.0000    0     1.008   -2.971171   -2.775095    3.548707
  19 H     1.0000    0     1.008   -7.129733   -1.347656    3.266388
  20 H     1.0000    0     1.008   -7.244705   -1.695468   -0.133959
  21 H     1.0000    0     1.008   -5.027584    2.592181    2.966622
  22 H     1.0000    0     1.008   -6.647340    2.615266   -0.072753
  23 H     1.0000    0     1.008    0.510300    1.610903   -4.349700
  24 H     1.0000    0     1.008    1.274140    4.841675   -3.904271
  25 H     1.0000    0     1.008    3.037593    3.589677    0.551275
  26 H     1.0000    0     1.008    4.813716    2.890230   -2.242171
  27 H     1.0000    0     1.008    2.977292   -1.521982   -2.299426
  28 H     1.0000    0     1.008    1.361992   -3.229056    1.847383
  29 H     1.0000    0     1.008    0.957042   -0.066456    2.985293
  30 H     1.0000    0     1.008   -1.531532   -1.956702   -1.990129
  31 H     1.0000    0     1.008    5.247280    1.299298    3.863870
  32 H     1.0000    0     1.008    8.251943   -0.518265    3.705254
  33 H     1.0000    0     1.008    7.809327   -4.568437    0.666591
  34 H     1.0000    0     1.008    9.274508   -1.999143   -1.048976
  35 H     1.0000    0     1.008    6.637236   -3.668591   -2.393915
  36 H     1.0000    0     1.008   -4.641029    5.992082   -2.298349
  37 H     1.0000    0     1.008   -3.104888    6.615368    0.700023
  38 H     1.0000    0     1.008   -1.588999    7.469772   -2.203880
* core charge reduced due to ECP

--------------------------------
INTERNAL COORDINATES (ANGSTROEM)
--------------------------------
 C      0   0   0     0.000000000000     0.00000000     0.00000000
 C      1   0   0     1.532948246320     0.00000000     0.00000000
 C      2   1   0     1.530329044949   112.13778138     0.00000000
 C      3   2   1     1.519948815548   105.97195413   209.22476368
 C      4   3   2     1.497446305506   104.63885754    24.75284387
 C      5   4   3     1.357575722344   123.53748336   163.71376948
 C      6   5   4     1.515078682485   121.02209793   187.10909336
 C      7   6   5     1.533539815774   112.13996388   292.93998038
 C      8   7   6     1.543072242172   112.69259912    82.08981033
 C      9   8   7     1.543260599426   112.72019343   291.72769835
 C      5   4   3     1.505116871610   111.72593845   346.49023948
 C      9   8   7     1.525019749611   110.24485257   167.98248976
 C     12   9   8     1.344332268263   121.15838090    62.54065413
 C     12   9   8     1.507159048716   120.25257947   242.47043855
 C      6   5   4     1.512218864967   120.33473304     5.16721916
 H      1   2   3     1.110532821678   109.91824613   180.98884684
 H      1   2   3     1.110738708022   109.90625866   300.28246961
 H      1   2   3     1.111208258820   110.86201249    60.65723661
 H      2   1   3     1.114760007249   108.17627497   118.00741887
 H      3   2   1     1.111851612975   111.39002968    88.22900691
 H      3   2   1     1.113435720075   110.54635203   327.08956271
 H      4   3   2     1.111437389691   110.77476352   266.67948568
 H      4   3   2     1.111188960069   109.64326234   144.87900930
 H      7   6   5     1.111561395377   109.86309654    56.80468099
 H      7   6   5     1.111063002332   110.04069875   172.88393371
 H      8   7   6     1.112390034532   109.94485089   317.67561738
 H      8   7   6     1.112886273416   107.60390792   201.31463921
 H      9   8   7     1.112245242555   107.77822605    50.29795116
 H     10   9   8     1.113270444473   107.53413410   188.03148113
 H     10   9   8     1.112803219616   110.49388628   304.69217412
 H     11   5   4     1.113147493676   108.94194038   114.51778079
 H     13  12   9     1.084940763606   121.32883225   359.96825089
 H     13  12   9     1.086091948156   120.75003206   179.96395179
 H     14  12   9     1.110622628987   109.72073660   239.96041660
 H     14  12   9     1.110615619101   109.72353775   120.11636760
 H     14  12   9     1.109582367370   111.84152035     0.03325579
 H     15   6   5     1.109942613890   110.00649605   294.58088690
 H     15   6   5     1.110507679131   109.91388419    55.19674548
 H     15   6   5     1.109660942419   111.84094998   174.63166327

---------------------------
INTERNAL COORDINATES (A.U.)
---------------------------
 C      0   0   0     0.000000000000     0.00000000     0.00000000
 C      1   0   0     2.896852363021     0.00000000     0.00000000
 C      2   1   0     2.891902789739   112.13778138     0.00000000
 C      3   2   1     2.872286998963   105.97195413   209.22476368
 C      4   3   2     2.829763417658   104.63885754    24.75284387
 C      5   4   3     2.565446321291   123.53748336   163.71376948
 C      6   5   4     2.863083781239   121.02209793   187.10909336
 C      7   6   5     2.897970267277   112.13996388   292.93998038
 C      8   7   6     2.915983942560   112.69259912    82.08981033
 C      9   8   7     2.916339886186   112.72019343   291.72769835
 C      5   4   3     2.844258686888   111.72593845   346.49023948
 C      9   8   7     2.881869675587   110.24485257   167.98248976
 C     12   9   8     2.540419820011   121.15838090    62.54065413
 C     12   9   8     2.848117842334   120.25257947   242.47043855
 C      6   5   4     2.857679509337   120.33473304     5.16721916
 H      1   2   3     2.098602895703   109.91824613   180.98884684
 H      1   2   3     2.098991964508   109.90625866   300.28246961
 H      1   2   3     2.099879286921   110.86201249    60.65723661
 H      2   1   3     2.106591118748   108.17627497   118.00741887
 H      3   2   1     2.101095050080   111.39002968    88.22900691
 H      3   2   1     2.104088578667   110.54635203   327.08956271
 H      4   3   2     2.100312281516   110.77476352   266.67948568
 H      4   3   2     2.099842817567   109.64326234   144.87900930
 H      7   6   5     2.100546618302   109.86309654    56.80468099
 H      7   6   5     2.099604791939   110.04069875   172.88393371
 H      8   7   6     2.102112519368   109.94485089   317.67561738
 H      8   7   6     2.103050274957   107.60390792   201.31463921
 H      9   8   7     2.101838902186   107.77822605    50.29795116
 H     10   9   8     2.103776253042   107.53413410   188.03148113
 H     10   9   8     2.102893326020   110.49388628   304.69217412
 H     11   5   4     2.103543909709   108.94194038   114.51778079
 H     13  12   9     2.050240914742   121.32883225   359.96825089
 H     13  12   9     2.052416338272   120.75003206   179.96395179
 H     14  12   9     2.098772606922   109.72073660   239.96041660
 H     14  12   9     2.098759360155   109.72353775   120.11636760
 H     14  12   9     2.096806797358   111.84152035     0.03325579
 H     15   6   5     2.097487564621   110.00649605   294.58088690
 H     15   6   5     2.098555383174   109.91388419    55.19674548
 H     15   6   5     2.096955282682   111.84094998   174.63166327

---------------------
BASIS SET INFORMATION
---------------------
There are 2 groups of distinct atoms

 Group   1 Type C   : 6s6p2d contracted to 2s2p1d pattern {42/42/2}
 Group   2 Type H   : 8s2p contracted to 2s1p pattern {53/2}

Atom   0C    basis set group =>   1
Atom   1C    basis set group =>   1
Atom   2C    basis set group =>   1
Atom   3C    basis set group =>   1
Atom   4C    basis set group =>   1
Atom   5C    basis set group =>   1
Atom   6C    basis set group =>   1
Atom   7C    basis set group =>   1
Atom   8C    basis set group =>   1
Atom   9C    basis set group =>   1
Atom  10C    basis set group =>   1
Atom  11C    basis set group =>   1
Atom  12C    basis set group =>   1
Atom  13C    basis set group =>   1
Atom  14C    basis set group =>   1
Atom  15H    basis set group =>   2
Atom  16H    basis set group =>   2
Atom  17H    basis set group =>   2
Atom  18H    basis set group =>   2
Atom  19H    basis set group =>   2
Atom  20H    basis set group =>   2
Atom  21H    basis set group =>   2
Atom  22H    basis set group =>   2
Atom  23H    basis set group =>   2
Atom  24H    basis set group =>   2
Atom  25H    basis set group =>   2
Atom  26H    basis set group =>   2
Atom  27H    basis set group =>   2
Atom  28H    basis set group =>   2
Atom  29H    basis set group =>   2
Atom  30H    basis set group =>   2
Atom  31H    basis set group =>   2
Atom  32H    basis set group =>   2
Atom  33H    basis set group =>   2
Atom  34H    basis set group =>   2
Atom  35H    basis set group =>   2
Atom  36H    basis set group =>   2
Atom  37H    basis set group =>   2
Atom  38H    basis set group =>   2
---------------------------------
AUXILIARY/J BASIS SET INFORMATION
---------------------------------
There are 2 groups of distinct atoms

 Group   1 Type C   : 12s5p4d2f1g contracted to 6s4p3d1f1g pattern {711111/2111/211/2/1}
 Group   2 Type H   : 5s2p1d contracted to 3s1p1d pattern {311/2/1}

Atom   0C    basis set group =>   1
Atom   1C    basis set group =>   1
Atom   2C    basis set group =>   1
Atom   3C    basis set group =>   1
Atom   4C    basis set group =>   1
Atom   5C    basis set group =>   1
Atom   6C    basis set group =>   1
Atom   7C    basis set group =>   1
Atom   8C    basis set group =>   1
Atom   9C    basis set group =>   1
Atom  10C    basis set group =>   1
Atom  11C    basis set group =>   1
Atom  12C    basis set group =>   1
Atom  13C    basis set group =>   1
Atom  14C    basis set group =>   1
Atom  15H    basis set group =>   2
Atom  16H    basis set group =>   2
Atom  17H    basis set group =>   2
Atom  18H    basis set group =>   2
Atom  19H    basis set group =>   2
Atom  20H    basis set group =>   2
Atom  21H    basis set group =>   2
Atom  22H    basis set group =>   2
Atom  23H    basis set group =>   2
Atom  24H    basis set group =>   2
Atom  25H    basis set group =>   2
Atom  26H    basis set group =>   2
Atom  27H    basis set group =>   2
Atom  28H    basis set group =>   2
Atom  29H    basis set group =>   2
Atom  30H    basis set group =>   2
Atom  31H    basis set group =>   2
Atom  32H    basis set group =>   2
Atom  33H    basis set group =>   2
Atom  34H    basis set group =>   2
Atom  35H    basis set group =>   2
Atom  36H    basis set group =>   2
Atom  37H    basis set group =>   2
Atom  38H    basis set group =>   2
-------------------------
ECP PARAMETER INFORMATION
-------------------------

 Group 1, Type C  ECP vDZP-ECP (replacing 2 core electrons, lmax=3)

Atom   0C    ECP group =>   1
Atom   1C    ECP group =>   1
Atom   2C    ECP group =>   1
Atom   3C    ECP group =>   1
Atom   4C    ECP group =>   1
Atom   5C    ECP group =>   1
Atom   6C    ECP group =>   1
Atom   7C    ECP group =>   1
Atom   8C    ECP group =>   1
Atom   9C    ECP group =>   1
Atom  10C    ECP group =>   1
Atom  11C    ECP group =>   1
Atom  12C    ECP group =>   1
Atom  13C    ECP group =>   1
Atom  14C    ECP group =>   1



           ************************************************************
           *        Program running with 40 parallel MPI-processes    *
           *              working on a common directory               *
           ************************************************************
------------------------------------------------------------------------------
                             ORCA STARTUP CALCULATIONS
                           -- RI-GTO INTEGRALS CHOSEN --
------------------------------------------------------------------------------
------------------------------------------------------------------------------
                   ___                                                        
                  /   \      - P O W E R E D   B Y -                         
                 /     \                                                     
                 |  |  |   _    _      __       _____    __    __             
                 |  |  |  | |  | |    /  \     |  _  \  |  |  /  |          
                  \  \/   | |  | |   /    \    | | | |  |  | /  /          
                 / \  \   | |__| |  /  /\  \   | |_| |  |  |/  /          
                |  |  |   |  __  | /  /__\  \  |    /   |      \           
                |  |  |   | |  | | |   __   |  |    \   |  |\   \          
                \     /   | |  | | |  |  |  |  | |\  \  |  | \   \       
                 \___/    |_|  |_| |__|  |__|  |_| \__\ |__|  \__/        
                                                                              
                      - O R C A' S   B I G   F R I E N D -                    
                                      &                                       
                       - I N T E G R A L  F E E D E R -                       
                                                                              
 v1 FN, 2020, v2 2021, v3 2022-2024                                           
------------------------------------------------------------------------------


----------------------
SHARK INTEGRAL PACKAGE
----------------------

Number of atoms                             ...     39
Number of basis functions                   ...    315
Number of shells                            ...    147
Maximum angular momentum                    ...      2
Integral batch strategy                     ... SHARK/LIBINT Hybrid
RI-J (if used) integral strategy            ... SPLIT-RIJ (Revised 2003 algorithm where possible)
Printlevel                                  ...      1
Contraction scheme used                     ... SEGMENTED contraction
Prescreening option                         ... SCHWARTZ
   Thresh                                   ... 2.500e-11
   Tcut                                     ... 2.500e-12
   Tpresel                                  ... 2.500e-12 
Coulomb Range Separation                    ... NOT USED
Exchange Range Separation                   ... Long Range
   Mu parameter                             ... 3.000e-01
   Scaling (regular/separated)              ... 1.670e-01 8.330e-01
Multipole approximations                    ... NOT USED
Finite Nucleus Model                        ... NOT USED
CABS basis                                  ... NOT available
Auxiliary Coulomb fitting basis             ... AVAILABLE
   # of basis functions in Aux-J            ...    999
   # of shells in Aux-J                     ...    345
   Maximum angular momentum in Aux-J        ...      4
Auxiliary J/K fitting basis                 ... NOT available
Auxiliary Correlation fitting basis         ... NOT available
Auxiliary 'external' fitting basis          ... NOT available

Checking pre-screening integrals            ... done (  0.0 sec) Dimension = 147
Check shell pair data                       ... done (  0.0 sec)
Shell pair information
Shell pair cut-off parameter TPreSel        ...   2.5e-12
Total number of shell pairs                 ...     10878
Shell pairs after pre-screening             ...     10746
Total number of primitive shell pairs       ...    102036
Primitive shell pairs kept                  ...     76325
          la=0 lb=0:   3063 shell pairs
          la=1 lb=0:   4152 shell pairs
          la=1 lb=1:   1433 shell pairs
          la=2 lb=0:   1170 shell pairs
          la=2 lb=1:    808 shell pairs
          la=2 lb=2:    120 shell pairs

Calculating one electron integrals          ... done (  0.0 sec)
Calculating ECP integrals                   ... done (  0.2 sec)
Calculating RI/J V-Matrix + Cholesky decomp.... done (  0.1 sec)
Calculating Nuclear repulsion               ... done (  0.0 sec) ENN=    560.443210156214 Eh

Diagonalization of the overlap matrix:
Smallest eigenvalue                        ... 6.996e-04
Time for diagonalization                   ...    0.014 sec
Threshold for overlap eigenvalues          ... 1.000e-07
Number of eigenvalues below threshold      ... 0
Time for construction of square roots      ...    0.008 sec
Total time needed                          ...    0.025 sec

-------------------
DFT GRID GENERATION
-------------------

General Integration Accuracy     IntAcc      ... 4.388
Radial Grid Type                 RadialGrid  ... OptM3 with GC (2021)
Angular Grid (max. ang.)         AngularGrid ... 4 (Lebedev-302)
Angular grid pruning method      GridPruning ... 4 (adaptive)
Weight generation scheme         WeightScheme... mBecke (2022)
Basis function cutoff            BFCut       ... 1.0000e-11
Integration weight cutoff        WCut        ... 1.0000e-14
Partially contracted basis set               ... off
Rotationally invariant grid construction     ... off
Angular grids for H and He will be reduced by one unit

Total number of grid points                  ...   165100
Total number of batches                      ...     2601
Average number of points per batch           ...       63
Average number of grid points per atom       ...     4233

--------------------
COSX GRID GENERATION
--------------------

GRIDX 1
-------
General Integration Accuracy     IntAcc      ... 3.816
Radial Grid Type                 RadialGrid  ... OptM3 with GC (2021)
Angular Grid (max. ang.)         AngularGrid ... 1 (Lebedev-50)
Angular grid pruning method      GridPruning ... 4 (adaptive)
Weight generation scheme         WeightScheme... mBecke (2022)
Basis function cutoff            BFCut       ... 1.0000e-11
Integration weight cutoff        WCut        ... 1.0000e-14
Partially contracted basis set               ... on
Rotationally invariant grid construction     ... off
Angular grids for H and He will be reduced by one unit

Total number of grid points                  ...    21094
Total number of batches                      ...      193
Average number of points per batch           ...      109
Average number of grid points per atom       ...      541
UseSFitting                                  ... on

GRIDX 2
-------
General Integration Accuracy     IntAcc      ... 4.020
Radial Grid Type                 RadialGrid  ... OptM3 with GC (2021)
Angular Grid (max. ang.)         AngularGrid ... 2 (Lebedev-110)
Angular grid pruning method      GridPruning ... 4 (adaptive)
Weight generation scheme         WeightScheme... mBecke (2022)
Basis function cutoff            BFCut       ... 1.0000e-11
Integration weight cutoff        WCut        ... 1.0000e-14
Partially contracted basis set               ... on
Rotationally invariant grid construction     ... off
Angular grids for H and He will be reduced by one unit

Total number of grid points                  ...    43628
Total number of batches                      ...      362
Average number of points per batch           ...      120
Average number of grid points per atom       ...     1119
UseSFitting                                  ... on

GRIDX 3
-------
General Integration Accuracy     IntAcc      ... 4.338
Radial Grid Type                 RadialGrid  ... OptM3 with GC (2021)
Angular Grid (max. ang.)         AngularGrid ... 3 (Lebedev-194)
Angular grid pruning method      GridPruning ... 4 (adaptive)
Weight generation scheme         WeightScheme... mBecke (2022)
Basis function cutoff            BFCut       ... 1.0000e-11
Integration weight cutoff        WCut        ... 1.0000e-14
Partially contracted basis set               ... on
Rotationally invariant grid construction     ... off
Angular grids for H and He will be reduced by one unit

Total number of grid points                  ...    94685
Total number of batches                      ...      758
Average number of points per batch           ...      124
Average number of grid points per atom       ...     2428
UseSFitting                                  ... on
Initializing property integral containers    ... done (  0.0 sec)

SHARK setup successfully completed in   5.3 seconds

Maximum memory used throughout the entire STARTUP-calculation: 51.8 MB


           ************************************************************
           *        Program running with 40 parallel MPI-processes    *
           *              working on a common directory               *
           ************************************************************
-------------------------------------------------------------------------------
                                 ORCA GUESS
                   Start orbitals & Density for SCF / CASSCF
-------------------------------------------------------------------------------

------------
SCF SETTINGS
------------
Hamiltonian:
 Density Functional     Method          .... DFT(GTOs)
 Exchange Functional    Exchange        .... WB97X-V
 Correlation Functional Correlation     .... WB97X-V
 Gradients option       PostSCFGGA      .... off
 Hybrid DFT is turned on
   Fraction HF Exchange ScalHFX         ....  0.167000
   Scaling of DF-GGA-X  ScalDFX         ....  0.000000
   Scaling of DF-GGA-C  ScalDFC         ....  1.000000
   Scaling of DF-LDA-C  ScalLDAC        ....  1.000000
   Perturbative correction              ....  0.000000
 Long-range corrected/Screened/Range-Separated Hybrid DFT is turned on
   Amount of maximum screened exact exchange              ....  0.833000
   Range separation parameter mu (erf(mu*r12)/r12)        ....  0.300000
   NL short-range parameter             ....  6.000000
   NL long-range parameter              ....  0.010000
 RI-approximation to the Coulomb term is turned on
   Number of AuxJ basis functions       .... 999
   RIJ-COSX (HFX calculated with COS-X)).... on


General Settings:
 Integral files         IntName         .... ./output/alpha_bulnesene/alpha_bulnesene
 Hartree-Fock type      HFTyp           .... RHF
 Total Charge           Charge          ....    0
 Multiplicity           Mult            ....    1
 Number of Electrons    NEL             ....   84
 Basis Dimension        Dim             ....  315
 Nuclear Repulsion      ENuc            ....    560.4432101562 Eh

Convergence Acceleration:
 AO-DIIS                CNVDIIS         .... on
   Start iteration      DIISMaxIt       ....    12
   Startup error        DIISStart       ....  0.200000
   # of expansion vecs  DIISMaxEq       ....     5
   Bias factor          DIISBfac        ....   1.050
   Max. coefficient     DIISMaxC        ....  10.000
 MO-DIIS                CNVKDIIS        .... off
 Trust-Rad. Augm. Hess. CNVTRAH         .... auto
   Auto Start mean grad. ratio tolernc. ....  1.125000
   Auto Start start iteration           ....    50
   Auto Start num. interpolation iter.  ....    10
   Max. Number of Micro iterations      ....    24
   Max. Number of Macro iterations      .... Maxiter - #DIIS iter
   Number of Davidson start vectors     ....     2
   Converg. threshold    (grad. norm)   ....   1.000e-05
   Grad. Scal. Fac. for Micro threshold ....   0.100
   Minimum threshold for Micro iter.    ....   1.000e-02
   NR start threshold (gradient norm)   ....   1.000e-04
   Initial trust radius                 ....   0.400
   Minimum AH scaling param. (alpha)    ....   1.000
   Maximum AH scaling param. (alpha)    .... 1000.000
   Quad. conv. algorithm                .... NR
   White noise on init. David. guess    .... on
   Maximum white noise                  ....   0.010
   Pseudo random numbers                .... off
   Inactive MOs                         .... canonical
   Orbital update algorithm             .... Taylor
   Preconditioner                       .... Diag
   Full preconditioner red. dimension   ....   250
 SOSCF                  CNVSOSCF        .... on
   Start iteration      SOSCFMaxIt      ....   150
   Startup grad/error   SOSCFStart      ....  0.003300
   Hessian update       SOSCFHessUp     .... L-BFGS
 Level Shifting         CNVShift        .... on
   Level shift para.    LevelShift      ....    0.2500
   Turn off err/grad.   ShiftErr        ....    0.0010
 Zerner damping         CNVZerner       .... off
 Static damping         CNVDamp         .... on
   Fraction old density DampFac         ....    0.7000
   Max. Damping (<1)    DampMax         ....    0.9800
   Min. Damping (>=0)   DampMin         ....    0.0000
   Turn off err/grad.   DampErr         ....    0.1000

SCF Procedure:
 Maximum # iterations   MaxIter         ....   125
 SCF integral mode      SCFMode         .... Direct
   Integral package                     .... SHARK and LIBINT hybrid scheme
 Reset frequency        DirectResetFreq ....    20
 Integral Threshold     Thresh          ....  2.500e-11 Eh
 Primitive CutOff       TCut            ....  2.500e-12 Eh

Convergence Tolerance:
 Convergence Check Mode ConvCheckMode   .... Total+1el-Energy
 Convergence forced     ConvForced      .... 0
 Energy Change          TolE            ....  1.000e-08 Eh
 1-El. energy change                    ....  1.000e-05 Eh
 Orbital Gradient       TolG            ....  1.000e-05
 Orbital Rotation angle TolX            ....  1.000e-05
 DIIS Error             TolErr          ....  5.000e-07

------------------------------
INITIAL GUESS: MODEL POTENTIAL
------------------------------
Loading Hartree-Fock densities                     ... done
Atomic calculation to generate a density for atom 0 (C  with ECP)
  Multiplicity assumed   :    1
  Atomic configuration   : 1s2 2s2 2p2 
  Number of open shells  : 1
  Command: /home/aspe232/Project/Software/ORCA/6_0_1/build/orca ./output/alpha_bulnesene/alpha_bulnesene_atom6.inp "" > ./output/alpha_bulnesene/alpha_bulnesene_atom6.out
Returned from the atomic calculation with res=0
Calculating cut-offs                               ... done
Initializing the effective Hamiltonian             ... done
Setting up the integral package (SHARK)            ... done
Starting the Coulomb interaction                   ... done (   0.1 sec)
Making the grid                                    ... done (   1.1 sec)
Mapping shells                                     ... done
Starting the XC term evaluation                    ... done (   0.1 sec)
  promolecular density results
     # of electrons  =    113.972691787
     EX              =    -55.390886274
     EC              =     -4.559538491
     EX+EC           =    -59.950424766
Transforming the Hamiltonian                       ... done (   0.0 sec)
Diagonalizing the Hamiltonian                      ... done (   0.0 sec)
Back transforming the eigenvectors                 ... done (   0.0 sec)
Now organizing SCF variables                       ... done
                      ------------------
                      INITIAL GUESS DONE (   1.9 sec)
                      ------------------
             **** ENERGY FILE WAS UPDATED (./output/alpha_bulnesene/alpha_bulnesene.en.tmp) ****
Finished Guess after   2.9 sec
Maximum memory used throughout the entire GUESS-calculation: 34.4 MB


           ************************************************************
           *        Program running with 40 parallel MPI-processes    *
           *              working on a common directory               *
           ************************************************************

-------------------------------------------------------------------------------------------
                                      ORCA LEAN-SCF
                              memory conserving SCF solver
-------------------------------------------------------------------------------------------

----------------------------------------D-I-I-S--------------------------------------------
Iteration    Energy (Eh)           Delta-E    RMSDP     MaxDP     DIISErr   Damp  Time(sec)
-------------------------------------------------------------------------------------------
               ***  Starting incremental Fock matrix formation  ***
    1    -99.1856039088302168     0.00e+00  3.65e-03  7.94e-02  1.81e-01  0.700   8.5
    2    -99.4593366316961465    -2.74e-01  2.66e-03  5.72e-02  1.09e-01  0.700   6.1
                               ***Turning on AO-DIIS***
    3    -99.6029947047871929    -1.44e-01  1.39e-03  2.93e-02  5.78e-02  0.700   6.2
    4    -99.6875219319620101    -8.45e-02  2.99e-03  6.25e-02  3.68e-02  0.000   5.6
    5    -99.8645396310688511    -1.77e-01  2.12e-04  5.00e-03  5.20e-03  0.000   5.9
                              *** Initializing SOSCF ***
---------------------------------------S-O-S-C-F--------------------------------------
Iteration    Energy (Eh)           Delta-E    RMSDP     MaxDP     MaxGrad    Time(sec)
--------------------------------------------------------------------------------------
    6    -99.8650092987937796    -4.70e-04  1.00e-04  2.18e-03  1.26e-03     5.7
               *** Restarting incremental Fock matrix formation ***
    7    -99.8649630902815488     4.62e-05  5.75e-05  1.50e-03  2.58e-04     8.2
    8    -99.8649760430048445    -1.30e-05  3.35e-05  8.62e-04  2.55e-04     7.2
    9    -99.8649805617336597    -4.52e-06  9.57e-06  1.73e-04  5.74e-05     7.0
   10    -99.8649808371857262    -2.75e-07  2.76e-06  6.13e-05  1.46e-05     6.7
   11    -99.8649808647793407    -2.76e-08  1.01e-06  2.17e-05  1.07e-05     6.2
   12    -99.8649808786246922    -1.38e-08  2.57e-07  7.55e-06  1.60e-06     6.1
                  *** Gradient check signals convergence ***

               *****************************************************
               *                     SUCCESS                       *
               *           SCF CONVERGED AFTER  12 CYCLES          *
               *****************************************************

Recomputing exchange energy using gridx3       ... done (    9.663 sec)
Old exchange energy                            :    -15.891761598 Eh
New exchange energy                            :    -15.891764614 Eh
Exchange energy change after final integration :     -0.000003016 Eh
Total energy after final integration           :    -99.864983895 Eh
             **** ENERGY FILE WAS UPDATED (./output/alpha_bulnesene/alpha_bulnesene.en.tmp) ****

----------------
TOTAL SCF ENERGY
----------------

Total Energy       :        -99.86498389471387 Eh           -2717.46436 eV

Components:
Nuclear Repulsion  :        560.44321015621358 Eh           15250.43507 eV
Electronic Energy  :       -660.30819103483827 Eh          -17967.89935 eV
One Electron Energy:      -1259.83159517731133 Eh          -34281.76056 eV
Two Electron Energy:        599.52340414247305 Eh           16313.86121 eV

Virial components:
Potential Energy   :       -177.88904098428154 Eh           -4840.60690 eV
Kinetic Energy     :         78.02405708956766 Eh            2123.14253 eV
Virial Ratio       :          2.27992554629752

DFT components:
N(Alpha)           :       41.999952390942 electrons
N(Beta)            :       41.999952390942 electrons
N(Total)           :       83.999904781884 electrons
E(X)               :      -16.101858002139 Eh       
E(C)               :       -3.137308373235 Eh       
E(XC)              :      -19.239166375373 Eh       

---------------
SCF CONVERGENCE
---------------

  Last Energy change         ...    1.3845e-08  Tolerance :   1.0000e-08
  Last MAX-Density change    ...    7.5534e-06  Tolerance :   1.0000e-07
  Last RMS-Density change    ...    2.5696e-07  Tolerance :   5.0000e-09
  Last DIIS Error            ...    1.2588e-03  Tolerance :   5.0000e-07
  Last Orbital Gradient      ...    1.5997e-06  Tolerance :   1.0000e-05
  Last Orbital Rotation      ...    4.2660e-06  Tolerance :   1.0000e-05


----------------
ORBITAL ENERGIES
----------------

  NO   OCC          E(Eh)            E(eV) 
   0   2.0000      -0.998873       -27.1807 
   1   2.0000      -0.962617       -26.1941 
   2   2.0000      -0.933861       -25.4116 
   3   2.0000      -0.898985       -24.4626 
   4   2.0000      -0.871025       -23.7018 
   5   2.0000      -0.862269       -23.4635 
   6   2.0000      -0.823381       -22.4053 
   7   2.0000      -0.806446       -21.9445 
   8   2.0000      -0.782087       -21.2817 
   9   2.0000      -0.751579       -20.4515 
  10   2.0000      -0.730789       -19.8858 
  11   2.0000      -0.695145       -18.9159 
  12   2.0000      -0.679449       -18.4887 
  13   2.0000      -0.634634       -17.2693 
  14   2.0000      -0.613246       -16.6873 
  15   2.0000      -0.594377       -16.1738 
  16   2.0000      -0.587876       -15.9969 
  17   2.0000      -0.567549       -15.4438 
  18   2.0000      -0.562596       -15.3090 
  19   2.0000      -0.545356       -14.8399 
  20   2.0000      -0.535045       -14.5593 
  21   2.0000      -0.530544       -14.4368 
  22   2.0000      -0.525763       -14.3067 
  23   2.0000      -0.517084       -14.0706 
  24   2.0000      -0.513356       -13.9691 
  25   2.0000      -0.499264       -13.5857 
  26   2.0000      -0.498396       -13.5620 
  27   2.0000      -0.489358       -13.3161 
  28   2.0000      -0.477010       -12.9801 
  29   2.0000      -0.468471       -12.7478 
  30   2.0000      -0.465228       -12.6595 
  31   2.0000      -0.462749       -12.5920 
  32   2.0000      -0.452346       -12.3090 
  33   2.0000      -0.434096       -11.8124 
  34   2.0000      -0.424737       -11.5577 
  35   2.0000      -0.422435       -11.4950 
  36   2.0000      -0.420711       -11.4481 
  37   2.0000      -0.416136       -11.3236 
  38   2.0000      -0.401358       -10.9215 
  39   2.0000      -0.390655       -10.6303 
  40   2.0000      -0.334677        -9.1070 
  41   2.0000      -0.307452        -8.3662 
  42   0.0000       0.081096         2.2067 
  43   0.0000       0.085768         2.3339 
  44   0.0000       0.087085         2.3697 
  45   0.0000       0.091545         2.4911 
  46   0.0000       0.094430         2.5696 
  47   0.0000       0.098902         2.6913 
  48   0.0000       0.113608         3.0914 
  49   0.0000       0.116354         3.1661 
  50   0.0000       0.123813         3.3691 
  51   0.0000       0.128759         3.5037 
  52   0.0000       0.137335         3.7371 
*Only the first 10 virtual orbitals were printed.

                    ********************************
                    * MULLIKEN POPULATION ANALYSIS *
                    ********************************

-----------------------
MULLIKEN ATOMIC CHARGES
-----------------------
   0 C :   -0.069071
   1 C :   -0.088000
   2 C :   -0.046014
   3 C :   -0.076021
   4 C :    0.008906
   5 C :   -0.082535
   6 C :   -0.066702
   7 C :   -0.029999
   8 C :   -0.084543
   9 C :   -0.009437
  10 C :   -0.092877
  11 C :   -0.094966
  12 C :   -0.024363
  13 C :   -0.088398
  14 C :   -0.086852
  15 H :    0.029770
  16 H :    0.038596
  17 H :    0.033577
  18 H :    0.035946
  19 H :    0.042664
  20 H :    0.031353
  21 H :    0.044051
  22 H :    0.047221
  23 H :    0.044332
  24 H :    0.032710
  25 H :    0.042302
  26 H :    0.042839
  27 H :    0.029187
  28 H :    0.040092
  29 H :    0.043043
  30 H :    0.044945
  31 H :    0.016327
  32 H :    0.020556
  33 H :    0.054509
  34 H :    0.055064
  35 H :    0.034210
  36 H :    0.048999
  37 H :    0.046620
  38 H :    0.031963
Sum of atomic charges:    0.0000000

--------------------------------
MULLIKEN REDUCED ORBITAL CHARGES
--------------------------------
  0 C s       :     0.963309  s :     0.963309
      pz      :     1.025596  p :     3.030828
      px      :     1.036510
      py      :     0.968722
      dz2     :     0.018632  d :     0.074934
      dxz     :     0.011158
      dyz     :     0.012011
      dx2y2   :     0.010660
      dxy     :     0.022473

  1 C s       :     1.050871  s :     1.050871
      pz      :     1.022790  p :     2.914191
      px      :     0.951936
      py      :     0.939464
      dz2     :     0.028058  d :     0.122938
      dxz     :     0.021124
      dyz     :     0.017443
      dx2y2   :     0.027069
      dxy     :     0.029244

  2 C s       :     0.995213  s :     0.995213
      pz      :     1.042497  p :     2.952314
      px      :     0.975818
      py      :     0.933999
      dz2     :     0.013397  d :     0.098487
      dxz     :     0.026657
      dyz     :     0.014451
      dx2y2   :     0.021967
      dxy     :     0.022015

  3 C s       :     0.987989  s :     0.987989
      pz      :     1.023572  p :     2.987540
      px      :     0.984786
      py      :     0.979182
      dz2     :     0.016537  d :     0.100493
      dxz     :     0.019212
      dyz     :     0.021307
      dx2y2   :     0.022063
      dxy     :     0.021374

  4 C s       :     1.035811  s :     1.035811
      pz      :     0.967143  p :     2.838952
      px      :     0.929000
      py      :     0.942809
      dz2     :     0.017013  d :     0.116331
      dxz     :     0.015139
      dyz     :     0.020650
      dx2y2   :     0.032674
      dxy     :     0.030855

  5 C s       :     1.084176  s :     1.084176
      pz      :     0.988680  p :     2.883555
      px      :     0.940840
      py      :     0.954035
      dz2     :     0.017961  d :     0.114804
      dxz     :     0.015374
      dyz     :     0.022272
      dx2y2   :     0.030163
      dxy     :     0.029033

  6 C s       :     0.990896  s :     0.990896
      pz      :     0.996668  p :     2.975896
      px      :     0.926631
      py      :     1.052597
      dz2     :     0.014020  d :     0.099909
      dxz     :     0.022488
      dyz     :     0.025305
      dx2y2   :     0.024011
      dxy     :     0.014086

  7 C s       :     1.004219  s :     1.004219
      pz      :     1.011802  p :     2.926025
      px      :     0.980494
      py      :     0.933729
      dz2     :     0.013231  d :     0.099755
      dxz     :     0.020799
      dyz     :     0.025144
      dx2y2   :     0.024868
      dxy     :     0.015713

  8 C s       :     1.034239  s :     1.034239
      pz      :     1.010884  p :     2.928050
      px      :     0.949021
      py      :     0.968145
      dz2     :     0.020682  d :     0.122254
      dxz     :     0.022577
      dyz     :     0.027695
      dx2y2   :     0.029192
      dxy     :     0.022108

  9 C s       :     0.999940  s :     0.999940
      pz      :     0.985347  p :     2.910148
      px      :     0.894507
      py      :     1.030293
      dz2     :     0.017607  d :     0.099349
      dxz     :     0.021469
      dyz     :     0.019137
      dx2y2   :     0.026667
      dxy     :     0.014469

 10 C s       :     1.027592  s :     1.027592
      pz      :     1.029973  p :     2.944695
      px      :     0.937017
      py      :     0.977705
      dz2     :     0.025284  d :     0.120591
      dxz     :     0.020055
      dyz     :     0.022140
      dx2y2   :     0.027238
      dxy     :     0.025874

 11 C s       :     1.096464  s :     1.096464
      pz      :     0.999140  p :     2.878875
      px      :     0.933223
      py      :     0.946512
      dz2     :     0.028397  d :     0.119627
      dxz     :     0.029250
      dyz     :     0.020397
      dx2y2   :     0.021323
      dxy     :     0.020261

 12 C s       :     0.975312  s :     0.975312
      pz      :     0.987629  p :     2.985357
      px      :     0.991593
      py      :     1.006135
      dz2     :     0.013551  d :     0.063695
      dxz     :     0.019294
      dyz     :     0.012430
      dx2y2   :     0.009010
      dxy     :     0.009409

 13 C s       :     0.956132  s :     0.956132
      pz      :     1.029818  p :     3.059334
      px      :     1.018260
      py      :     1.011255
      dz2     :     0.012855  d :     0.072932
      dxz     :     0.012551
      dyz     :     0.018402
      dx2y2   :     0.014392
      dxy     :     0.014732

 14 C s       :     0.954485  s :     0.954485
      pz      :     1.042501  p :     3.057714
      px      :     1.030146
      py      :     0.985068
      dz2     :     0.012903  d :     0.074653
      dxz     :     0.011804
      dyz     :     0.016374
      dx2y2   :     0.016383
      dxy     :     0.017190

 15 H s       :     0.926706  s :     0.926706
      pz      :     0.009939  p :     0.043524
      px      :     0.019577
      py      :     0.014007

 16 H s       :     0.918275  s :     0.918275
      pz      :     0.013820  p :     0.043129
      px      :     0.016033
      py      :     0.013277

 17 H s       :     0.923429  s :     0.923429
      pz      :     0.022194  p :     0.042994
      px      :     0.011567
      py      :     0.009232

 18 H s       :     0.923868  s :     0.923868
      pz      :     0.021172  p :     0.040187
      px      :     0.010063
      py      :     0.008952

 19 H s       :     0.914817  s :     0.914817
      pz      :     0.019030  p :     0.042519
      px      :     0.013324
      py      :     0.010165

 20 H s       :     0.926782  s :     0.926782
      pz      :     0.017507  p :     0.041866
      px      :     0.013586
      py      :     0.010773

 21 H s       :     0.913034  s :     0.913034
      pz      :     0.020349  p :     0.042915
      px      :     0.010233
      py      :     0.012333

 22 H s       :     0.909255  s :     0.909255
      pz      :     0.014066  p :     0.043524
      px      :     0.016395
      py      :     0.013063

 23 H s       :     0.912490  s :     0.912490
      pz      :     0.016052  p :     0.043177
      px      :     0.010509
      py      :     0.016616

 24 H s       :     0.924263  s :     0.924263
      pz      :     0.012854  p :     0.043027
      px      :     0.010851
      py      :     0.019322

 25 H s       :     0.916167  s :     0.916167
      pz      :     0.019190  p :     0.041532
      px      :     0.008879
      py      :     0.013463

 26 H s       :     0.915535  s :     0.915535
      pz      :     0.012489  p :     0.041627
      px      :     0.019080
      py      :     0.010057

 27 H s       :     0.930325  s :     0.930325
      pz      :     0.019271  p :     0.040489
      px      :     0.008833
      py      :     0.012385

 28 H s       :     0.918345  s :     0.918345
      pz      :     0.010496  p :     0.041564
      px      :     0.009671
      py      :     0.021396

 29 H s       :     0.915930  s :     0.915930
      pz      :     0.018407  p :     0.041027
      px      :     0.008541
      py      :     0.014079

 30 H s       :     0.913948  s :     0.913948
      pz      :     0.021266  p :     0.041107
      px      :     0.008731
      py      :     0.011110

 31 H s       :     0.931979  s :     0.931979
      pz      :     0.015019  p :     0.051694
      px      :     0.016673
      py      :     0.020002

 32 H s       :     0.929140  s :     0.929140
      pz      :     0.013568  p :     0.050304
      px      :     0.023104
      py      :     0.013633

 33 H s       :     0.901383  s :     0.901383
      pz      :     0.014834  p :     0.044107
      px      :     0.010787
      py      :     0.018486

 34 H s       :     0.900821  s :     0.900821
      pz      :     0.010751  p :     0.044116
      px      :     0.020721
      py      :     0.012644

 35 H s       :     0.921555  s :     0.921555
      pz      :     0.020303  p :     0.044235
      px      :     0.011832
      py      :     0.012100

 36 H s       :     0.906284  s :     0.906284
      pz      :     0.013514  p :     0.044717
      px      :     0.020865
      py      :     0.010338

 37 H s       :     0.909409  s :     0.909409
      pz      :     0.022225  p :     0.043972
      px      :     0.010623
      py      :     0.011124

 38 H s       :     0.923785  s :     0.923785
      pz      :     0.013078  p :     0.044252
      px      :     0.014330
      py      :     0.016843



                     *******************************
                     * LOEWDIN POPULATION ANALYSIS *
                     *******************************

----------------------
LOEWDIN ATOMIC CHARGES
----------------------
   0 C :   -0.119461
   1 C :   -0.068521
   2 C :   -0.079022
   3 C :   -0.083783
   4 C :   -0.035494
   5 C :   -0.044687
   6 C :   -0.087580
   7 C :   -0.073690
   8 C :   -0.069167
   9 C :   -0.066169
  10 C :   -0.056605
  11 C :   -0.036175
  12 C :   -0.084681
  13 C :   -0.117649
  14 C :   -0.119398
  15 H :    0.044315
  16 H :    0.047380
  17 H :    0.044369
  18 H :    0.049782
  19 H :    0.046532
  20 H :    0.046555
  21 H :    0.048208
  22 H :    0.052609
  23 H :    0.049587
  24 H :    0.049805
  25 H :    0.049323
  26 H :    0.049899
  27 H :    0.046396
[...]
 81:   1508.78   0.001157    5.85  0.000239  ( 0.006289 -0.010125 -0.009860)
 82:   1513.24   0.002614   13.21  0.000539  (-0.013232 -0.012981  0.013985)
 83:   1516.42   0.002076   10.49  0.000427  (-0.016188 -0.012826  0.000763)
 84:   1516.99   0.002902   14.67  0.000597  ( 0.003647  0.006321  0.023319)
 85:   1521.35   0.002316   11.71  0.000475  (-0.016508 -0.001518 -0.014155)
 86:   1523.46   0.001032    5.21  0.000211  ( 0.014365  0.001318  0.001808)
 87:   1524.95   0.000660    3.34  0.000135  (-0.005798 -0.001126  0.010011)
 88:   1525.73   0.000256    1.30  0.000052  ( 0.006196  0.002951 -0.002312)
 89:   1529.25   0.003062   15.47  0.000625  (-0.009072  0.005765 -0.022568)
 90:   1531.94   0.001768    8.93  0.000360  (-0.013889  0.005000 -0.011926)
 91:   1774.12   0.006546   33.08  0.001151  ( 0.021170  0.018602  0.018899)
 92:   1820.33   0.000301    1.52  0.000052  ( 0.001543 -0.006472 -0.002701)
 93:   3044.19   0.001758    8.89  0.000180  ( 0.002102 -0.007003 -0.011261)
 94:   3056.46   0.004190   21.18  0.000428  (-0.001673 -0.010681 -0.017634)
 95:   3068.43   0.003816   19.28  0.000388  ( 0.002629  0.004034  0.019101)
 96:   3079.32   0.005925   29.94  0.000600  (-0.002149 -0.001311  0.024374)
 97:   3088.23   0.003927   19.85  0.000397  (-0.010051  0.007443  0.015506)
 98:   3090.14   0.005791   29.26  0.000585  ( 0.001392  0.011211 -0.021382)
 99:   3090.69   0.010552   53.33  0.001065  ( 0.005866 -0.032101 -0.000728)
100:   3092.26   0.003408   17.23  0.000344  ( 0.000123 -0.016046  0.009300)
101:   3096.66   0.014919   75.40  0.001503  ( 0.029470  0.019696  0.015717)
102:   3096.97   0.000211    1.07  0.000021  (-0.000319  0.004581  0.000404)
103:   3100.20   0.005621   28.40  0.000566  ( 0.004803 -0.022742 -0.005051)
104:   3143.88   0.004407   22.27  0.000437  (-0.002668  0.020057  0.005297)
105:   3144.15   0.006011   30.38  0.000597  ( 0.003382  0.024069 -0.002411)
106:   3153.60   0.006138   31.02  0.000607  ( 0.013771 -0.002180 -0.020322)
107:   3158.78   0.002651   13.40  0.000262  ( 0.010302  0.002463  0.012237)
108:   3164.39   0.005985   30.25  0.000590  ( 0.017654  0.001574 -0.016616)
109:   3176.51   0.002968   15.00  0.000292  (-0.009809  0.009490 -0.010264)
110:   3178.29   0.001904    9.62  0.000187  (-0.006311 -0.007657  0.009408)
111:   3180.33   0.006370   32.19  0.000625  ( 0.005602 -0.010385  0.022040)
112:   3183.77   0.004191   21.18  0.000411  (-0.019479 -0.001550  0.005382)
113:   3207.85   0.002371   11.98  0.000231  ( 0.013651 -0.002294  0.006248)
114:   3214.06   0.002292   11.58  0.000223  (-0.011830 -0.003279 -0.008477)
115:   3220.25   0.003042   15.38  0.000295  ( 0.015238 -0.002309 -0.007571)
116:   3307.01   0.001393    7.04  0.000131  ( 0.008463 -0.007594  0.001470)

* The epsilon (eps) is given for a Dirac delta lineshape.
** The dipole moment derivative (T) already includes vibrational overlap.

The first frequency considered to be a vibration is 6
The total number of vibrations considered is 111


--------------------------
THERMOCHEMISTRY AT 298.15K
--------------------------

Temperature         ...   298.15 K
Pressure            ...     1.00 atm
Total Mass          ...   204.36 AMU
Quasi RRHO          ...     True
Cut-Off Frequency   ...     1.00 cm^-1

Throughout the following assumptions are being made:
  (1) The electronic state is orbitally nondegenerate
  (2) There are no thermally accessible electronically excited states
  (3) Hindered rotations indicated by low frequency modes are not
      treated as such but are treated as vibrations and this may
      cause some error
  (4) All equations used are the standard statistical mechanics
      equations for an ideal gas
  (5) All vibrations are strictly harmonic

freq.      45.91  E(vib)   ...       0.53 
freq.      50.27  E(vib)   ...       0.52 
freq.      99.09  E(vib)   ...       0.46 
freq.     131.59  E(vib)   ...       0.42 
freq.     135.18  E(vib)   ...       0.42 
freq.     166.14  E(vib)   ...       0.39 
freq.     174.95  E(vib)   ...       0.38 
freq.     177.29  E(vib)   ...       0.37 
freq.     201.33  E(vib)   ...       0.35 
freq.     217.92  E(vib)   ...       0.33 
freq.     241.23  E(vib)   ...       0.31 
freq.     269.35  E(vib)   ...       0.29 
freq.     294.12  E(vib)   ...       0.27 
freq.     307.61  E(vib)   ...       0.26 
freq.     337.53  E(vib)   ...       0.24 
freq.     368.92  E(vib)   ...       0.21 
freq.     388.05  E(vib)   ...       0.20 
freq.     441.60  E(vib)   ...       0.17 
freq.     466.77  E(vib)   ...       0.16 
freq.     493.25  E(vib)   ...       0.14 
freq.     509.77  E(vib)   ...       0.14 
freq.     530.00  E(vib)   ...       0.13 
freq.     547.16  E(vib)   ...       0.12 
freq.     580.35  E(vib)   ...       0.11 
freq.     597.61  E(vib)   ...       0.10 
freq.     670.93  E(vib)   ...       0.08 
freq.     730.23  E(vib)   ...       0.06 
freq.     748.29  E(vib)   ...       0.06 
freq.     837.75  E(vib)   ...       0.04 
freq.     854.00  E(vib)   ...       0.04 
freq.     876.97  E(vib)   ...       0.04 
freq.     902.84  E(vib)   ...       0.03 
freq.     917.06  E(vib)   ...       0.03 
freq.     937.53  E(vib)   ...       0.03 
freq.     957.50  E(vib)   ...       0.03 
freq.     971.99  E(vib)   ...       0.03 
freq.     977.22  E(vib)   ...       0.03 
freq.     990.85  E(vib)   ...       0.02 
freq.    1013.55  E(vib)   ...       0.02 
freq.    1032.10  E(vib)   ...       0.02 
freq.    1035.90  E(vib)   ...       0.02 
freq.    1057.45  E(vib)   ...       0.02 
freq.    1075.54  E(vib)   ...       0.02 
freq.    1089.27  E(vib)   ...       0.02 
freq.    1097.84  E(vib)   ...       0.02 
freq.    1103.85  E(vib)   ...       0.02 
freq.    1118.05  E(vib)   ...       0.01 
freq.    1124.27  E(vib)   ...       0.01 
freq.    1143.55  E(vib)   ...       0.01 
freq.    1157.77  E(vib)   ...       0.01 
freq.    1199.32  E(vib)   ...       0.01 
freq.    1208.32  E(vib)   ...       0.01 
freq.    1212.99  E(vib)   ...       0.01 
freq.    1233.28  E(vib)   ...       0.01 
freq.    1253.73  E(vib)   ...       0.01 
freq.    1266.70  E(vib)   ...       0.01 
freq.    1292.19  E(vib)   ...       0.01 
freq.    1307.81  E(vib)   ...       0.01 
freq.    1310.42  E(vib)   ...       0.01 
freq.    1325.32  E(vib)   ...       0.01 
freq.    1352.12  E(vib)   ...       0.01 
freq.    1360.19  E(vib)   ...       0.01 
freq.    1367.49  E(vib)   ...       0.01 
freq.    1380.44  E(vib)   ...       0.01 
freq.    1384.32  E(vib)   ...       0.00 
freq.    1403.09  E(vib)   ...       0.00 
freq.    1422.09  E(vib)   ...       0.00 
freq.    1423.65  E(vib)   ...       0.00 
freq.    1432.97  E(vib)   ...       0.00 
freq.    1442.99  E(vib)   ...       0.00 
freq.    1448.76  E(vib)   ...       0.00 
freq.    1451.81  E(vib)   ...       0.00 
freq.    1461.29  E(vib)   ...       0.00 
freq.    1479.31  E(vib)   ...       0.00 
freq.    1503.03  E(vib)   ...       0.00 
freq.    1508.78  E(vib)   ...       0.00 
freq.    1513.24  E(vib)   ...       0.00 
freq.    1516.42  E(vib)   ...       0.00 
freq.    1516.99  E(vib)   ...       0.00 
freq.    1521.35  E(vib)   ...       0.00 
freq.    1523.46  E(vib)   ...       0.00 
freq.    1524.95  E(vib)   ...       0.00 
freq.    1525.73  E(vib)   ...       0.00 
freq.    1529.25  E(vib)   ...       0.00 
freq.    1531.94  E(vib)   ...       0.00 
freq.    1774.12  E(vib)   ...       0.00 
freq.    1820.33  E(vib)   ...       0.00 
freq.    3044.19  E(vib)   ...       0.00 
freq.    3056.46  E(vib)   ...       0.00 
freq.    3068.43  E(vib)   ...       0.00 
freq.    3079.32  E(vib)   ...       0.00 
freq.    3088.23  E(vib)   ...       0.00 
freq.    3090.14  E(vib)   ...       0.00 
freq.    3090.69  E(vib)   ...       0.00 
freq.    3092.26  E(vib)   ...       0.00 
freq.    3096.66  E(vib)   ...       0.00 
freq.    3096.97  E(vib)   ...       0.00 
freq.    3100.20  E(vib)   ...       0.00 
freq.    3143.88  E(vib)   ...       0.00 
freq.    3144.15  E(vib)   ...       0.00 
freq.    3153.60  E(vib)   ...       0.00 
freq.    3158.78  E(vib)   ...       0.00 
freq.    3164.39  E(vib)   ...       0.00 
freq.    3176.51  E(vib)   ...       0.00 
freq.    3178.29  E(vib)   ...       0.00 
freq.    3180.33  E(vib)   ...       0.00 
freq.    3183.77  E(vib)   ...       0.00 
freq.    3207.85  E(vib)   ...       0.00 
freq.    3214.06  E(vib)   ...       0.00 
freq.    3220.25  E(vib)   ...       0.00 
freq.    3307.01  E(vib)   ...       0.00 

------------
INNER ENERGY
------------

The inner energy is: U= E(el) + E(ZPE) + E(vib) + E(rot) + E(trans)
    E(el)   - is the total energy from the electronic structure calculation
              = E(kin-el) + E(nuc-el) + E(el-el) + E(nuc-nuc)
    E(ZPE)  - the the zero temperature vibrational energy from the frequency calculation
    E(vib)  - the the finite temperature correction to E(ZPE) due to population
              of excited vibrational states
    E(rot)  - is the rotational thermal energy
    E(trans)- is the translational thermal energy

Summary of contributions to the inner energy U:
Electronic energy                ...    -99.93731758 Eh
Zero point energy                ...      0.36510345 Eh     229.11 kcal/mol
Thermal vibrational correction   ...      0.01262353 Eh       7.92 kcal/mol
Thermal rotational correction    ...      0.00141627 Eh       0.89 kcal/mol
Thermal translational correction ...      0.00141627 Eh       0.89 kcal/mol
-----------------------------------------------------------------------
Total thermal energy                    -99.55675805 Eh


Summary of corrections to the electronic energy:
(perhaps to be used in another calculation)
Total thermal correction                  0.01545607 Eh       9.70 kcal/mol
Non-thermal (ZPE) correction              0.36510345 Eh     229.11 kcal/mol
-----------------------------------------------------------------------
Total correction                          0.38055953 Eh     238.80 kcal/mol


--------
ENTHALPY
--------

The enthalpy is H = U + kB*T
                kB is Boltzmann's constant
Total thermal energy              ...    -99.55675805 Eh 
Thermal Enthalpy correction       ...      0.00094421 Eh       0.59 kcal/mol
-----------------------------------------------------------------------
Total Enthalpy                    ...    -99.55581385 Eh


Note: Only C1 symmetry has been detected, increase convergence thresholds 
      if your molecule has a higher symmetry. Symmetry factor of 1.0 is   
      used for the rotational entropy correction. 
 

Note: Rotational entropy computed according to Herzberg 
Infrared and Raman Spectra, Chapter V,1, Van Nostrand Reinhold, 1945 
Point Group:  C1, Symmetry Number:   1  
Rotational constants in cm-1:     0.026054     0.015244     0.010530 

Vibrational entropy computed according to the QRRHO of S. Grimme
Chem.Eur.J. 2012 18 9955 using a reference frequency of 100.0 cm-1


-------
ENTROPY
-------

The entropy contributions are T*S = T*(S(el)+S(vib)+S(rot)+S(trans))
     S(el)   - electronic entropy
     S(vib)  - vibrational entropy
     S(rot)  - rotational entropy
     S(trans)- translational entropy
The entropies will be listed as multiplied by the temperature to get
units of energy

Electronic entropy                ...      0.00000000 Eh      0.00 kcal/mol
Vibrational entropy               ...      0.02165621 Eh     13.59 kcal/mol
Rotational entropy                ...      0.01535747 Eh      9.64 kcal/mol
Translational entropy             ...      0.01988345 Eh     12.48 kcal/mol
-----------------------------------------------------------------------
Final entropy term                ...      0.05689713 Eh     35.70 kcal/mol

In case the symmetry of your molecule has not been determined correctly
or in case you have a reason to use a different symmetry number we print 
out the resulting rotational entropy values for sn=1,12:

 non-linear molecules -----------------------------------
|  sn= 1 | S(rot)=       0.01535747 Eh      9.64 kcal/mol|
|  sn= 2 | S(rot)=       0.01470302 Eh      9.23 kcal/mol|
|  sn= 3 | S(rot)=       0.01432018 Eh      8.99 kcal/mol|
|  sn= 4 | S(rot)=       0.01404856 Eh      8.82 kcal/mol|
|  sn= 5 | S(rot)=       0.01383787 Eh      8.68 kcal/mol|
|  sn= 6 | S(rot)=       0.01366573 Eh      8.58 kcal/mol|
|  sn= 7 | S(rot)=       0.01352018 Eh      8.48 kcal/mol|
|  sn= 8 | S(rot)=       0.01339410 Eh      8.40 kcal/mol|
|  sn= 9 | S(rot)=       0.01328289 Eh      8.34 kcal/mol|
|  sn=10 | S(rot)=       0.01318341 Eh      8.27 kcal/mol|
|  sn=11 | S(rot)=       0.01309342 Eh      8.22 kcal/mol|
|  sn=12 | S(rot)=       0.01301127 Eh      8.16 kcal/mol|
 linear molecules ---------------------------------------
|  Dinfh | S(rot)=       0.00962512 Eh      6.04 kcal/mol|
|  Cinfv | S(rot)=       0.01027958 Eh      6.45 kcal/mol|
 --------------------------------------------------------


-------------------
GIBBS FREE ENERGY
-------------------

The Gibbs free energy is G = H - T*S

Total enthalpy                    ...    -99.55581385 Eh 
Total entropy correction          ...     -0.05689713 Eh    -35.70 kcal/mol
-----------------------------------------------------------------------
Final Gibbs free energy         ...    -99.61271098 Eh

For completeness - the Gibbs free energy minus the electronic energy
G-E(el)                           ...      0.32460660 Eh    203.69 kcal/mol


Maximum memory used throughout the entire PROP-calculation: 239.8 MB

--------------------------------
SUGGESTED CITATIONS FOR THIS RUN
--------------------------------

Below you find a list of papers that are relevant to this ORCA run
We neither can nor want to force you to cite these papers, but we appreciate if you do
You receive ORCA, which is the product of decades of hard work by many enthusiastic individuals, for free
The only thing we kindly ask in return is that you cite our papers,
We deeply appreciate it, if you show your appreciation for ORCA by not just citing the generic ORCA reference.

Please note that relegating all ORCA citations to the supporting information does *not* help us.
SI sections are not indexed - citations you put there will not count into any citation statistics
But we need these citations in order to attract the funding resources that allow us to do what we are doing

Therefore, if you are a happy ORCA user, please consider citing a few of the papers listed below in the main body of your paper

In addition to the list printed below, the program has created the file ./output/alpha_bulnesene/alpha_bulnesene.bibtex that contains the list in bibtex format
You can import this file easily into all common literature databanks and citation aid programs


List of essential papers. We consider these as the minimum necessary citations

  1. Neese,F.
     Software update: the ORCA program system, version 5.0
     WIRES Comput. Molec. Sci., 2022 12(1)e1606
     doi.org/10.1002/wcms.1606
  2. Mueller,M.; Hansen,A.; Grimme,S.
     wB97X-3c: A composite range-separated hybrid DFT method with a molecule-optimized polarized valence double-zeta basis set
     J. Chem. Phys., 2023 158 014103
     doi.org/10.1063/5.0133026

List of papers to cite with high priority. The work reported in these papers was absolutely
necessary for this run to complete.
Our perspective: the developers of density functionals and basis sets usually get cited in chemistry papers
Good! But without the algorithms to do something with them, the functionals or basis sets would not do anything.
Hence, in our opinion, the algorithm design and method developments papers are equally worthy of getting cited

  1. Neese,F.
     An improvement of the resolution of the identity approximation for the formation of the Coulomb matrix
     J. Comp. Chem., 2003 24(14)1740-1747
     doi.org/10.1002/jcc.10318
  2. Neese,F.; Wennmohs,F.; Hansen,A.; Becker,U.
     Efficient, approximate and parallel Hartree-Fock and hybrid DFT calculations. A 'chain-of-spheres' algorithm for the Hartree-Fock exchange
     Chem. Phys., 2009 356(1-3)98-109
     doi.org/10.1016/j.chemphys.2008.10.036
  3. Bykov,D.; Petrenko,T.; Izsak,R.; Kossmann,S.; Becker,U.; Valeev,E.; Neese,F.
     Efficient implementation of the analytic second derivatives of Hartree-Fock and hybrid DFT energies: a detailed analysis of different approximations
     Molec. Phys., 2015 113 1961-1977
     doi.org/10.1080/00268976.2015.1025114
  4. Helmich-Paris,B.; de Souza,B.; Neese,F.; Izsák,R.
     An improved chain of spheres for exchange algorithm
     J. Chem. Phys., 2021 155 104109
     doi.org/doi: 10.1063/5.0058766.
  5. Neese,F.
     The SHARK Integral Generation and Digestion System
     J. Comp. Chem., 2022  1-16
     doi.org/10.1002/jcc.26942
  6. Caldeweyher,E.; Bannwarth,C.; Grimme,S.
     Extension of the D3 dispersion coefficient model
     J. Chem. Phys., 2017 147 034112
     doi.org/10.1063/1.4993215
  7. Caldeweyher,E.; Ehlert,S.; Hansen,A.; Neugebauer,H.; Spicher,S.; Bannwarth,C.; Grimme,S.
     A generally applicable atomic-charge dependent London dispersion correction
     J. Chem. Phys., 2019 150 154122
     doi.org/10.1063/1.5090222
  8. Caldeweyher,E.; Mewes,J.; Ehlert,S.; Grimme,S.
     Extension and evaluation of the D4 London-dispersion model for periodic systems
     Phys. Chem. Chem. Phys., 2020 22(16)8499-8512
     doi.org/10.1039/D0CP00502A
  9. Wittmann,L.; Gordiy,I.; Friede,M.; Helmich-Paris,B.; Grimme,S.; Hansen,A.; Bursch,M.
     Extension of the D3 and D4 London Dispersion Corrections to the full Actinides Series
     Phys. Chem. Chem. Phys., 2024 26(32)21379-21394
     doi.org/https://doi.org/10.1039/D4CP01514B 

List of suggested additional citations. These are papers that are important in the 'surrounding' of 
of this run, or papers that preceded the highly important papers. If you like your results we are grateful for a citation.

  1. Izsak,R.; Neese,F.
     An overlap fitted chain of spheres exchange method
     J. Chem. Phys., 2011 135 144105
     doi.org/10.1063/1.3646921
  2. Izsak,R.; Hansen,A.; Neese,F.
     The resolution of identity and chain of spheres approximations for the LPNO-CCSD singles Fock term
     Molec. Phys., 2012 110 2413-2417
     doi.org/10.1080/00268976.2012.687466
  3. Neese,F.
     The ORCA program system
     WIRES Comput. Molec. Sci., 2012 2(1)73-78
     doi.org/10.1002/wcms.81
  4. Izsak,R.; Neese,F.; Klopper,W.
     Robust fitting techniques in the chain of spheres approximation to the Fock exchange: The role of the complementary space
     J. Chem. Phys., 2013 139 
     doi.org/10.1063/1.4819264
  5. Neese,F.
     Software update: the ORCA program system, version 4.0
     WIRES Comput. Molec. Sci., 2018 8(1)1-6
     doi.org/10.1002/wcms.1327
  6. Neese,F.; Wennmohs,F.; Becker,U.; Riplinger,C.
     The ORCA quantum chemistry program package
     J. Chem. Phys., 2020 152 Art. No. L224108
     doi.org/10.1063/5.0004608

List of optional additional citations

  1. Neese,F.
     Approximate second-order SCF convergence for spin unrestricted wavefunctions
     Chem. Phys. Lett., 2000 325(1-3)93-98
     doi.org/10.1016/s0009-2614(00)00662-x

Timings for individual modules:

Sum of individual times          ...     2803.379 sec (=  46.723 min)
Startup calculation              ...      130.070 sec (=   2.168 min)   4.6 %
SCF iterations                   ...     1839.038 sec (=  30.651 min)  65.6 %
Property integrals               ...      148.167 sec (=   2.469 min)   5.3 %
SCF Response                     ...       86.481 sec (=   1.441 min)   3.1 %
Property calculations            ...      197.277 sec (=   3.288 min)   7.0 %
SCF Gradient evaluation          ...      401.591 sec (=   6.693 min)  14.3 %
Geometry relaxation              ...        0.755 sec (=   0.013 min)   0.0 %
                             ****ORCA TERMINATED NORMALLY****
TOTAL RUN TIME: 0 days 0 hours 46 minutes 55 seconds 591 msec
