
                                 *****************
                                 * O   R   C   A *
                                 *****************

                                            #,                                       
                                            ###                                      
                                            ####                                     
                                            #####                                    
                                            ######                                   
                                           ########,                                 
                                     ,,################,,,,,                         
                               ,,#################################,,                 
                          ,,##########################################,,             
                       ,#########################################, ''#####,          
                    ,#############################################,,   '####,        
                  ,##################################################,,,,####,       
                ,###########''''           ''''###############################       
              ,#####''   ,,,,##########,,,,          '''####'''          '####       
            ,##' ,,,,###########################,,,                        '##       
           ' ,,###''''                  '''############,,,                           
         ,,##''                                '''############,,,,        ,,,,,,###''
      ,#''                                            '''#######################'''  
     '                                                          ''''####''''         
             ,#######,   #######,   ,#######,      ##                                
            ,#'     '#,  ##    ##  ,#'     '#,    #''#        ,####,   ,####,        
            ##       ##  ##   ,#'  ##            #'  '#       #'       #'  '#        
            ##       ##  #######   ##           ,######,      #####,   #    #        
            '#,     ,#'  ##    ##  '#,     ,#' ,#      #,     #,   #   #,  ,#        
             '#######'   ##     ##  '#######'  #'      '#     '####' # '####'        



                #########################################################
                #                        -***-                          #
                #          Department of theory and spectroscopy        #
                #                                                       #
                #                      Frank Neese                      #
                #                                                       #
                #     Directorship, Architecture, Infrastructure        #
                #                    SHARK, DRIVERS                     #
                #        Core code/Algorithms in most modules           #
                #                                                       #
                #        Max Planck Institute fuer Kohlenforschung      #
                #                Kaiser Wilhelm Platz 1                 #
                #                 D-45470 Muelheim/Ruhr                 #
                #                      Germany                          #
                #                                                       #
                #                  All rights reserved                  #
                #                        -***-                          #
                #########################################################


                         Program Version 6.0.1  -  RELEASE   -


 With contributions from (in alphabetic order):
[Max-Planck-Institut fuer Kohlenforschung]                               
  Daniel Aravena         : Magnetic Suceptibility                        
  Michael Atanasov       : Ab Initio Ligand Field Theory (pilot matlab implementation)
  Alexander A. Auer      : GIAO ZORA, VPT2 properties, NMR spectrum      
  Ute Becker             : All parallelization in ORCA, NUMFREQ, NUMCALC 
  Giovanni Bistoni       : ED, misc. LED, open-shell LED, HFLD           
  Martin Brehm           : Molecular dynamics                            
  Dmytro Bykov           : pre 5.0 version of the SCF Hessian            
  Marcos Casanova-Páez   : Triplet and SCS-CIS(D). UHF-(DLPNO)-IP/EA/STEOM-CCSD. UHF-CVS-IP/STEOM-CCSD   
  Vijay G. Chilkuri      : MRCI spin determinant printing, contributions to CSF-ICE 
  Pauline Colinet        : FMM embedding                                 
  Dipayan Datta          : RHF DLPNO-CCSD density                        
  Achintya Kumar Dutta   : EOM-CC, STEOM-CC                              
  Nicolas Foglia         : Exact transition moments, OPA infrastructure, MCD improvements    
  Dmitry Ganyushin       : Spin-Orbit,Spin-Spin,Magnetic field MRCI      
  Miquel Garcia-Rates    : C-PCM and meta-GGA Hessian, CCSD/C-PCM, Gaussian charge scheme 
  Tiago L. C. Gouveia    : GS-ROHF, GS-ROCIS                             
  Yang Guo               : DLPNO-NEVPT2, F12-NEVPT2, CIM, IAO-localization        
  Andreas Hansen         : Spin unrestricted coupled pair/coupled cluster methods 
  Ingolf Harden          : AUTO-CI MPn and infrastructure                
  Benjamin Helmich-Paris : MC-RPA, TRAH-(SCF,CASSCF), AVAS, COSX integrals, SCF dyn. polar. 
  Lee Huntington         : MR-EOM, pCC                                   
  Robert Izsak           : Overlap fitted RIJCOSX, COSX-SCS-MP3, EOM     
  Riya Kayal             : Wick's Theorem for AUTO-CI, AUTO-CI UHF-CCSDT 
  Emily Kempfer          : AUTO-CI, RHF CISDT and CCSDT                  
  Christian Kollmar      : KDIIS, OOCD, Brueckner-CCSD(T), CCSD density, CASPT2, CASPT2-K, improved NEVPT2 
  Axel Koslowski         : Symmetry handling                             
  Simone Kossmann        : meta-GGA functionals, TD-DFT gradient, OOMP2, (MP2 Hessian; deprecated post 5.0) 
  Lucas Lang             : DCDCAS                                        
  Marvin Lechner         : AUTO-CI (C++ implementation), FIC-MRCC        
  Spencer Leger          : CASSCF response                               
  Dagmar Lenk            : GEPOL surface, SMD, ORCA-2-JSON               
  Dimitrios Liakos       : Extrapolation schemes; Compound Job, initial MDCI parallelization 
  Dimitrios Manganas     : Further ROCIS development; embedding schemes. LFT, Crystal Embedding 
  Dimitrios Pantazis     : SARC Basis sets                               
  Anastasios Papadopoulos: AUTO-CI, single reference methods and gradients 
  Taras Petrenko         : pre 6.0 DFT Hessian and TD-DFT gradient, (ASA, deprecated), ECA, 1-Electron XAS/XES, NRVS 
  Peter Pinski           : DLPNO-MP2, DLPNO-MP2 Gradient                 
  Christoph Reimann      : Effective Core Potentials                     
  Marius Retegan         : Local ZFS, SOC                                
  Christoph Riplinger    : Optimizer, TS searches, QM/MM, DLPNO-CCSD(T), (RO)-DLPNO pert. Triples 
  Michael Roemelt        : Original ROCIS implementation                 
  Masaaki Saitow         : Open-shell DLPNO-CCSD energy and density      
  Barbara Sandhoefer     : DKH picture change effects                    
  Kantharuban Sivalingam : CASSCF convergence/infrastructure, NEVPT2 and variants, FIC-MRCI 
  Bernardo de Souza      : ESD, SOC TD-DFT                               
  Georgi L. Stoychev     : AutoAux, RI-MP2 NMR, DLPNO-MP2 response, X2C  
  Van Anh Tran           : RI-MP2 g-tensors                              
  Willem Van den Heuvel  : Paramagnetic NMR                              
  Zikuan Wang            : NOTCH, Electric field optimization            
  Frank Wennmohs         : Technical directorship and infrastructure     
  Hang Xu                : AUTO-CI-Response properties                   
                                                                         
[FACCTs GmbH]                                                            
  Markus Bursch, Miquel Garcia-Rates, Christoph Riplinger, Bernardo de Souza, Georgi L. Stoychev 
                                                                 
  APM, Basis sets (HGBS, AHGBS, def-TZVP (Ac-Lr), def2-XVPD (La-Lu)), CI-OPT, improved COSX, DLPNO-Multilevel,           
  DOCKER, DRACO, updates on ESD, GOAT, IRC, LR-CPCM, MBIS, meta-GGA TD-DFT gradient, ML-optimized integration grids, 
  MM, NACMEs, nearIR, NEB, NEB-TS, NL-DFT gradient (VV10), 2- and 3-layer-ONIOM, interface openCOSMO-RS, QMMM,   
  Crystal-QMMM, SF, symmetry and pop. for TD-DFT, r2SCAN hybrids, SOLVATOR                                   
                                                                         
[Other institutions]                                                     
  V. Asgeirsson          : NEB                                           
  Christoph Bannwarth    : sTDA-DFT, sTD-DFT, PBEh-3c, B97-3c, D3        
  Sebastian Ehlert       : rSCAN, r2SCAN, r2SCAN-3c, D4, dhf basis sets  
  Marvin Friede          : D4 for Fr, Ra, Ac-Lr                          
  Lars Goerigk           : TD-DFT with DH, B97 family of functionals     
  Stefan Grimme          : VdW corrections, initial TS optimization, DFT functionals, gCP, sTDA/sTD-DF 
  Waldemar Hujo          : DFT-NL                                        
  H. Jonsson             : NEB                                           
  Holger Kruse           : gCP                                           
  Marcel Mueller         : wB97X-3c, vDZP basis set                      
  Hagen Neugebauer       : wr2SCAN                                       
  Tobias Risthaus        : range-separated hybrid DFT                    
  Lukas Wittmann         : regularized MP2, r2SCAN double-hybrids, wr2SCAN        
                                                                         
We gratefully acknowledge several colleagues who have allowed us to      
interface, adapt or use parts of their codes:                            
  Ed Valeev, F. Pavosevic, A. Kumar             : LibInt (2-el integral package), F12 methods 
  Garnet Chan, S. Sharma, J. Yang, R. Olivares  : DMRG                   
  Ulf Ekstrom                                   : XCFun DFT Library      
  Mihaly Kallay                                 : mrcc  (arbitrary order and MRCC methods)
  Frank Weinhold                                : gennbo (NPA and NBO analysis)           
  Simon Mueller                                 : openCOSMO-RS                            
  Christopher J. Cramer and Donald G. Truhlar   : smd solvation model                     
  S Lehtola, MJT Oliveira, MAL Marques          : LibXC Library                           
  Liviu Ungur et al                             : ANISO software                          


 Your calculation uses the libint2 library for the computation of 2-el integrals
 For citations please refer to: http://libint.valeyev.net

 Your ORCA version has been built with support for libXC version: 6.2.2
 For citations please refer to: https://libxc.gitlab.io

 This ORCA versions uses:
   CBLAS   interface :  Fast vector & matrix operations
   LAPACKE interface :  Fast linear algebra routines
   SCALAPACK package :  Parallel linear algebra routines
   Shared memory     :  Shared parallel matrices
   BLAS/LAPACK       :  OpenBLAS 0.3.27  USE64BITINT DYNAMIC_ARCH NO_AFFINITY SkylakeX SINGLE_THREADED
        Core in use  :  SkylakeX
   Copyright (c) 2011-2014, The OpenBLAS Project


Your calculation utilizes the atom-pairwise dispersion correction
based on EEQ partial charges (D4)


================================================================================

cite the ECPs for C  [vDZP-ECP], O  [vDZP-ECP] as follows:
   B-Ne (ecp-2-mwb), Al-Ar (ecp-10-mwb), Ga-Kr (ecp-28-mwb), Y-Cd (ecp-28-mwb), In-Xe (ecp-46-mwb):
     A. Bergner, M. Dolg, W. Küchle, H. Stoll, and H. Preuß, Mol. Phys. 80, 1431 (1993)., T. Leininger, A. Berning, A. Nicklass, H. Stoll, H.-J. Werner, and H.-J.Flad, Chem. Phys. 217, 19 (1997).
   Na-Mg, K-Ca, Rb-Sr, Cs-Ba (CRENBL):
     L. Fernandez Pacios and P. A. Christiansen, J. Chem. Phys. 82, 2664 (1985)., M. M. Hurley, L. F. Pacios, P. A. Christiansen, R. B. Ross, and W. C. Ermler, J. Chem. Phys. 84, 6840 (1986)., L. A. LaJohn, P. A. Christiansen, R. B. Ross, T. Atashroo, and W. C. Ermler, J. Chem. Phys. 87, 2812 (1987)., R. B. Ross, J. M. Powers, T. Atashroo, W. C. Ermler, L. A. LaJohn, and P. A. Christiansen, J. Chem. Phys. 93, 6654 (1990). 
   Sc-Zn (ecp-10-mdf):
     M. Dolg, U. Wedig, H. Stoll, and H. Preuss, J. Chem. Phys. 86, 866 (1986). 
   Y-Cd (ecp-28-mwb), Hf-Hg (ecp-60-mwb):
     D. Andrae, U. Häußermann, M. Dolg, H. Stoll, and H. Preuß, Theor. Chim. Acta 77, 123 (1990). 
   La (ecp-46-mwb):
     M. Dolg, H. Stoll, and H. Preuss, J. Chem. Phys. 90, 1730 (1989)., M. Dolg, H. Stoll, and H. Preuss, Theor. Chim. Acta 85, 441 (1993).
   Ce-Lu (SBKJC-ecp):
     T. R. Cundari and W. J. Stevens, J. Chem. Phys. 98, 5555 (1993).
   Tl-Rn (ecp-78-mwb):
     W. Küchle, M. Dolg, H. Stoll, and H. Preuss, Mol. Phys. 74, 1245 (1991).

ECP parameters for C  [vDZP-ECP], O  [vDZP-ECP] have been obtained from:
MM, AH, SG, J. Chem. Phys. 158, 014103 (2023), 10.1063/5.0133026

----- Orbital basis set information -----
Your calculation utilizes the basis: vDZP
   Marcel Mueller, Andreas Hansen, Stefan Grimme 
   J. Chem. Phys. 158, 014103 (2023). DOI: 10.1063/5.0133026

----- AuxJ basis set information -----
Your calculation utilizes the auxiliary basis: def2/J
   F. Weigend, Phys. Chem. Chem. Phys. 8, 1057 (2006).

================================================================================
                                        WARNINGS
                       Please study these warnings very carefully!
================================================================================

WARNING: Frozen-Core approximation turned on, but there are no core electrons.
  ===> : Turning off frozen-core approximation


WARNING: Geometry Optimization
  ===> : Switching off AutoStart
         For restart on a previous wavefunction, please use MOREAD

================================================================================
                                       INPUT FILE
================================================================================
NAME = ./output/dihydro_citronellol/dihydro_citronellol.inp
|  1> ! wB97X-3c OPT FREQ TightSCF
|  2> %pal
|  3>   nprocs 40
|  4> end
|  5> * xyz 0 1
|  6> C     -3.823918     1.070991     0.772344
|  7> C     -3.005064     0.026352     0.002481
|  8> C     -3.657574    -0.243305    -1.362125
|  9> C     -1.540896     0.501129    -0.139608
| 10> C     -0.609430    -0.596804    -0.686415
| 11> C      0.869844    -0.165162    -0.688685
| 12> C      1.561668    -0.280857     0.694899
| 13> C      1.874082    -1.742948     1.060248
| 14> C      2.827069     0.607429     0.777309
| 15> C      3.930596     0.236835    -0.226038
| 16> O      5.031052     1.090108    -0.065886
| 17> H     -4.869229     0.719193     0.906397
| 18> H     -3.388047     1.235054     1.780993
| 19> H     -3.837740     2.038388     0.225343
| 20> H     -3.023421    -0.916556     0.593043
| 21> H     -3.583289     0.651240    -2.017073
| 22> H     -4.730433    -0.500641    -1.231276
| 23> H     -3.172742    -1.104716    -1.865507
| 24> H     -1.497119     1.390382    -0.806783
| 25> H     -1.177310     0.818378     0.860122
| 26> H     -0.893191    -0.811845    -1.738310
| 27> H     -0.742499    -1.535487    -0.110055
| 28> H      1.416189    -0.796053    -1.423592
| 29> H      0.933558     0.881124    -1.061427
| 30> H      0.871531     0.104708     1.474731
| 31> H      2.475381    -1.787974     1.993186
| 32> H      2.435487    -2.249395     0.247281
| 33> H      0.937014    -2.307627     1.242713
| 34> H      2.532168     1.666952     0.611468
| 35> H      3.245740     0.549059     1.806133
| 36> H      4.273559    -0.802286    -0.044331
| 37> H      3.553361     0.298669    -1.271118
| 38> H      4.783603     1.955666    -0.484859
| 39> *
| 40> 
| 41>                          ****END OF INPUT****
================================================================================

                       *****************************
                       * Geometry Optimization Run *
                       *****************************

Geometry optimization settings:
Update method            Update   .... BFGS
Choice of coordinates    CoordSys .... (2022) Redundant Internals
Initial Hessian          InHess   .... Almloef's Model
Max. no of cycles        MaxIter  .... 99

Convergence Tolerances:
Energy Change            TolE     ....  5.0000e-06 Eh
Max. Gradient            TolMAXG  ....  3.0000e-04 Eh/bohr
RMS Gradient             TolRMSG  ....  1.0000e-04 Eh/bohr
Max. Displacement        TolMAXD  ....  4.0000e-03 bohr
RMS Displacement         TolRMSD  ....  2.0000e-03 bohr
Strict Convergence                .... False

------------------------------------------------------------------------------
                        ORCA OPTIMIZATION COORDINATE SETUP
------------------------------------------------------------------------------

The optimization will be done in redundant internal coordinates (2022)
Making redundant internal coordinates   ...  (2022 redundants) done
Evaluating the initial hessian          ...  (Almloef) done
Evaluating the coordinates              ...  done
Calculating the B-matrix                .... done
Calculating the G-matrix                .... done
Diagonalizing the G-matrix              .... done
Small eigenvalue found = 5.326e-03
Small eigenvalue found = 8.148e-03
Small eigenvalue found = 1.632e-02
Small eigenvalue found = 2.116e-02
Small eigenvalue found = 2.992e-02
The first mode is                       ....   57
The number of degrees of freedom        ....   93

    -----------------------------------------------------------------
                    Redundant Internal Coordinates


    -----------------------------------------------------------------
         Definition                    Initial Value    Approx d2E/dq
    -----------------------------------------------------------------
      1. B(C   1,C   0)                  1.5344         0.367542   
      2. B(C   2,C   1)                  1.5364         0.364847   
      3. B(C   3,C   1)                  1.5458         0.352553   
      4. B(C   4,C   3)                  1.5402         0.359892   
      5. B(C   5,C   4)                  1.5410         0.358826   
      6. B(C   6,C   5)                  1.5512         0.345548   
      7. B(C   7,C   6)                  1.5391         0.361308   
      8. B(C   8,C   6)                  1.5483         0.349348   
      9. B(C   9,C   8)                  1.5368         0.364331   
     10. B(O  10,C   9)                  1.4017         0.536080   
     11. B(H  11,C   0)                  1.1110         0.333317   
     12. B(H  12,C   0)                  1.1110         0.333391   
     13. B(H  13,C   0)                  1.1114         0.332848   
     14. B(H  14,C   1)                  1.1127         0.331248   
     15. B(H  15,C   2)                  1.1112         0.333163   
     16. B(H  16,C   2)                  1.1110         0.333337   
     17. B(H  17,C   2)                  1.1093         0.335487   
     18. B(H  18,C   3)                  1.1126         0.331448   
     19. B(H  19,C   3)                  1.1101         0.334479   
     20. B(H  20,C   4)                  1.1105         0.333957   
     21. B(H  21,C   4)                  1.1095         0.335188   
     22. B(H  22,C   5)                  1.1120         0.332109   
     23. B(H  23,C   5)                  1.1125         0.331503   
     24. B(H  24,C   6)                  1.1104         0.334045   
     25. B(H  25,C   7)                  1.1108         0.333563   
     26. B(H  26,C   7)                  1.1102         0.334326   
     27. B(H  27,C   7)                  1.1092         0.335616   
     28. B(H  28,C   8)                  1.1122         0.331859   
     29. B(H  29,C   8)                  1.1123         0.331798   
     30. B(H  30,C   9)                  1.1092         0.335527   
     31. B(H  31,C   9)                  1.1128         0.331168   
     32. B(H  32,O  10)                  0.9930         0.460669   
     33. A(C   1,C   0,H  13)          110.6270         0.319314   
     34. A(C   1,C   0,H  11)          110.3071         0.319388   
     35. A(H  11,C   0,H  13)          108.8619         0.283838   
     36. A(H  11,C   0,H  12)          107.8387         0.283910   
     37. A(H  12,C   0,H  13)          108.8549         0.283848   
     38. A(C   1,C   0,H  12)          110.2844         0.319399   
     39. A(C   3,C   1,H  14)          108.9463         0.316905   
     40. A(C   2,C   1,H  14)          108.3999         0.318680   
     41. A(C   0,C   1,C   3)          110.0291         0.358783   
     42. A(C   0,C   1,C   2)          109.7832         0.360884   
     43. A(C   2,C   1,C   3)          111.9958         0.358334   
     44. A(C   0,C   1,H  14)          107.5664         0.319063   
     45. A(H  15,C   2,H  17)          109.1759         0.284166   
     46. A(H  16,C   2,H  17)          107.1958         0.284189   
     47. A(H  15,C   2,H  16)          108.6897         0.283882   
     48. A(C   1,C   2,H  16)          110.2521         0.319007   
     49. A(C   1,C   2,H  15)          110.7212         0.318980   
     50. A(C   1,C   2,H  17)          110.7147         0.319342   
     51. A(H  18,C   3,H  19)          107.3821         0.283805   
     52. A(C   1,C   3,H  19)          108.3749         0.317407   
     53. A(C   4,C   3,H  18)          109.4560         0.318002   
     54. A(C   1,C   3,H  18)          109.7483         0.316936   
     55. A(C   4,C   3,H  19)          108.9887         0.318474   
     56. A(C   1,C   3,C   4)          112.7394         0.357501   
     57. A(C   3,C   4,C   5)          112.4213         0.358575   
     58. A(C   5,C   4,H  21)          110.6636         0.318430   
     59. A(H  20,C   4,H  21)          107.3121         0.284232   
     60. A(C   3,C   4,H  21)          110.2518         0.318584   
     61. A(C   5,C   4,H  20)          107.3458         0.318239   
     62. A(C   3,C   4,H  20)          108.6506         0.318393   
     63. A(C   4,C   5,C   6)          113.9491         0.356105   
     64. A(H  22,C   5,H  23)          106.4990         0.283499   
     65. A(C   6,C   5,H  23)          110.0862         0.315912   
     66. A(C   4,C   5,H  23)          108.5967         0.317857   
     67. A(C   6,C   5,H  22)          109.1487         0.316006   
     68. A(C   4,C   5,H  22)          108.2819         0.317951   
     69. A(C   5,C   6,C   7)          111.9073         0.356522   
     70. A(C   8,C   6,H  24)          105.7455         0.316868   
     71. A(C   7,C   6,H  24)          106.8158         0.318611   
     72. A(C   5,C   6,H  24)          108.8626         0.316305   
     73. A(C   7,C   6,C   8)          111.4996         0.357185   
     74. A(C   5,C   6,C   8)          111.6658         0.354492   
     75. A(H  26,C   7,H  27)          108.3871         0.284337   
     76. A(H  25,C   7,H  27)          107.3685         0.284236   
     77. A(C   6,C   7,H  27)          110.5602         0.318855   
     78. A(H  25,C   7,H  26)          108.8310         0.284066   
     79. A(C   6,C   7,H  26)          111.2335         0.318654   
     80. A(C   6,C   7,H  25)          110.3495         0.318536   
     81. A(C   9,C   8,H  29)          108.7203         0.318693   
     82. A(C   6,C   8,H  29)          109.0727         0.316520   
     83. A(C   9,C   8,H  28)          108.8297         0.318703   
     84. A(C   6,C   8,H  28)          108.7782         0.316530   
     85. A(C   6,C   8,C   9)          114.4421         0.357691   
     86. A(H  28,C   8,H  29)          106.7210         0.283505   
     87. A(H  30,C   9,H  31)          108.1021         0.283906   
     88. A(O  10,C   9,H  31)          109.8538         0.337506   
     89. A(C   8,C   9,H  31)          110.8745         0.318594   
     90. A(O  10,C   9,H  30)          107.9874         0.338242   
     91. A(C   8,C   9,H  30)          109.9357         0.319275   
     92. A(C   8,C   9,O  10)          110.0203         0.382601   
     93. A(C   9,O  10,H  32)          106.6656         0.353661   
     94. D(C   3,C   1,C   0,H  11)   -178.1357         0.010808   
     95. D(C   2,C   1,C   0,H  13)    -62.3363         0.010808   
     96. D(C   3,C   1,C   0,H  12)    -59.1227         0.010808   
     97. D(C   2,C   1,C   0,H  11)     58.1690         0.010808   
     98. D(C   3,C   1,C   0,H  13)     61.3590         0.010808   
     99. D(C   2,C   1,C   0,H  12)    177.1820         0.010808   
    100. D(H  16,C   2,C   1,C   0)    -52.7886         0.010660   
    101. D(H  16,C   2,C   1,H  14)     64.4485         0.010660   
    102. D(H  15,C   2,C   1,C   3)    -55.0106         0.010660   
    103. D(H  16,C   2,C   1,C   3)   -175.3257         0.010660   
    104. D(H  15,C   2,C   1,C   0)     67.5265         0.010660   
    105. D(H  15,C   2,C   1,H  14)   -175.2364         0.010660   
    106. D(C   4,C   3,C   1,C   2)    -67.4187         0.010003   
    107. D(C   4,C   3,C   1,H  14)     52.4881         0.010003   
    108. D(C   4,C   3,C   1,C   0)    170.1841         0.010003   
    109. D(H  18,C   3,C   1,C   2)     54.8701         0.010003   
    110. D(H  18,C   3,C   1,H  14)    174.7769         0.010003   
    111. D(H  18,C   3,C   1,C   0)    -67.5271         0.010003   
    112. D(H  20,C   4,C   3,H  19)   -172.3819         0.010392   
    113. D(H  20,C   4,C   3,H  18)    -55.2123         0.010392   
    114. D(H  20,C   4,C   3,C   1)     67.2407         0.010392   
    115. D(C   5,C   4,C   3,H  18)     63.4507         0.010392   
    116. D(C   5,C   4,C   3,C   1)   -174.0963         0.010392   
    117. D(C   5,C   4,C   3,H  19)    -53.7189         0.010392   
    118. D(H  22,C   5,C   4,H  21)     77.7537         0.010335   
    119. D(H  22,C   5,C   4,H  20)    -39.0533         0.010335   
    120. D(H  22,C   5,C   4,C   3)   -158.4797         0.010335   
    121. D(C   6,C   5,C   4,H  20)   -160.7041         0.010335   
    122. D(C   6,C   5,C   4,C   3)     79.8695         0.010335   
    123. D(C   6,C   5,C   4,H  21)    -43.8971         0.010335   
    124. D(C   7,C   6,C   5,C   4)     74.7491         0.009640   
    125. D(C   8,C   6,C   5,H  23)    -37.1881         0.009640   
    126. D(C   8,C   6,C   5,H  22)     79.3682         0.009640   
    127. D(C   8,C   6,C   5,C   4)   -159.4619         0.009640   
    128. D(C   7,C   6,C   5,H  23)   -162.9772         0.009640   
    129. D(C   7,C   6,C   5,H  22)    -46.4208         0.009640   
    130. D(H  26,C   7,C   6,H  24)    171.3616         0.010468   
    131. D(H  26,C   7,C   6,C   8)    -73.5681         0.010468   
    132. D(H  26,C   7,C   6,C   5)     52.3121         0.010468   
    133. D(H  25,C   7,C   6,H  24)    -67.7447         0.010468   
    134. D(H  25,C   7,C   6,C   8)     47.3257         0.010468   
    135. D(H  25,C   7,C   6,C   5)    173.2058         0.010468   
    136. D(H  28,C   8,C   6,H  24)    -58.3477         0.009836   
    137. D(H  28,C   8,C   6,C   7)   -174.0765         0.009836   
    138. D(H  28,C   8,C   6,C   5)     59.9103         0.009836   
    139. D(C   9,C   8,C   6,H  24)    179.7148         0.009836   
    140. D(C   9,C   8,C   6,C   7)     63.9860         0.009836   
    141. D(C   9,C   8,C   6,C   5)    -62.0272         0.009836   
    142. D(H  30,C   9,C   8,H  29)     61.3784         0.010632   
    143. D(H  30,C   9,C   8,H  28)    177.2604         0.010632   
    144. D(H  30,C   9,C   8,C   6)    -60.8303         0.010632   
    145. D(O  10,C   9,C   8,H  29)    -57.4231         0.010632   
    146. D(O  10,C   9,C   8,H  28)     58.4588         0.010632   
    147. D(O  10,C   9,C   8,C   6)   -179.6318         0.010632   
    148. D(H  32,O  10,C   9,H  31)     45.9418         0.022846   
    149. D(H  32,O  10,C   9,H  30)    163.6233         0.022846   
    150. D(H  32,O  10,C   9,C   8)    -76.3869         0.022846   
    -----------------------------------------------------------------

Number of atoms                         .... 33
Number of degrees of freedom            .... 150


         *************************************************************
         *                GEOMETRY OPTIMIZATION CYCLE   1            *
         *************************************************************
---------------------------------
CARTESIAN COORDINATES (ANGSTROEM)
---------------------------------
  C     -3.823918    1.070991    0.772344
  C     -3.005064    0.026352    0.002481
  C     -3.657574   -0.243305   -1.362125
  C     -1.540896    0.501129   -0.139608
  C     -0.609430   -0.596804   -0.686415
  C      0.869844   -0.165162   -0.688685
  C      1.561668   -0.280857    0.694899
  C      1.874082   -1.742948    1.060248
  C      2.827069    0.607429    0.777309
  C      3.930596    0.236835   -0.226038
  O      5.031052    1.090108   -0.065886
  H     -4.869229    0.719193    0.906397
  H     -3.388047    1.235054    1.780993
  H     -3.837740    2.038388    0.225343
  H     -3.023421   -0.916556    0.593043
  H     -3.583289    0.651240   -2.017073
  H     -4.730433   -0.500641   -1.231276
  H     -3.172742   -1.104716   -1.865507
  H     -1.497119    1.390382   -0.806783
  H     -1.177310    0.818378    0.860122
  H     -0.893191   -0.811845   -1.738310
  H     -0.742499   -1.535487   -0.110055
  H      1.416189   -0.796053   -1.423592
  H      0.933558    0.881124   -1.061427
  H      0.871531    0.104708    1.474731
  H      2.475381   -1.787974    1.993186
  H      2.435487   -2.249395    0.247281
  H      0.937014   -2.307627    1.242713
  H      2.532168    1.666952    0.611468
  H      3.245740    0.549059    1.806133
  H      4.273559   -0.802286   -0.044331
  H      3.553361    0.298669   -1.271118
  H      4.783603    1.955666   -0.484859

----------------------------
CARTESIAN COORDINATES (A.U.)
----------------------------
  NO LB      ZA    FRAG     MASS         X           Y           Z
   0 C     4.0000*   0    12.011   -7.226158    2.023880    1.459519
   1 C     4.0000*   0    12.011   -5.678748    0.049798    0.004688
   2 C     4.0000*   0    12.011   -6.911813   -0.459780   -2.574043
   3 C     4.0000*   0    12.011   -2.911871    0.946997   -0.263821
   4 C     4.0000*   0    12.011   -1.151656   -1.127796   -1.297136
   5 C     4.0000*   0    12.011    1.643767   -0.312111   -1.301426
   6 C     4.0000*   0    12.011    2.951125   -0.530743    1.313169
   7 C     4.0000*   0    12.011    3.541502   -3.293694    2.003578
   8 C     4.0000*   0    12.011    5.342386    1.147874    1.468901
   9 C     4.0000*   0    12.011    7.427750    0.447553   -0.427150
  10 O     6.0000*   0    15.999    9.507310    2.060006   -0.124506
  11 H     1.0000    0     1.008   -9.201509    1.359078    1.712842
  12 H     1.0000    0     1.008   -6.402481    2.333914    3.365589
  13 H     1.0000    0     1.008   -7.252278    3.851995    0.425837
  14 H     1.0000    0     1.008   -5.713438   -1.732040    1.120689
  15 H     1.0000    0     1.008   -6.771435    1.230665   -3.811716
  16 H     1.0000    0     1.008   -8.939223   -0.946074   -2.326774
  17 H     1.0000    0     1.008   -5.995613   -2.087611   -3.525297
  18 H     1.0000    0     1.008   -2.829145    2.627441   -1.524599
  19 H     1.0000    0     1.008   -2.224793    1.546510    1.625395
  20 H     1.0000    0     1.008   -1.687886   -1.534165   -3.284930
  21 H     1.0000    0     1.008   -1.403120   -2.901650   -0.207974
  22 H     1.0000    0     1.008    2.676209   -1.504322   -2.690199
  23 H     1.0000    0     1.008    1.764169    1.665083   -2.005806
  24 H     1.0000    0     1.008    1.646955    0.197869    2.786838
  25 H     1.0000    0     1.008    4.677792   -3.378781    3.766576
  26 H     1.0000    0     1.008    4.602403   -4.250741    0.467293
  27 H     1.0000    0     1.008    1.770700   -4.360783    2.348387
  28 H     1.0000    0     1.008    4.785104    3.150083    1.155507
  29 H     1.0000    0     1.008    6.133560    1.037571    3.413097
  30 H     1.0000    0     1.008    8.075856   -1.516101   -0.083773
  31 H     1.0000    0     1.008    6.714879    0.564403   -2.402065
  32 H     1.0000    0     1.008    9.039700    3.695673   -0.916251
* core charge reduced due to ECP

--------------------------------
INTERNAL COORDINATES (ANGSTROEM)
--------------------------------
 C      0   0   0     0.000000000000     0.00000000     0.00000000
 C      1   0   0     1.534431996670     0.00000000     0.00000000
 C      2   1   0     1.536435398247   109.78321058     0.00000000
 C      2   1   3     1.545765317205   110.02906141   123.69529080
 C      4   2   1     1.540157029947   112.73939472   170.18409931
 C      5   4   2     1.540964482439   112.42130810   185.90372556
 C      6   5   4     1.551228695279   113.94908753    79.86947716
 C      7   6   5     1.539088201332   111.90732277    74.74905160
 C      7   6   5     1.548251632228   111.66579663   200.53810163
 C      9   7   6     1.536820404268   114.44206320   297.97276855
 O     10   9   7     1.401687156098   110.02030354   180.36815042
 H      1   2   3     1.111038760050   110.30706201    58.16901159
 H      1   2   3     1.110978398445   110.28441287   177.18202188
 H      1   2   3     1.111421655941   110.62699007   297.66371979
 H      2   1   3     1.112733549309   107.56635989   242.24307697
 H      3   2   1     1.111164209716   110.72118202    67.52653272
 H      3   2   1     1.111021922186   110.25214271   307.21140373
 H      3   2   1     1.109272021223   110.71473283   188.75918436
 H      4   2   1     1.112569011056   109.74832741   292.47290584
 H      4   2   1     1.110090888305   108.37494956    49.45517771
 H      5   4   2     1.110516108765   108.65063106    67.24069422
 H      5   4   2     1.109515201721   110.25177683   309.89905633
 H      6   5   4     1.112027253063   108.28194843   201.52025106
 H      6   5   4     1.112524366545   108.59669652   316.78070415
 H      7   6   5     1.110444683997   108.86261972   316.91572664
 H      8   7   6     1.110838034963   110.34953777   173.20576185
 H      8   7   6     1.110215961389   111.23346825    52.31205460
 H      8   7   6     1.109167384072   110.56024781   291.83659604
 H      9   7   6     1.112231461797   108.77815273    59.91030109
 H      9   7   6     1.112282017349   109.07265732   175.95626926
 H     10   9   7     1.109240057814   109.93574200   299.16973597
 H     10   9   7     1.112799126159   110.87454278    58.64527160
 H     11  10   9     0.992955202259   106.66558512   283.61314807

---------------------------
INTERNAL COORDINATES (A.U.)
---------------------------
 C      0   0   0     0.000000000000     0.00000000     0.00000000
 C      1   0   0     2.899656244833     0.00000000     0.00000000
 C      2   1   0     2.903442125148   109.78321058     0.00000000
 C      2   1   3     2.921073116831   110.02906141   123.69529080
 C      4   2   1     2.910474989833   112.73939472   170.18409931
 C      5   4   2     2.912000853910   112.42130810   185.90372556
 C      6   5   4     2.931397405157   113.94908753    79.86947716
 C      7   6   5     2.908455196466   111.90732277    74.74905160
 C      7   6   5     2.925771571308   111.66579663   200.53810163
 C      9   7   6     2.904169681088   114.44206320   297.97276855
 O     10   9   7     2.648804850459   110.02030354   180.36815042
 H      1   2   3     2.099558980666   110.30706201    58.16901159
 H      1   2   3     2.099444913763   110.28441287   177.18202188
 H      1   2   3     2.100282549037   110.62699007   297.66371979
 H      2   1   3     2.102761668219   107.56635989   242.24307697
 H      3   2   1     2.099796046178   110.72118202    67.52653272
 H      3   2   1     2.099527161714   110.25214271   307.21140373
 H      3   2   1     2.096220328133   110.71473283   188.75918436
 H      4   2   1     2.102450735984   109.74832741   292.47290584
 H      4   2   1     2.097767762657   108.37494956    49.45517771
 H      5   4   2     2.098571312874   108.65063106    67.24069422
 H      5   4   2     2.096679872675   110.25177683   309.89905633
 H      6   5   4     2.101426961746   108.28194843   201.52025106
 H      6   5   4     2.102366370084   108.59669652   316.78070415
 H      7   6   5     2.098436339624   108.86261972   316.91572664
 H      8   7   6     2.099179665224   110.34953777   173.20576185
 H      8   7   6     2.098004116533   111.23346825    52.31205460
 H      8   7   6     2.096022592575   110.56024781   291.83659604
 H      9   7   6     2.101812860327   108.77815273    59.91030109
 H      9   7   6     2.101908396474   109.07265732   175.95626926
 H     10   9   7     2.096159926043   109.93574200   299.16973597
 H     10   9   7     2.102885590508   110.87454278    58.64527160
 H     11  10   9     1.876413395523   106.66558512   283.61314807

---------------------
BASIS SET INFORMATION
---------------------
There are 3 groups of distinct atoms

 Group   1 Type C   : 6s6p2d contracted to 2s2p1d pattern {42/42/2}
 Group   2 Type O   : 6s6p2d contracted to 2s2p1d pattern {42/42/2}
 Group   3 Type H   : 8s2p contracted to 2s1p pattern {53/2}

Atom   0C    basis set group =>   1
Atom   1C    basis set group =>   1
Atom   2C    basis set group =>   1
Atom   3C    basis set group =>   1
Atom   4C    basis set group =>   1
Atom   5C    basis set group =>   1
Atom   6C    basis set group =>   1
Atom   7C    basis set group =>   1
Atom   8C    basis set group =>   1
Atom   9C    basis set group =>   1
Atom  10O    basis set group =>   2
Atom  11H    basis set group =>   3
Atom  12H    basis set group =>   3
Atom  13H    basis set group =>   3
Atom  14H    basis set group =>   3
Atom  15H    basis set group =>   3
Atom  16H    basis set group =>   3
Atom  17H    basis set group =>   3
Atom  18H    basis set group =>   3
Atom  19H    basis set group =>   3
Atom  20H    basis set group =>   3
Atom  21H    basis set group =>   3
Atom  22H    basis set group =>   3
Atom  23H    basis set group =>   3
Atom  24H    basis set group =>   3
Atom  25H    basis set group =>   3
Atom  26H    basis set group =>   3
Atom  27H    basis set group =>   3
Atom  28H    basis set group =>   3
Atom  29H    basis set group =>   3
Atom  30H    basis set group =>   3
Atom  31H    basis set group =>   3
Atom  32H    basis set group =>   3
---------------------------------
AUXILIARY/J BASIS SET INFORMATION
---------------------------------
There are 3 groups of distinct atoms

 Group   1 Type C   : 12s5p4d2f1g contracted to 6s4p3d1f1g pattern {711111/2111/211/2/1}
 Group   2 Type O   : 12s5p4d2f1g contracted to 6s4p3d1f1g pattern {711111/2111/211/2/1}
 Group   3 Type H   : 5s2p1d contracted to 3s1p1d pattern {311/2/1}

Atom   0C    basis set group =>   1
Atom   1C    basis set group =>   1
Atom   2C    basis set group =>   1
Atom   3C    basis set group =>   1
Atom   4C    basis set group =>   1
Atom   5C    basis set group =>   1
Atom   6C    basis set group =>   1
Atom   7C    basis set group =>   1
Atom   8C    basis set group =>   1
Atom   9C    basis set group =>   1
Atom  10O    basis set group =>   2
Atom  11H    basis set group =>   3
Atom  12H    basis set group =>   3
Atom  13H    basis set group =>   3
Atom  14H    basis set group =>   3
Atom  15H    basis set group =>   3
Atom  16H    basis set group =>   3
Atom  17H    basis set group =>   3
Atom  18H    basis set group =>   3
Atom  19H    basis set group =>   3
Atom  20H    basis set group =>   3
Atom  21H    basis set group =>   3
Atom  22H    basis set group =>   3
Atom  23H    basis set group =>   3
Atom  24H    basis set group =>   3
Atom  25H    basis set group =>   3
Atom  26H    basis set group =>   3
Atom  27H    basis set group =>   3
Atom  28H    basis set group =>   3
Atom  29H    basis set group =>   3
Atom  30H    basis set group =>   3
Atom  31H    basis set group =>   3
Atom  32H    basis set group =>   3
-------------------------
ECP PARAMETER INFORMATION
-------------------------

 Group 1, Type C  ECP vDZP-ECP (replacing 2 core electrons, lmax=3)
 Group 2, Type O  ECP vDZP-ECP (replacing 2 core electrons, lmax=3)

Atom   0C    ECP group =>   1
Atom   1C    ECP group =>   1
Atom   2C    ECP group =>   1
Atom   3C    ECP group =>   1
Atom   4C    ECP group =>   1
Atom   5C    ECP group =>   1
Atom   6C    ECP group =>   1
Atom   7C    ECP group =>   1
Atom   8C    ECP group =>   1
Atom   9C    ECP group =>   1
Atom  10O    ECP group =>   2



           ************************************************************
           *        Program running with 40 parallel MPI-processes    *
           *              working on a common directory               *
           ************************************************************
------------------------------------------------------------------------------
                             ORCA STARTUP CALCULATIONS
                           -- RI-GTO INTEGRALS CHOSEN --
------------------------------------------------------------------------------
------------------------------------------------------------------------------
                   ___                                                        
                  /   \      - P O W E R E D   B Y -                         
                 /     \                                                     
                 |  |  |   _    _      __       _____    __    __             
                 |  |  |  | |  | |    /  \     |  _  \  |  |  /  |          
                  \  \/   | |  | |   /    \    | | | |  |  | /  /          
                 / \  \   | |__| |  /  /\  \   | |_| |  |  |/  /          
                |  |  |   |  __  | /  /__\  \  |    /   |      \           
                |  |  |   | |  | | |   __   |  |    \   |  |\   \          
                \     /   | |  | | |  |  |  |  | |\  \  |  | \   \       
                 \___/    |_|  |_| |__|  |__|  |_| \__\ |__|  \__/        
                                                                              
                      - O R C A' S   B I G   F R I E N D -                    
                                      &                                       
                       - I N T E G R A L  F E E D E R -                       
                                                                              
 v1 FN, 2020, v2 2021, v3 2022-2024                                           
------------------------------------------------------------------------------


----------------------
SHARK INTEGRAL PACKAGE
----------------------

Number of atoms                             ...     33
Number of basis functions                   ...    253
Number of shells                            ...    121
Maximum angular momentum                    ...      2
Integral batch strategy                     ... SHARK/LIBINT Hybrid
RI-J (if used) integral strategy            ... SPLIT-RIJ (Revised 2003 algorithm where possible)
Printlevel                                  ...      1
Contraction scheme used                     ... SEGMENTED contraction
Prescreening option                         ... SCHWARTZ
   Thresh                                   ... 2.500e-11
   Tcut                                     ... 2.500e-12
   Tpresel                                  ... 2.500e-12 
Coulomb Range Separation                    ... NOT USED
Exchange Range Separation                   ... Long Range
   Mu parameter                             ... 3.000e-01
   Scaling (regular/separated)              ... 1.670e-01 8.330e-01
Multipole approximations                    ... NOT USED
Finite Nucleus Model                        ... NOT USED
CABS basis                                  ... NOT available
Auxiliary Coulomb fitting basis             ... AVAILABLE
   # of basis functions in Aux-J            ...    781
   # of shells in Aux-J                     ...    275
   Maximum angular momentum in Aux-J        ...      4
Auxiliary J/K fitting basis                 ... NOT available
Auxiliary Correlation fitting basis         ... NOT available
Auxiliary 'external' fitting basis          ... NOT available

Checking pre-screening integrals            ... done (  0.0 sec) Dimension = 121
Check shell pair data                       ... done (  0.0 sec)
Shell pair information
Shell pair cut-off parameter TPreSel        ...   2.5e-12
Total number of shell pairs                 ...      7381
Shell pairs after pre-screening             ...      7161
Total number of primitive shell pairs       ...     70598
Primitive shell pairs kept                  ...     51998
          la=0 lb=0:   2179 shell pairs
          la=1 lb=0:   2822 shell pairs
          la=1 lb=1:    928 shell pairs
          la=2 lb=0:    708 shell pairs
          la=2 lb=1:    461 shell pairs
          la=2 lb=2:     63 shell pairs

Calculating one electron integrals          ... done (  0.0 sec)
Calculating ECP integrals                   ... done (  0.1 sec)
Calculating RI/J V-Matrix + Cholesky decomp.... done (  0.0 sec)
Calculating Nuclear repulsion               ... done (  0.0 sec) ENN=    367.075146524994 Eh

Diagonalization of the overlap matrix:
Smallest eigenvalue                        ... 1.580e-03
Time for diagonalization                   ...    0.009 sec
Threshold for overlap eigenvalues          ... 1.000e-07
Number of eigenvalues below threshold      ... 0
Time for construction of square roots      ...    0.005 sec
Total time needed                          ...    0.017 sec

-------------------
DFT GRID GENERATION
-------------------

General Integration Accuracy     IntAcc      ... 4.388
Radial Grid Type                 RadialGrid  ... OptM3 with GC (2021)
Angular Grid (max. ang.)         AngularGrid ... 4 (Lebedev-302)
Angular grid pruning method      GridPruning ... 4 (adaptive)
Weight generation scheme         WeightScheme... mBecke (2022)
Basis function cutoff            BFCut       ... 1.0000e-11
Integration weight cutoff        WCut        ... 1.0000e-14
Partially contracted basis set               ... off
Rotationally invariant grid construction     ... off
Angular grids for H and He will be reduced by one unit

Total number of grid points                  ...   135767
Total number of batches                      ...     2141
Average number of points per batch           ...       63
Average number of grid points per atom       ...     4114

--------------------
COSX GRID GENERATION
--------------------

GRIDX 1
-------
General Integration Accuracy     IntAcc      ... 3.816
Radial Grid Type                 RadialGrid  ... OptM3 with GC (2021)
Angular Grid (max. ang.)         AngularGrid ... 1 (Lebedev-50)
Angular grid pruning method      GridPruning ... 4 (adaptive)
Weight generation scheme         WeightScheme... mBecke (2022)
Basis function cutoff            BFCut       ... 1.0000e-11
Integration weight cutoff        WCut        ... 1.0000e-14
Partially contracted basis set               ... on
Rotationally invariant grid construction     ... off
Angular grids for H and He will be reduced by one unit

Total number of grid points                  ...    17414
Total number of batches                      ...      158
Average number of points per batch           ...      110
Average number of grid points per atom       ...      528
UseSFitting                                  ... on

GRIDX 2
-------
General Integration Accuracy     IntAcc      ... 4.020
Radial Grid Type                 RadialGrid  ... OptM3 with GC (2021)
Angular Grid (max. ang.)         AngularGrid ... 2 (Lebedev-110)
Angular grid pruning method      GridPruning ... 4 (adaptive)
Weight generation scheme         WeightScheme... mBecke (2022)
Basis function cutoff            BFCut       ... 1.0000e-11
Integration weight cutoff        WCut        ... 1.0000e-14
Partially contracted basis set               ... on
Rotationally invariant grid construction     ... off
Angular grids for H and He will be reduced by one unit

Total number of grid points                  ...    35689
Total number of batches                      ...      299
Average number of points per batch           ...      119
Average number of grid points per atom       ...     1081
UseSFitting                                  ... on

GRIDX 3
-------
General Integration Accuracy     IntAcc      ... 4.338
Radial Grid Type                 RadialGrid  ... OptM3 with GC (2021)
Angular Grid (max. ang.)         AngularGrid ... 3 (Lebedev-194)
Angular grid pruning method      GridPruning ... 4 (adaptive)
Weight generation scheme         WeightScheme... mBecke (2022)
Basis function cutoff            BFCut       ... 1.0000e-11
Integration weight cutoff        WCut        ... 1.0000e-14
Partially contracted basis set               ... on
Rotationally invariant grid construction     ... off
Angular grids for H and He will be reduced by one unit

Total number of grid points                  ...    77414
Total number of batches                      ...      621
Average number of points per batch           ...      124
Average number of grid points per atom       ...     2346
UseSFitting                                  ... on
Initializing property integral containers    ... done (  0.0 sec)

SHARK setup successfully completed in   4.0 seconds

Maximum memory used throughout the entire STARTUP-calculation: 41.1 MB


           ************************************************************
           *        Program running with 40 parallel MPI-processes    *
           *              working on a common directory               *
           ************************************************************
-------------------------------------------------------------------------------
                                 ORCA GUESS
                   Start orbitals & Density for SCF / CASSCF
-------------------------------------------------------------------------------

------------
SCF SETTINGS
------------
Hamiltonian:
 Density Functional     Method          .... DFT(GTOs)
 Exchange Functional    Exchange        .... WB97X-V
 Correlation Functional Correlation     .... WB97X-V
 Gradients option       PostSCFGGA      .... off
 Hybrid DFT is turned on
   Fraction HF Exchange ScalHFX         ....  0.167000
   Scaling of DF-GGA-X  ScalDFX         ....  0.000000
   Scaling of DF-GGA-C  ScalDFC         ....  1.000000
   Scaling of DF-LDA-C  ScalLDAC        ....  1.000000
   Perturbative correction              ....  0.000000
 Long-range corrected/Screened/Range-Separated Hybrid DFT is turned on
   Amount of maximum screened exact exchange              ....  0.833000
   Range separation parameter mu (erf(mu*r12)/r12)        ....  0.300000
   NL short-range parameter             ....  6.000000
   NL long-range parameter              ....  0.010000
 RI-approximation to the Coulomb term is turned on
   Number of AuxJ basis functions       .... 781
   RIJ-COSX (HFX calculated with COS-X)).... on


General Settings:
 Integral files         IntName         .... ./output/dihydro_citronellol/dihydro_citronellol
 Hartree-Fock type      HFTyp           .... RHF
 Total Charge           Charge          ....    0
 Multiplicity           Mult            ....    1
 Number of Electrons    NEL             ....   68
 Basis Dimension        Dim             ....  253
 Nuclear Repulsion      ENuc            ....    367.0751465250 Eh

Convergence Acceleration:
 AO-DIIS                CNVDIIS         .... on
   Start iteration      DIISMaxIt       ....    12
   Startup error        DIISStart       ....  0.200000
   # of expansion vecs  DIISMaxEq       ....     5
   Bias factor          DIISBfac        ....   1.050
   Max. coefficient     DIISMaxC        ....  10.000
 MO-DIIS                CNVKDIIS        .... off
 Trust-Rad. Augm. Hess. CNVTRAH         .... auto
   Auto Start mean grad. ratio tolernc. ....  1.125000
   Auto Start start iteration           ....    50
   Auto Start num. interpolation iter.  ....    10
   Max. Number of Micro iterations      ....    24
   Max. Number of Macro iterations      .... Maxiter - #DIIS iter
   Number of Davidson start vectors     ....     2
   Converg. threshold    (grad. norm)   ....   1.000e-05
   Grad. Scal. Fac. for Micro threshold ....   0.100
   Minimum threshold for Micro iter.    ....   1.000e-02
   NR start threshold (gradient norm)   ....   1.000e-04
   Initial trust radius                 ....   0.400
   Minimum AH scaling param. (alpha)    ....   1.000
   Maximum AH scaling param. (alpha)    .... 1000.000
   Quad. conv. algorithm                .... NR
   White noise on init. David. guess    .... on
   Maximum white noise                  ....   0.010
   Pseudo random numbers                .... off
   Inactive MOs                         .... canonical
   Orbital update algorithm             .... Taylor
   Preconditioner                       .... Diag
   Full preconditioner red. dimension   ....   250
 SOSCF                  CNVSOSCF        .... on
   Start iteration      SOSCFMaxIt      ....   150
   Startup grad/error   SOSCFStart      ....  0.003300
   Hessian update       SOSCFHessUp     .... L-BFGS
 Level Shifting         CNVShift        .... on
   Level shift para.    LevelShift      ....    0.2500
   Turn off err/grad.   ShiftErr        ....    0.0010
 Zerner damping         CNVZerner       .... off
 Static damping         CNVDamp         .... on
   Fraction old density DampFac         ....    0.7000
   Max. Damping (<1)    DampMax         ....    0.9800
   Min. Damping (>=0)   DampMin         ....    0.0000
   Turn off err/grad.   DampErr         ....    0.1000

SCF Procedure:
 Maximum # iterations   MaxIter         ....   125
 SCF integral mode      SCFMode         .... Direct
   Integral package                     .... SHARK and LIBINT hybrid scheme
 Reset frequency        DirectResetFreq ....    20
 Integral Threshold     Thresh          ....  2.500e-11 Eh
 Primitive CutOff       TCut            ....  2.500e-12 Eh

Convergence Tolerance:
 Convergence Check Mode ConvCheckMode   .... Total+1el-Energy
 Convergence forced     ConvForced      .... 0
 Energy Change          TolE            ....  1.000e-08 Eh
 1-El. energy change                    ....  1.000e-05 Eh
 Orbital Gradient       TolG            ....  1.000e-05
 Orbital Rotation angle TolX            ....  1.000e-05
 DIIS Error             TolErr          ....  5.000e-07

------------------------------
INITIAL GUESS: MODEL POTENTIAL
------------------------------
Loading Hartree-Fock densities                     ... done
Atomic calculation to generate a density for atom 0 (C  with ECP)
  Multiplicity assumed   :    1
  Atomic configuration   : 1s2 2s2 2p2 
  Number of open shells  : 1
  Command: /home/aspe232/Project/Software/ORCA/6_0_1/build/orca ./output/dihydro_citronellol/dihydro_citronellol_atom6.inp "" > ./output/dihydro_citronellol/dihydro_citronellol_atom6.out
Returned from the atomic calculation with res=0
Atomic calculation to generate a density for atom 10 (O  with ECP)
  Multiplicity assumed   :    3
  Atomic configuration   : 1s2 2s2 2p4 
  Number of open shells  : 1
  Command: /home/aspe232/Project/Software/ORCA/6_0_1/build/orca ./output/dihydro_citronellol/dihydro_citronellol_atom8.inp "" > ./output/dihydro_citronellol/dihydro_citronellol_atom8.out
Returned from the atomic calculation with res=0
Calculating cut-offs                               ... done
Initializing the effective Hamiltonian             ... done
Setting up the integral package (SHARK)            ... done
Starting the Coulomb interaction                   ... done (   0.1 sec)
Making the grid                                    ... done (   0.9 sec)
Mapping shells                                     ... done
Starting the XC term evaluation                    ... done (   0.1 sec)
  promolecular density results
     # of electrons  =     89.981763941
     EX              =    -43.388293397
     EC              =     -3.570735651
     EX+EC           =    -46.959029048
Transforming the Hamiltonian                       ... done (   0.0 sec)
Diagonalizing the Hamiltonian                      ... done (   0.0 sec)
Back transforming the eigenvectors                 ... done (   0.0 sec)
Now organizing SCF variables                       ... done
                      ------------------
                      INITIAL GUESS DONE (   2.1 sec)
                      ------------------
             **** ENERGY FILE WAS UPDATED (./output/dihydro_citronellol/dihydro_citronellol.en.tmp) ****
Finished Guess after   2.8 sec
Maximum memory used throughout the entire GUESS-calculation: 25.9 MB


           ************************************************************
           *        Program running with 40 parallel MPI-processes    *
           *              working on a common directory               *
           ************************************************************

-------------------------------------------------------------------------------------------
                                      ORCA LEAN-SCF
                              memory conserving SCF solver
-------------------------------------------------------------------------------------------

----------------------------------------D-I-I-S--------------------------------------------
Iteration    Energy (Eh)           Delta-E    RMSDP     MaxDP     DIISErr   Damp  Time(sec)
-------------------------------------------------------------------------------------------
               ***  Starting incremental Fock matrix formation  ***
    1    -85.7361869271702517     0.00e+00  3.30e-03  7.36e-02  2.13e-01  0.700   5.4
    2    -85.9667259326323006    -2.31e-01  2.38e-03  5.26e-02  1.22e-01  0.700   4.1
                               ***Turning on AO-DIIS***
    3    -86.0844973124731041    -1.18e-01  1.14e-03  2.36e-02  6.05e-02  0.700   4.0
    4    -86.1533653272585411    -6.89e-02  2.37e-03  4.82e-02  4.17e-02  0.000   4.1
    5    -86.2978072894320007    -1.44e-01  2.00e-04  4.43e-03  4.18e-03  0.000   4.5
    6    -86.2981295853028882    -3.22e-04  9.41e-05  5.45e-03  3.86e-03  0.000   4.0
                              *** Initializing SOSCF ***
---------------------------------------S-O-S-C-F--------------------------------------
Iteration    Energy (Eh)           Delta-E    RMSDP     MaxDP     MaxGrad    Time(sec)
--------------------------------------------------------------------------------------
    7    -86.2981737606265256    -4.42e-05  4.33e-05  1.77e-03  1.83e-03     4.0
               *** Restarting incremental Fock matrix formation ***
    8    -86.2981515699311785     2.22e-05  1.99e-05  5.37e-04  8.53e-05     5.3
    9    -86.2981526003002841    -1.03e-06  1.02e-05  3.21e-04  2.98e-05     4.8
   10    -86.2981527261143810    -1.26e-07  2.84e-06  6.03e-05  1.35e-05     5.0
   11    -86.2981527428768231    -1.68e-08  6.38e-07  2.56e-05  3.22e-06     4.4
   12    -86.2981527377104953     5.17e-09  2.27e-07  1.33e-05  2.43e-06     4.1
                 **** Energy Check signals convergence ****

               *****************************************************
               *                     SUCCESS                       *
               *           SCF CONVERGED AFTER  12 CYCLES          *
               *****************************************************

Recomputing exchange energy using gridx3       ... done (    5.117 sec)
Old exchange energy                            :    -13.030496585 Eh
New exchange energy                            :    -13.030492956 Eh
Exchange energy change after final integration :      0.000003629 Eh
Total energy after final integration           :    -86.298149109 Eh
             **** ENERGY FILE WAS UPDATED (./output/dihydro_citronellol/dihydro_citronellol.en.tmp) ****

----------------
TOTAL SCF ENERGY
----------------

Total Energy       :        -86.29814910902385 Eh           -2348.29202 eV

Components:
Nuclear Repulsion  :        367.07514652499373 Eh            9988.62255 eV
Electronic Energy  :       -453.37329926270422 Eh          -12336.91467 eV
One Electron Energy:       -856.45298721095946 Eh          -23305.27060 eV
Two Electron Energy:        403.07968794825524 Eh           10968.35593 eV

Virial components:
Potential Energy   :       -154.37579670973903 Eh           -4200.77899 eV
Kinetic Energy     :         68.07764760071518 Eh            1852.48697 eV
Virial Ratio       :          2.26764293641834

DFT components:
N(Alpha)           :       33.999980209512 electrons
N(Beta)            :       33.999980209512 electrons
N(Total)           :       67.999960419024 electrons
E(X)               :      -13.625070765495 Eh       
E(C)               :       -2.522487980701 Eh       
E(XC)              :      -16.147558746196 Eh       

---------------
SCF CONVERGENCE
---------------

  Last Energy change         ...   -5.1663e-09  Tolerance :   1.0000e-08
  Last MAX-Density change    ...    1.3287e-05  Tolerance :   1.0000e-07
  Last RMS-Density change    ...    2.2681e-07  Tolerance :   5.0000e-09
  Last DIIS Error            ...    1.8346e-03  Tolerance :   5.0000e-07
  Last Orbital Gradient      ...    2.4326e-06  Tolerance :   1.0000e-05
  Last Orbital Rotation      ...    3.5287e-06  Tolerance :   1.0000e-05


----------------
ORBITAL ENERGIES
----------------

  NO   OCC          E(Eh)            E(eV) 
   0   2.0000      -1.143233       -31.1089 
   1   2.0000      -0.962673       -26.1957 
   2   2.0000      -0.942439       -25.6451 
   3   2.0000      -0.888371       -24.1738 
   4   2.0000      -0.842479       -22.9250 
   5   2.0000      -0.811633       -22.0857 
   6   2.0000      -0.805536       -21.9198 
   7   2.0000      -0.765903       -20.8413 
   8   2.0000      -0.722960       -19.6727 
   9   2.0000      -0.681768       -18.5519 
  10   2.0000      -0.672161       -18.2904 
  11   2.0000      -0.625659       -17.0250 
  12   2.0000      -0.593419       -16.1477 
  13   2.0000      -0.577597       -15.7172 
  14   2.0000      -0.573414       -15.6034 
  15   2.0000      -0.555335       -15.1114 
  16   2.0000      -0.542474       -14.7615 
  17   2.0000      -0.532061       -14.4781 
  18   2.0000      -0.524407       -14.2698 
  19   2.0000      -0.510981       -13.9045 
  20   2.0000      -0.503440       -13.6993 
  21   2.0000      -0.492755       -13.4085 
  22   2.0000      -0.491131       -13.3644 
  23   2.0000      -0.471125       -12.8200 
  24   2.0000      -0.462215       -12.5775 
  25   2.0000      -0.455140       -12.3850 
  26   2.0000      -0.450261       -12.2522 
  27   2.0000      -0.432714       -11.7748 
  28   2.0000      -0.428448       -11.6586 
  29   2.0000      -0.424835       -11.5604 
  30   2.0000      -0.420729       -11.4486 
  31   2.0000      -0.407462       -11.0876 
  32   2.0000      -0.405166       -11.0251 
  33   2.0000      -0.372628       -10.1397 
  34   0.0000       0.076898         2.0925 
  35   0.0000       0.086050         2.3415 
  36   0.0000       0.091327         2.4851 
  37   0.0000       0.095529         2.5995 
  38   0.0000       0.102263         2.7827 
  39   0.0000       0.113970         3.1013 
  40   0.0000       0.118701         3.2300 
  41   0.0000       0.129444         3.5223 
  42   0.0000       0.136570         3.7163 
  43   0.0000       0.147956         4.0261 
  44   0.0000       0.149179         4.0594 
*Only the first 10 virtual orbitals were printed.

                    ********************************
                    * MULLIKEN POPULATION ANALYSIS *
                    ********************************

-----------------------
MULLIKEN ATOMIC CHARGES
-----------------------
   0 C :   -0.079074
   1 C :   -0.104112
   2 C :   -0.073505
   3 C :   -0.048947
   4 C :   -0.049838
   5 C :   -0.055959
   6 C :   -0.113499
   7 C :   -0.066474
   8 C :   -0.061094
   9 C :    0.085891
  10 O :   -0.333522
  11 H :    0.034646
  12 H :    0.035379
  13 H :    0.033892
  14 H :    0.037723
  15 H :    0.034661
  16 H :    0.035483
  17 H :    0.034033
  18 H :    0.033897
  19 H :    0.024688
  20 H :    0.039293
  21 H :    0.022336
  22 H :    0.034950
  23 H :    0.027019
  24 H :    0.037781
  25 H :    0.038254
  26 H :    0.031699
  27 H :    0.035135
  28 H :    0.026179
  29 H :    0.047819
  30 H :    0.051407
  31 H :    0.033144
  32 H :    0.170716
Sum of atomic charges:   -0.0000000

--------------------------------
MULLIKEN REDUCED ORBITAL CHARGES
--------------------------------
  0 C s       :     0.966315  s :     0.966315
      pz      :     1.016515  p :     3.038002
      px      :     1.020375
      py      :     1.001112
      dz2     :     0.017170  d :     0.074756
      dxz     :     0.010475
      dyz     :     0.015434
      dx2y2   :     0.021396
      dxy     :     0.010281

  1 C s       :     1.061134  s :     1.061134
      pz      :     0.969144  p :     2.917942
      px      :     0.936874
      py      :     1.011925
      dz2     :     0.022249  d :     0.125035
      dxz     :     0.025152
      dyz     :     0.029301
      dx2y2   :     0.028131
      dxy     :     0.020201

  2 C s       :     0.965798  s :     0.965798
      pz      :     0.972972  p :     3.033895
      px      :     1.024911
      py      :     1.036012
      dz2     :     0.013920  d :     0.073812
      dxz     :     0.011037
      dyz     :     0.024042
      dx2y2   :     0.016377
      dxy     :     0.008436

  3 C s       :     1.009680  s :     1.009680
      pz      :     1.033032  p :     2.940794
      px      :     0.919655
      py      :     0.988107
      dz2     :     0.016347  d :     0.098473
      dxz     :     0.016883
      dyz     :     0.022156
      dx2y2   :     0.023492
      dxy     :     0.019595

  4 C s       :     1.005009  s :     1.005009
      pz      :     1.037874  p :     2.946522
      px      :     0.926069
      py      :     0.982579
      dz2     :     0.019720  d :     0.098307
      dxz     :     0.015937
      dyz     :     0.017764
      dx2y2   :     0.025013
      dxy     :     0.019873

  5 C s       :     0.999302  s :     0.999302
      pz      :     0.968800  p :     2.958841
      px      :     0.947465
      py      :     1.042576
      dz2     :     0.016837  d :     0.097816
      dxz     :     0.024848
      dyz     :     0.019038
      dx2y2   :     0.021740
      dxy     :     0.015353

  6 C s       :     1.052404  s :     1.052404
      pz      :     0.999891  p :     2.939267
      px      :     0.981223
      py      :     0.958153
      dz2     :     0.021884  d :     0.121828
      dxz     :     0.028812
      dyz     :     0.022262
      dx2y2   :     0.023332
      dxy     :     0.025537

  7 C s       :     0.960596  s :     0.960596
      pz      :     1.029605  p :     3.032398
      px      :     1.037636
      py      :     0.965158
      dz2     :     0.012083  d :     0.073479
      dxz     :     0.016157
      dyz     :     0.013918
      dx2y2   :     0.011267
      dxy     :     0.020055

  8 C s       :     1.004295  s :     1.004295
      pz      :     1.010650  p :     2.961329
      px      :     0.943811
      py      :     1.006868
      dz2     :     0.024251  d :     0.095469
      dxz     :     0.023519
      dyz     :     0.006017
      dx2y2   :     0.022927
      dxy     :     0.018756

  9 C s       :     1.022091  s :     1.022091
      pz      :     1.006411  p :     2.743278
      px      :     0.791623
      py      :     0.945245
      dz2     :     0.030605  d :     0.148740
      dxz     :     0.036369
      dyz     :     0.013277
      dx2y2   :     0.039552
      dxy     :     0.028937

 10 O s       :     1.666022  s :     1.666022
      pz      :     1.801643  p :     4.635505
      px      :     1.543179
      py      :     1.290683
      dz2     :     0.003536  d :     0.031995
      dxz     :     0.005019
      dyz     :     0.005519
      dx2y2   :     0.008378
      dxy     :     0.009543

 11 H s       :     0.922144  s :     0.922144
      pz      :     0.010114  p :     0.043210
      px      :     0.022040
      py      :     0.011056

 12 H s       :     0.921308  s :     0.921308
      pz      :     0.021129  p :     0.043314
      px      :     0.011736
      py      :     0.010449

 13 H s       :     0.923276  s :     0.923276
      pz      :     0.012666  p :     0.042831
      px      :     0.009763
      py      :     0.020402

 14 H s       :     0.922251  s :     0.922251
      pz      :     0.012671  p :     0.040026
      px      :     0.008842
      py      :     0.018512

 15 H s       :     0.922455  s :     0.922455
      pz      :     0.014629  p :     0.042884
      px      :     0.009836
      py      :     0.018419

 16 H s       :     0.921159  s :     0.921159
      pz      :     0.010105  p :     0.043358
      px      :     0.022528
      py      :     0.010725

 17 H s       :     0.921627  s :     0.921627
      pz      :     0.013065  p :     0.044340
      px      :     0.013129
      py      :     0.018146

 18 H s       :     0.925062  s :     0.925062
      pz      :     0.014352  p :     0.041041
      px      :     0.008683
      py      :     0.018007

 19 H s       :     0.932409  s :     0.932409
      pz      :     0.020678  p :     0.042903
      px      :     0.011609
      py      :     0.010616

 20 H s       :     0.917864  s :     0.917864
      pz      :     0.021411  p :     0.042843
      px      :     0.011435
      py      :     0.009997

 21 H s       :     0.934752  s :     0.934752
      pz      :     0.013559  p :     0.042912
      px      :     0.009936
      py      :     0.019416

 22 H s       :     0.923291  s :     0.923291
      pz      :     0.014773  p :     0.041759
      px      :     0.012971
      py      :     0.014016

 23 H s       :     0.931182  s :     0.931182
      pz      :     0.010814  p :     0.041800
      px      :     0.009172
      py      :     0.021814

 24 H s       :     0.921279  s :     0.921279
      pz      :     0.015577  p :     0.040940
      px      :     0.014598
      py      :     0.010765

 25 H s       :     0.918628  s :     0.918628
      pz      :     0.019336  p :     0.043117
      px      :     0.013976
      py      :     0.009805

 26 H s       :     0.924688  s :     0.924688
      pz      :     0.016998  p :     0.043613
      px      :     0.013656
      py      :     0.012958

 27 H s       :     0.920553  s :     0.920553
      pz      :     0.010800  p :     0.044312
      px      :     0.019567
      py      :     0.013945

 28 H s       :     0.932000  s :     0.932000
      pz      :     0.009743  p :     0.041821
      px      :     0.010628
      py      :     0.021450

 29 H s       :     0.911280  s :     0.911280
      pz      :     0.020718  p :     0.040901
      px      :     0.011519
      py      :     0.008665

 30 H s       :     0.908943  s :     0.908943
      pz      :     0.010292  p :     0.039650
      px      :     0.008705
      py      :     0.020654

 31 H s       :     0.926223  s :     0.926223
      pz      :     0.022041  p :     0.040633
      px      :     0.010690
      py      :     0.007902

 32 H s       :     0.731081  s :     0.731081
      pz      :     0.034975  p :     0.098203
      px      :     0.026326
      py      :     0.036902



                     *******************************
                     * LOEWDIN POPULATION ANALYSIS *
                     *******************************

----------------------
LOEWDIN ATOMIC CHARGES
----------------------
   0 C :   -0.120129
   1 C :   -0.087702
   2 C :   -0.117750
   3 C :   -0.081330
   4 C :   -0.082816
   5 C :   -0.083117
   6 C :   -0.076660
   7 C :   -0.116209
   8 C :   -0.088195
   9 C :   -0.058331
  10 O :   -0.095811
  11 H :    0.045749
  12 H :    0.045551
  13 H :    0.045448
  14 H :    0.046719
  15 H :    0.045344
  16 H :    0.047396
  17 H :    0.043322
  18 H :    0.044812
  19 H :    0.042082
  20 H :    0.045188
  21 H :    0.042313
  22 H :    0.043533
  23 H :    0.045540
  24 H :    0.045977
  25 H :    0.049111
  26 H :    0.042101
  27 H :    0.043953
  28 H :    0.042079
  29 H :    0.051243
  30 H :    0.053625
  31 H :    0.039289
  32 H :    0.057677

-------------------------------
LOEWDIN REDUCED ORBITAL CHARGES
-------------------------------
  0 C s       :     0.780608  s :     0.780608
      pz      :     1.038192  p :     3.094701
      px      :     1.035896
      py      :     1.020613
      dz2     :     0.057382  d :     0.244820
      dxz     :     0.033930
      dyz     :     0.050260
      dx2y2   :     0.070797
      dxy     :     0.032451

  1 C s       :     0.760143  s :     0.760143
      pz      :     0.975719  p :     2.940318
      px      :     0.954227
      py      :     1.010372
      dz2     :     0.068618  d :     0.387241
      dxz     :     0.077353
      dyz     :     0.091954
      dx2y2   :     0.088332
      dxy     :     0.060985

  2 C s       :     0.779825  s :     0.779825
      pz      :     0.991907  p :     3.095213
      px      :     1.043910
      py      :     1.059396
      dz2     :     0.045334  d :     0.242712
      dxz     :     0.035244
      dyz     :     0.081321
      dx2y2   :     0.053381
      dxy     :     0.027433

  3 C s       :     0.766811  s :     0.766811
      pz      :     1.045345  p :     2.998454
      px      :     0.952606
      py      :     1.000502
      dz2     :     0.052430  d :     0.316066
      dxz     :     0.054625
      dyz     :     0.072123
      dx2y2   :     0.076291
      dxy     :     0.060596

  4 C s       :     0.765467  s :     0.765467
      pz      :     1.047358  p :     3.001745
      px      :     0.948433
      py      :     1.005954
      dz2     :     0.062620  d :     0.315604
      dxz     :     0.051809
      dyz     :     0.058077
      dx2y2   :     0.080391
      dxy     :     0.062708

  5 C s       :     0.766449  s :     0.766449
      pz      :     0.988286  p :     3.003174
      px      :     0.968166
      py      :     1.046722
      dz2     :     0.052684  d :     0.313494
      dxz     :     0.081325
      dyz     :     0.062256
      dx2y2   :     0.068963
      dxy     :     0.048266

  6 C s       :     0.759644  s :     0.759644
      pz      :     0.993200  p :     2.938690
      px      :     0.981427
      py      :     0.964062
      dz2     :     0.066433  d :     0.378326
      dxz     :     0.090609
      dyz     :     0.070868
      dx2y2   :     0.071396
      dxy     :     0.079021

  7 C s       :     0.778694  s :     0.778694
      pz      :     1.056694  p :     3.095343
      px      :     1.057487
      py      :     0.981163
      dz2     :     0.038805  d :     0.242171
      dxz     :     0.052457
      dyz     :     0.047841
      dx2y2   :     0.036029
      dxy     :     0.067039

  8 C s       :     0.773756  s :     0.773756
      pz      :     1.023104  p :     3.004595
      px      :     0.965903
      py      :     1.015588
      dz2     :     0.080690  d :     0.309844
      dxz     :     0.074082
      dyz     :     0.019756
      dx2y2   :     0.075419
      dxy     :     0.059897

  9 C s       :     0.762964  s :     0.762964
      pz      :     1.033301  p :     2.854315
      px      :     0.865349
      py      :     0.955666
      dz2     :     0.098179  d :     0.441052
      dxz     :     0.103261
      dyz     :     0.035452
      dx2y2   :     0.115463
      dxy     :     0.088696

 10 O s       :     1.390037  s :     1.390037
      pz      :     1.722095  p :     4.627246
      px      :     1.555164
      py      :     1.349987
      dz2     :     0.006959  d :     0.078528
      dxz     :     0.010603
      dyz     :     0.015006
      dx2y2   :     0.025311
      dxy     :     0.020650

 11 H s       :     0.808924  s :     0.808924
      pz      :     0.039744  p :     0.145327
      px      :     0.064091
      py      :     0.041493

 12 H s       :     0.808948  s :     0.808948
      pz      :     0.061520  p :     0.145501
      px      :     0.043318
      py      :     0.040662

 13 H s       :     0.809637  s :     0.809637
      pz      :     0.045140  p :     0.144916
      px      :     0.039391
      py      :     0.060384

 14 H s       :     0.806039  s :     0.806039
      pz      :     0.047579  p :     0.147242
      px      :     0.037313
      py      :     0.062351

 15 H s       :     0.809797  s :     0.809797
      pz      :     0.048542  p :     0.144859
      px      :     0.039549
      py      :     0.056768

 16 H s       :     0.806901  s :     0.806901
      pz      :     0.039025  p :     0.145703
      px      :     0.065163
      py      :     0.041516

 17 H s       :     0.807729  s :     0.807729
      pz      :     0.045834  p :     0.148948
      px      :     0.047486
      py      :     0.055628

 18 H s       :     0.810291  s :     0.810291
      pz      :     0.049424  p :     0.144897
      px      :     0.036072
      py      :     0.059401

 19 H s       :     0.808291  s :     0.808291
      pz      :     0.063507  p :     0.149628
      px      :     0.042619
      py      :     0.043502

 20 H s       :     0.805524  s :     0.805524
      pz      :     0.065207  p :     0.149289
      px      :     0.042660
      py      :     0.041421

 21 H s       :     0.809290  s :     0.809290
      pz      :     0.048161  p :     0.148397
      px      :     0.038675
      py      :     0.061561

 22 H s       :     0.808203  s :     0.808203
      pz      :     0.051801  p :     0.148264
      px      :     0.047248
      py      :     0.049215

 23 H s       :     0.808039  s :     0.808039
      pz      :     0.042678  p :     0.146421
      px      :     0.037565
      py      :     0.066178

 24 H s       :     0.802443  s :     0.802443
      pz      :     0.054425  p :     0.151580
      px      :     0.053127
      py      :     0.044028

 25 H s       :     0.805275  s :     0.805275
      pz      :     0.058583  p :     0.145614
      px      :     0.048505
      py      :     0.038526

 26 H s       :     0.810532  s :     0.810532
      pz      :     0.054033  p :     0.147367
      px      :     0.047901
      py      :     0.045433

 27 H s       :     0.807316  s :     0.807316
      pz      :     0.041930  p :     0.148731
      px      :     0.059878
      py      :     0.046923

 28 H s       :     0.811513  s :     0.811513
      pz      :     0.040438  p :     0.146408
      px      :     0.039020
      py      :     0.066950

 29 H s       :     0.804345  s :     0.804345
      pz      :     0.064749  p :     0.144413
      px      :     0.041385
      py      :     0.038278

 30 H s       :     0.809956  s :     0.809956
      pz      :     0.039990  p :     0.136419
      px      :     0.032928
      py      :     0.063500

 31 H s       :     0.821339  s :     0.821339
      pz      :     0.067552  p :     0.139372
      px      :     0.036903
      py      :     0.034917

 32 H s       :     0.635977  s :     0.635977
      pz      :     0.105624  p :     0.306346
      px      :     0.084453
      py      :     0.116270



                      *****************************
                      * MAYER POPULATION ANALYSIS *
                      *****************************

  NA   - Mulliken gross atomic population
  ZA   - Total nuclear charge
[...]
 53:   1355.19   0.000604    3.05  0.000139  ( 0.009819  0.005096  0.004099)
 54:   1361.57   0.000070    0.35  0.000016  ( 0.002233  0.001222 -0.003101)
 55:   1381.13   0.000278    1.41  0.000063  ( 0.007522  0.002416 -0.000698)
 56:   1400.02   0.000028    0.14  0.000006  ( 0.000277 -0.002426  0.000445)
 57:   1407.61   0.000496    2.51  0.000110  (-0.010468 -0.000194  0.000598)
 58:   1412.68   0.003655   18.47  0.000807  ( 0.027856  0.004162  0.003750)
 59:   1417.29   0.000041    0.21  0.000009  ( 0.000005 -0.002518 -0.001620)
 60:   1441.65   0.003145   15.89  0.000681  (-0.000638  0.006691  0.025210)
 61:   1447.61   0.001157    5.85  0.000249  ( 0.006625 -0.012934  0.006178)
 62:   1451.75   0.002190   11.07  0.000471  ( 0.021627  0.001298 -0.001176)
 63:   1455.40   0.002353   11.89  0.000504  ( 0.001021 -0.020559  0.008982)
 64:   1460.02   0.001612    8.14  0.000344  ( 0.009225  0.011139 -0.011631)
 65:   1472.87   0.002630   13.29  0.000557  ( 0.022750  0.004203  0.004697)
 66:   1506.31   0.000111    0.56  0.000023  (-0.002215 -0.004050 -0.001330)
 67:   1512.99   0.000089    0.45  0.000018  (-0.003559 -0.001000  0.002151)
 68:   1518.53   0.000056    0.28  0.000012  (-0.001803 -0.002689  0.001040)
 69:   1519.51   0.000718    3.63  0.000147  (-0.003334 -0.008647  0.007846)
 70:   1524.94   0.000217    1.10  0.000045  ( 0.000602 -0.005254 -0.004067)
 71:   1527.50   0.003175   16.05  0.000649  ( 0.006924  0.013702  0.020323)
 72:   1531.41   0.001999   10.10  0.000407  ( 0.017002  0.001879 -0.010714)
 73:   1534.45   0.001304    6.59  0.000265  ( 0.012437 -0.009829  0.003739)
 74:   1541.35   0.003840   19.40  0.000777  (-0.013700 -0.023849 -0.004575)
 75:   1543.96   0.001022    5.16  0.000207  ( 0.008301  0.008775 -0.007786)
 76:   1550.07   0.000238    1.20  0.000048  ( 0.000556 -0.006857 -0.000695)
 77:   3067.75   0.001629    8.23  0.000166  ( 0.006547  0.006190  0.009192)
 78:   3074.37   0.004929   24.91  0.000500  ( 0.004012  0.021513  0.004631)
 79:   3076.09   0.001674    8.46  0.000170  (-0.000416 -0.012785  0.002486)
 80:   3079.44   0.012336   62.34  0.001250  (-0.020709 -0.025400  0.013267)
 81:   3090.16   0.005969   30.16  0.000603  ( 0.009584 -0.009854 -0.020342)
 82:   3093.82   0.008750   44.22  0.000883  ( 0.004092  0.017191  0.023881)
 83:   3095.14   0.005863   29.63  0.000591  ( 0.016668 -0.006646  0.016405)
 84:   3096.30   0.005374   27.16  0.000542  ( 0.009935 -0.020301  0.005549)
 85:   3098.40   0.004032   20.38  0.000406  (-0.000607  0.019896  0.003150)
 86:   3100.48   0.001670    8.44  0.000168  ( 0.011608  0.004329  0.003820)
 87:   3127.19   0.001130    5.71  0.000113  ( 0.003413 -0.006334  0.007808)
 88:   3136.91   0.009504   48.03  0.000945  ( 0.009425 -0.025758 -0.013899)
 89:   3138.41   0.003800   19.20  0.000378  (-0.006491 -0.000186 -0.018321)
 90:   3152.70   0.010185   51.47  0.001008  (-0.011152  0.017705 -0.023880)
 91:   3176.15   0.000859    4.34  0.000084  (-0.003182  0.001625 -0.008466)
 92:   3179.67   0.008425   42.58  0.000827  (-0.012144 -0.024566  0.008710)
 93:   3180.96   0.006647   33.59  0.000652  (-0.001377 -0.002381  0.025387)
 94:   3186.44   0.005738   29.00  0.000562  ( 0.019436  0.003718  0.013051)
 95:   3186.85   0.003076   15.55  0.000301  (-0.004561 -0.016646  0.001832)
 96:   3190.78   0.004434   22.41  0.000434  (-0.020523  0.003377 -0.001038)
 97:   3197.86   0.004449   22.48  0.000434  (-0.014197  0.010299  0.011248)
 98:   3962.44   0.008764   44.29  0.000690  (-0.007991 -0.022613  0.010725)

* The epsilon (eps) is given for a Dirac delta lineshape.
** The dipole moment derivative (T) already includes vibrational overlap.

The first frequency considered to be a vibration is 6
The total number of vibrations considered is 93


--------------------------
THERMOCHEMISTRY AT 298.15K
--------------------------

Temperature         ...   298.15 K
Pressure            ...     1.00 atm
Total Mass          ...   158.28 AMU
Quasi RRHO          ...     True
Cut-Off Frequency   ...     1.00 cm^-1

Throughout the following assumptions are being made:
  (1) The electronic state is orbitally nondegenerate
  (2) There are no thermally accessible electronically excited states
  (3) Hindered rotations indicated by low frequency modes are not
      treated as such but are treated as vibrations and this may
      cause some error
  (4) All equations used are the standard statistical mechanics
      equations for an ideal gas
  (5) All vibrations are strictly harmonic

freq.      30.91  E(vib)   ...       0.55 
freq.      33.52  E(vib)   ...       0.55 
freq.      69.39  E(vib)   ...       0.50 
freq.      75.60  E(vib)   ...       0.49 
freq.     104.91  E(vib)   ...       0.46 
freq.     116.55  E(vib)   ...       0.44 
freq.     186.43  E(vib)   ...       0.37 
freq.     209.17  E(vib)   ...       0.34 
freq.     226.29  E(vib)   ...       0.33 
freq.     234.39  E(vib)   ...       0.32 
freq.     257.91  E(vib)   ...       0.30 
freq.     263.26  E(vib)   ...       0.29 
freq.     278.76  E(vib)   ...       0.28 
freq.     305.77  E(vib)   ...       0.26 
freq.     370.54  E(vib)   ...       0.21 
freq.     389.34  E(vib)   ...       0.20 
freq.     397.98  E(vib)   ...       0.20 
freq.     436.50  E(vib)   ...       0.17 
freq.     456.08  E(vib)   ...       0.16 
freq.     496.53  E(vib)   ...       0.14 
freq.     618.80  E(vib)   ...       0.09 
freq.     752.91  E(vib)   ...       0.06 
freq.     795.31  E(vib)   ...       0.05 
freq.     836.10  E(vib)   ...       0.04 
freq.     856.54  E(vib)   ...       0.04 
freq.     888.17  E(vib)   ...       0.04 
freq.     949.51  E(vib)   ...       0.03 
freq.     957.20  E(vib)   ...       0.03 
freq.     981.53  E(vib)   ...       0.02 
freq.     992.74  E(vib)   ...       0.02 
freq.    1001.38  E(vib)   ...       0.02 
freq.    1015.41  E(vib)   ...       0.02 
freq.    1032.84  E(vib)   ...       0.02 
freq.    1050.92  E(vib)   ...       0.02 
freq.    1103.34  E(vib)   ...       0.02 
freq.    1120.59  E(vib)   ...       0.01 
freq.    1129.82  E(vib)   ...       0.01 
freq.    1138.14  E(vib)   ...       0.01 
freq.    1150.36  E(vib)   ...       0.01 
freq.    1187.69  E(vib)   ...       0.01 
freq.    1222.04  E(vib)   ...       0.01 
freq.    1227.06  E(vib)   ...       0.01 
freq.    1243.96  E(vib)   ...       0.01 
freq.    1268.92  E(vib)   ...       0.01 
freq.    1291.38  E(vib)   ...       0.01 
freq.    1332.59  E(vib)   ...       0.01 
freq.    1336.63  E(vib)   ...       0.01 
freq.    1355.19  E(vib)   ...       0.01 
freq.    1361.57  E(vib)   ...       0.01 
freq.    1381.13  E(vib)   ...       0.01 
freq.    1400.02  E(vib)   ...       0.00 
freq.    1407.61  E(vib)   ...       0.00 
freq.    1412.68  E(vib)   ...       0.00 
freq.    1417.29  E(vib)   ...       0.00 
freq.    1441.65  E(vib)   ...       0.00 
freq.    1447.61  E(vib)   ...       0.00 
freq.    1451.75  E(vib)   ...       0.00 
freq.    1455.40  E(vib)   ...       0.00 
freq.    1460.02  E(vib)   ...       0.00 
freq.    1472.87  E(vib)   ...       0.00 
freq.    1506.31  E(vib)   ...       0.00 
freq.    1512.99  E(vib)   ...       0.00 
freq.    1518.53  E(vib)   ...       0.00 
freq.    1519.51  E(vib)   ...       0.00 
freq.    1524.94  E(vib)   ...       0.00 
freq.    1527.50  E(vib)   ...       0.00 
freq.    1531.41  E(vib)   ...       0.00 
freq.    1534.45  E(vib)   ...       0.00 
freq.    1541.35  E(vib)   ...       0.00 
freq.    1543.96  E(vib)   ...       0.00 
freq.    1550.07  E(vib)   ...       0.00 
freq.    3067.75  E(vib)   ...       0.00 
freq.    3074.37  E(vib)   ...       0.00 
freq.    3076.09  E(vib)   ...       0.00 
freq.    3079.44  E(vib)   ...       0.00 
freq.    3090.16  E(vib)   ...       0.00 
freq.    3093.82  E(vib)   ...       0.00 
freq.    3095.14  E(vib)   ...       0.00 
freq.    3096.30  E(vib)   ...       0.00 
freq.    3098.40  E(vib)   ...       0.00 
freq.    3100.48  E(vib)   ...       0.00 
freq.    3127.19  E(vib)   ...       0.00 
freq.    3136.91  E(vib)   ...       0.00 
freq.    3138.41  E(vib)   ...       0.00 
freq.    3152.70  E(vib)   ...       0.00 
freq.    3176.15  E(vib)   ...       0.00 
freq.    3179.67  E(vib)   ...       0.00 
freq.    3180.96  E(vib)   ...       0.00 
freq.    3186.44  E(vib)   ...       0.00 
freq.    3186.85  E(vib)   ...       0.00 
freq.    3190.78  E(vib)   ...       0.00 
freq.    3197.86  E(vib)   ...       0.00 
freq.    3962.44  E(vib)   ...       0.00 

------------
INNER ENERGY
------------

The inner energy is: U= E(el) + E(ZPE) + E(vib) + E(rot) + E(trans)
    E(el)   - is the total energy from the electronic structure calculation
              = E(kin-el) + E(nuc-el) + E(el-el) + E(nuc-nuc)
    E(ZPE)  - the the zero temperature vibrational energy from the frequency calculation
    E(vib)  - the the finite temperature correction to E(ZPE) due to population
              of excited vibrational states
    E(rot)  - is the rotational thermal energy
    E(trans)- is the translational thermal energy

Summary of contributions to the inner energy U:
Electronic energy                ...    -86.34171862 Eh
Zero point energy                ...      0.31526617 Eh     197.83 kcal/mol
Thermal vibrational correction   ...      0.01161192 Eh       7.29 kcal/mol
Thermal rotational correction    ...      0.00141627 Eh       0.89 kcal/mol
Thermal translational correction ...      0.00141627 Eh       0.89 kcal/mol
-----------------------------------------------------------------------
Total thermal energy                    -86.01200799 Eh


Summary of corrections to the electronic energy:
(perhaps to be used in another calculation)
Total thermal correction                  0.01444446 Eh       9.06 kcal/mol
Non-thermal (ZPE) correction              0.31526617 Eh     197.83 kcal/mol
-----------------------------------------------------------------------
Total correction                          0.32971063 Eh     206.90 kcal/mol


--------
ENTHALPY
--------

The enthalpy is H = U + kB*T
                kB is Boltzmann's constant
Total thermal energy              ...    -86.01200799 Eh 
Thermal Enthalpy correction       ...      0.00094421 Eh       0.59 kcal/mol
-----------------------------------------------------------------------
Total Enthalpy                    ...    -86.01106378 Eh


Note: Only C1 symmetry has been detected, increase convergence thresholds 
      if your molecule has a higher symmetry. Symmetry factor of 1.0 is   
      used for the rotational entropy correction. 
 

Note: Rotational entropy computed according to Herzberg 
Infrared and Raman Spectra, Chapter V,1, Van Nostrand Reinhold, 1945 
Point Group:  C1, Symmetry Number:   1  
Rotational constants in cm-1:     0.092159     0.011166     0.010813 

Vibrational entropy computed according to the QRRHO of S. Grimme
Chem.Eur.J. 2012 18 9955 using a reference frequency of 100.0 cm-1


-------
ENTROPY
-------

The entropy contributions are T*S = T*(S(el)+S(vib)+S(rot)+S(trans))
     S(el)   - electronic entropy
     S(vib)  - vibrational entropy
     S(rot)  - rotational entropy
     S(trans)- translational entropy
The entropies will be listed as multiplied by the temperature to get
units of energy

Electronic entropy                ...      0.00000000 Eh      0.00 kcal/mol
Vibrational entropy               ...      0.02068677 Eh     12.98 kcal/mol
Rotational entropy                ...      0.01489551 Eh      9.35 kcal/mol
Translational entropy             ...      0.01952163 Eh     12.25 kcal/mol
-----------------------------------------------------------------------
Final entropy term                ...      0.05510392 Eh     34.58 kcal/mol

In case the symmetry of your molecule has not been determined correctly
or in case you have a reason to use a different symmetry number we print 
out the resulting rotational entropy values for sn=1,12:

 non-linear molecules -----------------------------------
|  sn= 1 | S(rot)=       0.01489551 Eh      9.35 kcal/mol|
|  sn= 2 | S(rot)=       0.01424106 Eh      8.94 kcal/mol|
|  sn= 3 | S(rot)=       0.01385823 Eh      8.70 kcal/mol|
|  sn= 4 | S(rot)=       0.01358660 Eh      8.53 kcal/mol|
|  sn= 5 | S(rot)=       0.01337591 Eh      8.39 kcal/mol|
|  sn= 6 | S(rot)=       0.01320377 Eh      8.29 kcal/mol|
|  sn= 7 | S(rot)=       0.01305822 Eh      8.19 kcal/mol|
|  sn= 8 | S(rot)=       0.01293214 Eh      8.12 kcal/mol|
|  sn= 9 | S(rot)=       0.01282094 Eh      8.05 kcal/mol|
|  sn=10 | S(rot)=       0.01272146 Eh      7.98 kcal/mol|
|  sn=11 | S(rot)=       0.01263147 Eh      7.93 kcal/mol|
|  sn=12 | S(rot)=       0.01254931 Eh      7.87 kcal/mol|
 linear molecules ---------------------------------------
|  Dinfh | S(rot)=       0.00960008 Eh      6.02 kcal/mol|
|  Cinfv | S(rot)=       0.01025453 Eh      6.43 kcal/mol|
 --------------------------------------------------------


-------------------
GIBBS FREE ENERGY
-------------------

The Gibbs free energy is G = H - T*S

Total enthalpy                    ...    -86.01106378 Eh 
Total entropy correction          ...     -0.05510392 Eh    -34.58 kcal/mol
-----------------------------------------------------------------------
Final Gibbs free energy         ...    -86.06616770 Eh

For completeness - the Gibbs free energy minus the electronic energy
G-E(el)                           ...      0.27555092 Eh    172.91 kcal/mol


Maximum memory used throughout the entire PROP-calculation: 166.6 MB

--------------------------------
SUGGESTED CITATIONS FOR THIS RUN
--------------------------------

Below you find a list of papers that are relevant to this ORCA run
We neither can nor want to force you to cite these papers, but we appreciate if you do
You receive ORCA, which is the product of decades of hard work by many enthusiastic individuals, for free
The only thing we kindly ask in return is that you cite our papers,
We deeply appreciate it, if you show your appreciation for ORCA by not just citing the generic ORCA reference.

Please note that relegating all ORCA citations to the supporting information does *not* help us.
SI sections are not indexed - citations you put there will not count into any citation statistics
But we need these citations in order to attract the funding resources that allow us to do what we are doing

Therefore, if you are a happy ORCA user, please consider citing a few of the papers listed below in the main body of your paper

In addition to the list printed below, the program has created the file ./output/dihydro_citronellol/dihydro_citronellol.bibtex that contains the list in bibtex format
You can import this file easily into all common literature databanks and citation aid programs


List of essential papers. We consider these as the minimum necessary citations

  1. Neese,F.
     Software update: the ORCA program system, version 5.0
     WIRES Comput. Molec. Sci., 2022 12(1)e1606
     doi.org/10.1002/wcms.1606
  2. Mueller,M.; Hansen,A.; Grimme,S.
     wB97X-3c: A composite range-separated hybrid DFT method with a molecule-optimized polarized valence double-zeta basis set
     J. Chem. Phys., 2023 158 014103
     doi.org/10.1063/5.0133026

List of papers to cite with high priority. The work reported in these papers was absolutely
necessary for this run to complete.
Our perspective: the developers of density functionals and basis sets usually get cited in chemistry papers
Good! But without the algorithms to do something with them, the functionals or basis sets would not do anything.
Hence, in our opinion, the algorithm design and method developments papers are equally worthy of getting cited

  1. Neese,F.
     An improvement of the resolution of the identity approximation for the formation of the Coulomb matrix
     J. Comp. Chem., 2003 24(14)1740-1747
     doi.org/10.1002/jcc.10318
  2. Neese,F.; Wennmohs,F.; Hansen,A.; Becker,U.
     Efficient, approximate and parallel Hartree-Fock and hybrid DFT calculations. A 'chain-of-spheres' algorithm for the Hartree-Fock exchange
     Chem. Phys., 2009 356(1-3)98-109
     doi.org/10.1016/j.chemphys.2008.10.036
  3. Bykov,D.; Petrenko,T.; Izsak,R.; Kossmann,S.; Becker,U.; Valeev,E.; Neese,F.
     Efficient implementation of the analytic second derivatives of Hartree-Fock and hybrid DFT energies: a detailed analysis of different approximations
     Molec. Phys., 2015 113 1961-1977
     doi.org/10.1080/00268976.2015.1025114
  4. Helmich-Paris,B.; de Souza,B.; Neese,F.; Izsák,R.
     An improved chain of spheres for exchange algorithm
     J. Chem. Phys., 2021 155 104109
     doi.org/doi: 10.1063/5.0058766.
  5. Neese,F.
     The SHARK Integral Generation and Digestion System
     J. Comp. Chem., 2022  1-16
     doi.org/10.1002/jcc.26942
  6. Caldeweyher,E.; Bannwarth,C.; Grimme,S.
     Extension of the D3 dispersion coefficient model
     J. Chem. Phys., 2017 147 034112
     doi.org/10.1063/1.4993215
  7. Caldeweyher,E.; Ehlert,S.; Hansen,A.; Neugebauer,H.; Spicher,S.; Bannwarth,C.; Grimme,S.
     A generally applicable atomic-charge dependent London dispersion correction
     J. Chem. Phys., 2019 150 154122
     doi.org/10.1063/1.5090222
  8. Caldeweyher,E.; Mewes,J.; Ehlert,S.; Grimme,S.
     Extension and evaluation of the D4 London-dispersion model for periodic systems
     Phys. Chem. Chem. Phys., 2020 22(16)8499-8512
     doi.org/10.1039/D0CP00502A
  9. Wittmann,L.; Gordiy,I.; Friede,M.; Helmich-Paris,B.; Grimme,S.; Hansen,A.; Bursch,M.
     Extension of the D3 and D4 London Dispersion Corrections to the full Actinides Series
     Phys. Chem. Chem. Phys., 2024 26(32)21379-21394
     doi.org/https://doi.org/10.1039/D4CP01514B 

List of suggested additional citations. These are papers that are important in the 'surrounding' of 
of this run, or papers that preceded the highly important papers. If you like your results we are grateful for a citation.

  1. Izsak,R.; Neese,F.
     An overlap fitted chain of spheres exchange method
     J. Chem. Phys., 2011 135 144105
     doi.org/10.1063/1.3646921
  2. Izsak,R.; Hansen,A.; Neese,F.
     The resolution of identity and chain of spheres approximations for the LPNO-CCSD singles Fock term
     Molec. Phys., 2012 110 2413-2417
     doi.org/10.1080/00268976.2012.687466
  3. Neese,F.
     The ORCA program system
     WIRES Comput. Molec. Sci., 2012 2(1)73-78
     doi.org/10.1002/wcms.81
  4. Izsak,R.; Neese,F.; Klopper,W.
     Robust fitting techniques in the chain of spheres approximation to the Fock exchange: The role of the complementary space
     J. Chem. Phys., 2013 139 
     doi.org/10.1063/1.4819264
  5. Neese,F.
     Software update: the ORCA program system, version 4.0
     WIRES Comput. Molec. Sci., 2018 8(1)1-6
     doi.org/10.1002/wcms.1327
  6. Neese,F.; Wennmohs,F.; Becker,U.; Riplinger,C.
     The ORCA quantum chemistry program package
     J. Chem. Phys., 2020 152 Art. No. L224108
     doi.org/10.1063/5.0004608

List of optional additional citations

  1. Neese,F.
     Approximate second-order SCF convergence for spin unrestricted wavefunctions
     Chem. Phys. Lett., 2000 325(1-3)93-98
     doi.org/10.1016/s0009-2614(00)00662-x

Timings for individual modules:

Sum of individual times          ...     1285.519 sec (=  21.425 min)
Startup calculation              ...       68.795 sec (=   1.147 min)   5.4 %
SCF iterations                   ...      830.950 sec (=  13.849 min)  64.6 %
Property integrals               ...       79.727 sec (=   1.329 min)   6.2 %
SCF Response                     ...       43.850 sec (=   0.731 min)   3.4 %
Property calculations            ...       98.935 sec (=   1.649 min)   7.7 %
SCF Gradient evaluation          ...      162.976 sec (=   2.716 min)  12.7 %
Geometry relaxation              ...        0.285 sec (=   0.005 min)   0.0 %
                             ****ORCA TERMINATED NORMALLY****
TOTAL RUN TIME: 0 days 0 hours 21 minutes 33 seconds 457 msec
