
                                 *****************
                                 * O   R   C   A *
                                 *****************

                                            #,                                       
                                            ###                                      
                                            ####                                     
                                            #####                                    
                                            ######                                   
                                           ########,                                 
                                     ,,################,,,,,                         
                               ,,#################################,,                 
                          ,,##########################################,,             
                       ,#########################################, ''#####,          
                    ,#############################################,,   '####,        
                  ,##################################################,,,,####,       
                ,###########''''           ''''###############################       
              ,#####''   ,,,,##########,,,,          '''####'''          '####       
            ,##' ,,,,###########################,,,                        '##       
           ' ,,###''''                  '''############,,,                           
         ,,##''                                '''############,,,,        ,,,,,,###''
      ,#''                                            '''#######################'''  
     '                                                          ''''####''''         
             ,#######,   #######,   ,#######,      ##                                
            ,#'     '#,  ##    ##  ,#'     '#,    #''#        ,####,   ,####,        
            ##       ##  ##   ,#'  ##            #'  '#       #'       #'  '#        
            ##       ##  #######   ##           ,######,      #####,   #    #        
            '#,     ,#'  ##    ##  '#,     ,#' ,#      #,     #,   #   #,  ,#        
             '#######'   ##     ##  '#######'  #'      '#     '####' # '####'        



                #########################################################
                #                        -***-                          #
                #          Department of theory and spectroscopy        #
                #                                                       #
                #                      Frank Neese                      #
                #                                                       #
                #     Directorship, Architecture, Infrastructure        #
                #                    SHARK, DRIVERS                     #
                #        Core code/Algorithms in most modules           #
                #                                                       #
                #        Max Planck Institute fuer Kohlenforschung      #
                #                Kaiser Wilhelm Platz 1                 #
                #                 D-45470 Muelheim/Ruhr                 #
                #                      Germany                          #
                #                                                       #
                #                  All rights reserved                  #
                #                        -***-                          #
                #########################################################


                         Program Version 6.0.1  -  RELEASE   -


 With contributions from (in alphabetic order):
[Max-Planck-Institut fuer Kohlenforschung]                               
  Daniel Aravena         : Magnetic Suceptibility                        
  Michael Atanasov       : Ab Initio Ligand Field Theory (pilot matlab implementation)
  Alexander A. Auer      : GIAO ZORA, VPT2 properties, NMR spectrum      
  Ute Becker             : All parallelization in ORCA, NUMFREQ, NUMCALC 
  Giovanni Bistoni       : ED, misc. LED, open-shell LED, HFLD           
  Martin Brehm           : Molecular dynamics                            
  Dmytro Bykov           : pre 5.0 version of the SCF Hessian            
  Marcos Casanova-Páez   : Triplet and SCS-CIS(D). UHF-(DLPNO)-IP/EA/STEOM-CCSD. UHF-CVS-IP/STEOM-CCSD   
  Vijay G. Chilkuri      : MRCI spin determinant printing, contributions to CSF-ICE 
  Pauline Colinet        : FMM embedding                                 
  Dipayan Datta          : RHF DLPNO-CCSD density                        
  Achintya Kumar Dutta   : EOM-CC, STEOM-CC                              
  Nicolas Foglia         : Exact transition moments, OPA infrastructure, MCD improvements    
  Dmitry Ganyushin       : Spin-Orbit,Spin-Spin,Magnetic field MRCI      
  Miquel Garcia-Rates    : C-PCM and meta-GGA Hessian, CCSD/C-PCM, Gaussian charge scheme 
  Tiago L. C. Gouveia    : GS-ROHF, GS-ROCIS                             
  Yang Guo               : DLPNO-NEVPT2, F12-NEVPT2, CIM, IAO-localization        
  Andreas Hansen         : Spin unrestricted coupled pair/coupled cluster methods 
  Ingolf Harden          : AUTO-CI MPn and infrastructure                
  Benjamin Helmich-Paris : MC-RPA, TRAH-(SCF,CASSCF), AVAS, COSX integrals, SCF dyn. polar. 
  Lee Huntington         : MR-EOM, pCC                                   
  Robert Izsak           : Overlap fitted RIJCOSX, COSX-SCS-MP3, EOM     
  Riya Kayal             : Wick's Theorem for AUTO-CI, AUTO-CI UHF-CCSDT 
  Emily Kempfer          : AUTO-CI, RHF CISDT and CCSDT                  
  Christian Kollmar      : KDIIS, OOCD, Brueckner-CCSD(T), CCSD density, CASPT2, CASPT2-K, improved NEVPT2 
  Axel Koslowski         : Symmetry handling                             
  Simone Kossmann        : meta-GGA functionals, TD-DFT gradient, OOMP2, (MP2 Hessian; deprecated post 5.0) 
  Lucas Lang             : DCDCAS                                        
  Marvin Lechner         : AUTO-CI (C++ implementation), FIC-MRCC        
  Spencer Leger          : CASSCF response                               
  Dagmar Lenk            : GEPOL surface, SMD, ORCA-2-JSON               
  Dimitrios Liakos       : Extrapolation schemes; Compound Job, initial MDCI parallelization 
  Dimitrios Manganas     : Further ROCIS development; embedding schemes. LFT, Crystal Embedding 
  Dimitrios Pantazis     : SARC Basis sets                               
  Anastasios Papadopoulos: AUTO-CI, single reference methods and gradients 
  Taras Petrenko         : pre 6.0 DFT Hessian and TD-DFT gradient, (ASA, deprecated), ECA, 1-Electron XAS/XES, NRVS 
  Peter Pinski           : DLPNO-MP2, DLPNO-MP2 Gradient                 
  Christoph Reimann      : Effective Core Potentials                     
  Marius Retegan         : Local ZFS, SOC                                
  Christoph Riplinger    : Optimizer, TS searches, QM/MM, DLPNO-CCSD(T), (RO)-DLPNO pert. Triples 
  Michael Roemelt        : Original ROCIS implementation                 
  Masaaki Saitow         : Open-shell DLPNO-CCSD energy and density      
  Barbara Sandhoefer     : DKH picture change effects                    
  Kantharuban Sivalingam : CASSCF convergence/infrastructure, NEVPT2 and variants, FIC-MRCI 
  Bernardo de Souza      : ESD, SOC TD-DFT                               
  Georgi L. Stoychev     : AutoAux, RI-MP2 NMR, DLPNO-MP2 response, X2C  
  Van Anh Tran           : RI-MP2 g-tensors                              
  Willem Van den Heuvel  : Paramagnetic NMR                              
  Zikuan Wang            : NOTCH, Electric field optimization            
  Frank Wennmohs         : Technical directorship and infrastructure     
  Hang Xu                : AUTO-CI-Response properties                   
                                                                         
[FACCTs GmbH]                                                            
  Markus Bursch, Miquel Garcia-Rates, Christoph Riplinger, Bernardo de Souza, Georgi L. Stoychev 
                                                                 
  APM, Basis sets (HGBS, AHGBS, def-TZVP (Ac-Lr), def2-XVPD (La-Lu)), CI-OPT, improved COSX, DLPNO-Multilevel,           
  DOCKER, DRACO, updates on ESD, GOAT, IRC, LR-CPCM, MBIS, meta-GGA TD-DFT gradient, ML-optimized integration grids, 
  MM, NACMEs, nearIR, NEB, NEB-TS, NL-DFT gradient (VV10), 2- and 3-layer-ONIOM, interface openCOSMO-RS, QMMM,   
  Crystal-QMMM, SF, symmetry and pop. for TD-DFT, r2SCAN hybrids, SOLVATOR                                   
                                                                         
[Other institutions]                                                     
  V. Asgeirsson          : NEB                                           
  Christoph Bannwarth    : sTDA-DFT, sTD-DFT, PBEh-3c, B97-3c, D3        
  Sebastian Ehlert       : rSCAN, r2SCAN, r2SCAN-3c, D4, dhf basis sets  
  Marvin Friede          : D4 for Fr, Ra, Ac-Lr                          
  Lars Goerigk           : TD-DFT with DH, B97 family of functionals     
  Stefan Grimme          : VdW corrections, initial TS optimization, DFT functionals, gCP, sTDA/sTD-DF 
  Waldemar Hujo          : DFT-NL                                        
  H. Jonsson             : NEB                                           
  Holger Kruse           : gCP                                           
  Marcel Mueller         : wB97X-3c, vDZP basis set                      
  Hagen Neugebauer       : wr2SCAN                                       
  Tobias Risthaus        : range-separated hybrid DFT                    
  Lukas Wittmann         : regularized MP2, r2SCAN double-hybrids, wr2SCAN        
                                                                         
We gratefully acknowledge several colleagues who have allowed us to      
interface, adapt or use parts of their codes:                            
  Ed Valeev, F. Pavosevic, A. Kumar             : LibInt (2-el integral package), F12 methods 
  Garnet Chan, S. Sharma, J. Yang, R. Olivares  : DMRG                   
  Ulf Ekstrom                                   : XCFun DFT Library      
  Mihaly Kallay                                 : mrcc  (arbitrary order and MRCC methods)
  Frank Weinhold                                : gennbo (NPA and NBO analysis)           
  Simon Mueller                                 : openCOSMO-RS                            
  Christopher J. Cramer and Donald G. Truhlar   : smd solvation model                     
  S Lehtola, MJT Oliveira, MAL Marques          : LibXC Library                           
  Liviu Ungur et al                             : ANISO software                          


 Your calculation uses the libint2 library for the computation of 2-el integrals
 For citations please refer to: http://libint.valeyev.net

 Your ORCA version has been built with support for libXC version: 6.2.2
 For citations please refer to: https://libxc.gitlab.io

 This ORCA versions uses:
   CBLAS   interface :  Fast vector & matrix operations
   LAPACKE interface :  Fast linear algebra routines
   SCALAPACK package :  Parallel linear algebra routines
   Shared memory     :  Shared parallel matrices
   BLAS/LAPACK       :  OpenBLAS 0.3.27  USE64BITINT DYNAMIC_ARCH NO_AFFINITY SkylakeX SINGLE_THREADED
        Core in use  :  SkylakeX
   Copyright (c) 2011-2014, The OpenBLAS Project


Your calculation utilizes the atom-pairwise dispersion correction
based on EEQ partial charges (D4)


================================================================================

cite the ECPs for C  [vDZP-ECP], O  [vDZP-ECP] as follows:
   B-Ne (ecp-2-mwb), Al-Ar (ecp-10-mwb), Ga-Kr (ecp-28-mwb), Y-Cd (ecp-28-mwb), In-Xe (ecp-46-mwb):
     A. Bergner, M. Dolg, W. Küchle, H. Stoll, and H. Preuß, Mol. Phys. 80, 1431 (1993)., T. Leininger, A. Berning, A. Nicklass, H. Stoll, H.-J. Werner, and H.-J.Flad, Chem. Phys. 217, 19 (1997).
   Na-Mg, K-Ca, Rb-Sr, Cs-Ba (CRENBL):
     L. Fernandez Pacios and P. A. Christiansen, J. Chem. Phys. 82, 2664 (1985)., M. M. Hurley, L. F. Pacios, P. A. Christiansen, R. B. Ross, and W. C. Ermler, J. Chem. Phys. 84, 6840 (1986)., L. A. LaJohn, P. A. Christiansen, R. B. Ross, T. Atashroo, and W. C. Ermler, J. Chem. Phys. 87, 2812 (1987)., R. B. Ross, J. M. Powers, T. Atashroo, W. C. Ermler, L. A. LaJohn, and P. A. Christiansen, J. Chem. Phys. 93, 6654 (1990). 
   Sc-Zn (ecp-10-mdf):
     M. Dolg, U. Wedig, H. Stoll, and H. Preuss, J. Chem. Phys. 86, 866 (1986). 
   Y-Cd (ecp-28-mwb), Hf-Hg (ecp-60-mwb):
     D. Andrae, U. Häußermann, M. Dolg, H. Stoll, and H. Preuß, Theor. Chim. Acta 77, 123 (1990). 
   La (ecp-46-mwb):
     M. Dolg, H. Stoll, and H. Preuss, J. Chem. Phys. 90, 1730 (1989)., M. Dolg, H. Stoll, and H. Preuss, Theor. Chim. Acta 85, 441 (1993).
   Ce-Lu (SBKJC-ecp):
     T. R. Cundari and W. J. Stevens, J. Chem. Phys. 98, 5555 (1993).
   Tl-Rn (ecp-78-mwb):
     W. Küchle, M. Dolg, H. Stoll, and H. Preuss, Mol. Phys. 74, 1245 (1991).

ECP parameters for C  [vDZP-ECP], O  [vDZP-ECP] have been obtained from:
MM, AH, SG, J. Chem. Phys. 158, 014103 (2023), 10.1063/5.0133026

----- Orbital basis set information -----
Your calculation utilizes the basis: vDZP
   Marcel Mueller, Andreas Hansen, Stefan Grimme 
   J. Chem. Phys. 158, 014103 (2023). DOI: 10.1063/5.0133026

----- AuxJ basis set information -----
Your calculation utilizes the auxiliary basis: def2/J
   F. Weigend, Phys. Chem. Chem. Phys. 8, 1057 (2006).

================================================================================
                                        WARNINGS
                       Please study these warnings very carefully!
================================================================================

WARNING: Frozen-Core approximation turned on, but there are no core electrons.
  ===> : Turning off frozen-core approximation


WARNING: Geometry Optimization
  ===> : Switching off AutoStart
         For restart on a previous wavefunction, please use MOREAD

================================================================================
                                       INPUT FILE
================================================================================
NAME = ./output/geranyl_formate/geranyl_formate.inp
|  1> ! wB97X-3c OPT FREQ TightSCF
|  2> %pal
|  3>   nprocs 40
|  4> end
|  5> * xyz 0 1
|  6> C      3.110644    -0.773839     1.768662
|  7> C      2.672150    -0.036064     0.528083
|  8> C      1.474309     0.585886     0.446472
|  9> C      0.414657     0.546237     1.522623
| 10> C     -0.477591    -0.697421     1.399034
| 11> C     -1.222248    -0.730091     0.079861
| 12> C     -2.267184     0.104129    -0.110711
| 13> C     -3.062670     0.152845    -1.390137
| 14> O     -4.083791     1.145292    -1.309146
| 15> C     -3.820076     2.518499    -1.338374
| 16> O     -2.642608     2.953452    -1.450637
| 17> C     -0.779900    -1.694499    -0.995167
| 18> C      3.638810     0.048672    -0.624627
| 19> H      3.139848    -0.080627     2.635075
| 20> H      2.420919    -1.614234     1.984592
| 21> H      4.129794    -1.195230     1.636692
| 22> H      1.223733     1.137886    -0.455748
| 23> H     -0.214820     1.457690     1.432745
| 24> H      0.873238     0.580993     2.532839
| 25> H     -1.210841    -0.703510     2.234905
| 26> H      0.138709    -1.611949     1.520553
| 27> H     -2.556324     0.777988     0.692104
| 28> H     -3.544906    -0.833207    -1.555600
| 29> H     -2.397399     0.370705    -2.253598
| 30> H     -4.641210     3.218028    -1.264701
| 31> H     -1.603914    -2.397984    -1.236980
| 32> H      0.099061    -2.288991    -0.669385
| 33> H     -0.489167    -1.135393    -1.909082
| 34> H      3.183220     0.521414    -1.521162
| 35> H      3.971603    -0.972429    -0.906264
| 36> H      4.523955     0.645754    -0.320817
| 37> *
| 38> 
| 39>                          ****END OF INPUT****
================================================================================

                       *****************************
                       * Geometry Optimization Run *
                       *****************************

Geometry optimization settings:
Update method            Update   .... BFGS
Choice of coordinates    CoordSys .... (2022) Redundant Internals
Initial Hessian          InHess   .... Almloef's Model
Max. no of cycles        MaxIter  .... 93

Convergence Tolerances:
Energy Change            TolE     ....  5.0000e-06 Eh
Max. Gradient            TolMAXG  ....  3.0000e-04 Eh/bohr
RMS Gradient             TolRMSG  ....  1.0000e-04 Eh/bohr
Max. Displacement        TolMAXD  ....  4.0000e-03 bohr
RMS Displacement         TolRMSD  ....  2.0000e-03 bohr
Strict Convergence                .... False

------------------------------------------------------------------------------
                        ORCA OPTIMIZATION COORDINATE SETUP
------------------------------------------------------------------------------

The optimization will be done in redundant internal coordinates (2022)
Making redundant internal coordinates   ...  (2022 redundants) done
Evaluating the initial hessian          ...  (Almloef) done
Evaluating the coordinates              ...  done
Calculating the B-matrix                .... done
Calculating the G-matrix                .... done
Diagonalizing the G-matrix              .... done
Small eigenvalue found = 5.168e-03
Small eigenvalue found = 6.326e-03
Small eigenvalue found = 7.596e-03
Small eigenvalue found = 1.970e-02
Small eigenvalue found = 2.343e-02
The first mode is                       ....   44
The number of degrees of freedom        ....   87

    -----------------------------------------------------------------
                    Redundant Internal Coordinates


    -----------------------------------------------------------------
         Definition                    Initial Value    Approx d2E/dq
    -----------------------------------------------------------------
      1. B(C   1,C   0)                  1.5085         0.404251   
      2. B(C   2,C   1)                  1.3521         0.718007   
      3. B(C   3,C   2)                  1.5108         0.400867   
      4. B(C   4,C   3)                  1.5356         0.365969   
      5. B(C   5,C   4)                  1.5152         0.394464   
      6. B(C   6,C   5)                  1.3506         0.722091   
      7. B(C   7,C   6)                  1.5073         0.405990   
      8. B(O   8,C   7)                  1.4263         0.489819   
      9. B(C   9,O   8)                  1.3986         0.542183   
     10. B(O  10,C   9)                  1.2602         0.901345   
     11. B(C  11,C   5)                  1.5104         0.401401   
     12. B(C  12,C   1)                  1.5068         0.406857   
     13. B(H  13,C   0)                  1.1100         0.334609   
     14. B(H  14,C   0)                  1.1084         0.336530   
     15. B(H  15,C   0)                  1.1107         0.333733   
     16. B(H  16,C   2)                  1.0870         0.364137   
     17. B(H  17,C   3)                  1.1113         0.332954   
     18. B(H  18,C   3)                  1.1100         0.334624   
     19. B(H  19,C   4)                  1.1119         0.332236   
     20. B(H  20,C   4)                  1.1095         0.335226   
     21. B(H  21,C   6)                  1.0873         0.363703   
     22. B(H  22,C   7)                  1.1101         0.334520   
     23. B(H  23,C   7)                  1.1116         0.332653   
     24. B(H  24,C   9)                  1.0812         0.371909   
     25. B(H  25,C  11)                  1.1101         0.334445   
     26. B(H  26,C  11)                  1.1100         0.334576   
     27. B(H  27,C  11)                  1.1101         0.334444   
     28. B(H  28,C  12)                  1.1112         0.333088   
     29. B(H  29,C  12)                  1.1103         0.334249   
     30. B(H  30,C  12)                  1.1101         0.334486   
     31. A(C   1,C   0,H  13)          110.1288         0.324612   
     32. A(H  13,C   0,H  14)          109.7440         0.284495   
     33. A(H  14,C   0,H  15)          107.8462         0.284379   
     34. A(C   1,C   0,H  15)          110.7663         0.324472   
     35. A(H  13,C   0,H  15)          107.7908         0.284126   
     36. A(C   1,C   0,H  14)          110.4958         0.324917   
     37. A(C   2,C   1,C  12)          119.7549         0.413280   
     38. A(C   0,C   1,C   2)          122.1476         0.412808   
     39. A(C   0,C   1,C  12)          118.0447         0.373743   
     40. A(C   3,C   2,H  16)          116.2875         0.328709   
     41. A(C   1,C   2,C   3)          124.4910         0.412193   
     42. A(C   1,C   2,H  16)          119.2032         0.362512   
     43. A(H  17,C   3,H  18)          106.3758         0.284025   
     44. A(C   2,C   3,H  18)          110.9584         0.324166   
     45. A(C   2,C   3,C   4)          111.8056         0.366470   
     46. A(C   2,C   3,H  17)          108.5507         0.323900   
     47. A(C   4,C   3,H  17)          109.1839         0.319107   
     48. A(C   4,C   3,H  18)          109.7955         0.319368   
     49. A(C   5,C   4,H  20)          110.5230         0.323406   
     50. A(C   3,C   4,H  20)          109.6333         0.319462   
     51. A(C   5,C   4,H  19)          109.2855         0.322931   
     52. A(C   3,C   4,H  19)          109.0927         0.318995   
     53. A(C   3,C   4,C   5)          111.9065         0.365461   
     54. A(H  19,C   4,H  20)          106.2280         0.284009   
     55. A(C   4,C   5,C   6)          119.3250         0.411431   
     56. A(C   6,C   5,C  11)          121.3677         0.412706   
     57. A(C   4,C   5,C  11)          119.3073         0.371304   
     58. A(C   5,C   6,C   7)          123.2319         0.413540   
     59. A(C   7,C   6,H  21)          117.7974         0.329334   
     60. A(C   5,C   6,H  21)          118.9707         0.362789   
     61. A(C   6,C   7,O   8)          110.6172         0.383801   
     62. A(H  22,C   7,H  23)          108.5607         0.283971   
     63. A(O   8,C   7,H  23)          109.6467         0.332728   
     64. A(C   6,C   7,H  23)          110.4762         0.324528   
     65. A(O   8,C   7,H  22)          108.3939         0.333037   
     66. A(C   6,C   7,H  22)          109.0912         0.324827   
     67. A(C   7,O   8,C   9)          123.1630         0.401159   
     68. A(O  10,C   9,H  24)          119.4948         0.375957   
     69. A(O   8,C   9,H  24)          119.3807         0.344773   
     70. A(O   8,C   9,O  10)          121.1244         0.447362   
     71. A(H  26,C  11,H  27)          107.6968         0.284215   
     72. A(H  25,C  11,H  27)          109.5258         0.284198   
     73. A(C   5,C  11,H  27)          109.9416         0.324209   
     74. A(H  25,C  11,H  26)          108.1983         0.284216   
     75. A(C   5,C  11,H  26)          111.4058         0.324230   
     76. A(C   5,C  11,H  25)          110.0150         0.324209   
     77. A(H  29,C  12,H  30)          108.9711         0.284178   
     78. A(H  28,C  12,H  30)          108.5961         0.284024   
     79. A(C   1,C  12,H  30)          109.4159         0.324935   
     80. A(H  28,C  12,H  29)          108.0284         0.283993   
     81. A(C   1,C  12,H  29)          109.5503         0.324897   
     82. A(C   1,C  12,H  28)          112.2170         0.324712   
     83. D(C   2,C   1,C   0,H  15)   -178.9381         0.012117   
     84. D(C   2,C   1,C   0,H  13)    -59.7939         0.012117   
     85. D(C   2,C   1,C   0,H  14)     61.6130         0.012117   
     86. D(C  12,C   1,C   0,H  14)   -121.0377         0.012117   
     87. D(C  12,C   1,C   0,H  13)    117.5554         0.012117   
     88. D(C   3,C   2,C   1,C  12)    178.5948         0.036469   
     89. D(H  16,C   2,C   1,C  12)      0.2112         0.036469   
     90. D(H  16,C   2,C   1,C   0)    177.5164         0.036469   
     91. D(C   3,C   2,C   1,C   0)     -4.1000         0.036469   
     92. D(H  18,C   3,C   2,C   1)     37.6896         0.011923   
     93. D(H  17,C   3,C   2,H  16)    -27.3331         0.011923   
     94. D(H  17,C   3,C   2,C   1)    154.2406         0.011923   
     95. D(C   4,C   3,C   2,C   1)    -85.2566         0.011923   
     96. D(C   4,C   3,C   2,H  16)     93.1697         0.011923   
     97. D(C   5,C   4,C   3,C   2)    -61.3148         0.010721   
     98. D(H  19,C   4,C   3,H  18)     54.0236         0.010721   
     99. D(H  19,C   4,C   3,H  17)    -62.2392         0.010721   
    100. D(H  19,C   4,C   3,C   2)    177.6280         0.010721   
    101. D(C   5,C   4,C   3,H  18)    175.0808         0.010721   
    102. D(C   5,C   4,C   3,H  17)     58.8180         0.010721   
    103. D(C  11,C   5,C   4,H  19)   -133.1579         0.011563   
    104. D(C  11,C   5,C   4,C   3)    105.8965         0.011563   
    105. D(C   6,C   5,C   4,H  20)    163.4390         0.011563   
    106. D(C   6,C   5,C   4,H  19)     46.8795         0.011563   
    107. D(C   6,C   5,C   4,C   3)    -74.0661         0.011563   
    108. D(H  21,C   6,C   5,C  11)    179.6040         0.036923   
    109. D(H  21,C   6,C   5,C   4)     -0.4342         0.036923   
    110. D(C   7,C   6,C   5,C  11)     -0.4288         0.036923   
    111. D(C   7,C   6,C   5,C   4)    179.5330         0.036923   
    112. D(O   8,C   7,C   6,H  21)      1.1361         0.012217   
    113. D(O   8,C   7,C   6,C   5)   -178.8314         0.012217   
    114. D(H  23,C   7,C   6,C   5)    -57.2348         0.012217   
    115. D(H  22,C   7,C   6,H  21)   -118.0059         0.012217   
    116. D(H  22,C   7,C   6,C   5)     62.0266         0.012217   
    117. D(C   9,O   8,C   7,H  23)    -50.1261         0.018945   
    118. D(C   9,O   8,C   7,H  22)   -168.4789         0.018945   
    119. D(C   9,O   8,C   7,C   6)     71.9584         0.018945   
    120. D(H  24,C   9,O   8,C   7)   -179.5127         0.021234   
    121. D(O  10,C   9,O   8,C   7)      0.5724         0.021234   
    122. D(H  27,C  11,C   5,C   4)   -120.0304         0.011954   
    123. D(H  26,C  11,C   5,C   6)    179.2428         0.011954   
    124. D(H  26,C  11,C   5,C   4)     -0.7190         0.011954   
    125. D(H  25,C  11,C   5,C   6)    -60.7701         0.011954   
    126. D(H  25,C  11,C   5,C   4)    119.2681         0.011954   
    127. D(H  30,C  12,C   1,C   0)    -65.1290         0.012267   
    128. D(H  29,C  12,C   1,C   2)   -128.3115         0.012267   
    129. D(H  29,C  12,C   1,C   0)     54.2736         0.012267   
    130. D(H  28,C  12,C   1,C   2)     -8.3247         0.012267   
    131. D(H  28,C  12,C   1,C   0)    174.2604         0.012267   
    -----------------------------------------------------------------

Number of atoms                         .... 31
Number of degrees of freedom            .... 131


         *************************************************************
         *                GEOMETRY OPTIMIZATION CYCLE   1            *
         *************************************************************
---------------------------------
CARTESIAN COORDINATES (ANGSTROEM)
---------------------------------
  C      3.110644   -0.773839    1.768662
  C      2.672150   -0.036064    0.528083
  C      1.474309    0.585886    0.446472
  C      0.414657    0.546237    1.522623
  C     -0.477591   -0.697421    1.399034
  C     -1.222248   -0.730091    0.079861
  C     -2.267184    0.104129   -0.110711
  C     -3.062670    0.152845   -1.390137
  O     -4.083791    1.145292   -1.309146
  C     -3.820076    2.518499   -1.338374
  O     -2.642608    2.953452   -1.450637
  C     -0.779900   -1.694499   -0.995167
  C      3.638810    0.048672   -0.624627
  H      3.139848   -0.080627    2.635075
  H      2.420919   -1.614234    1.984592
  H      4.129794   -1.195230    1.636692
  H      1.223733    1.137886   -0.455748
  H     -0.214820    1.457690    1.432745
  H      0.873238    0.580993    2.532839
  H     -1.210841   -0.703510    2.234905
  H      0.138709   -1.611949    1.520553
  H     -2.556324    0.777988    0.692104
  H     -3.544906   -0.833207   -1.555600
  H     -2.397399    0.370705   -2.253598
  H     -4.641210    3.218028   -1.264701
  H     -1.603914   -2.397984   -1.236980
  H      0.099061   -2.288991   -0.669385
  H     -0.489167   -1.135393   -1.909082
  H      3.183220    0.521414   -1.521162
  H      3.971603   -0.972429   -0.906264
  H      4.523955    0.645754   -0.320817

----------------------------
CARTESIAN COORDINATES (A.U.)
----------------------------
  NO LB      ZA    FRAG     MASS         X           Y           Z
   0 C     4.0000*   0    12.011    5.878265   -1.462344    3.342287
   1 C     4.0000*   0    12.011    5.049632   -0.068151    0.997932
   2 C     4.0000*   0    12.011    2.786040    1.107164    0.843710
   3 C     4.0000*   0    12.011    0.783588    1.032238    2.877340
   4 C     4.0000*   0    12.011   -0.902516   -1.317935    2.643791
   5 C     4.0000*   0    12.011   -2.309714   -1.379672    0.150915
   6 C     4.0000*   0    12.011   -4.284357    0.196775   -0.209213
   7 C     4.0000*   0    12.011   -5.787608    0.288835   -2.626978
   8 O     6.0000*   0    15.999   -7.717247    2.164288   -2.473927
   9 C     4.0000*   0    12.011   -7.218897    4.759273   -2.529160
  10 O     6.0000*   0    15.999   -4.993805    5.581215   -2.741307
  11 C     4.0000*   0    12.011   -1.473797   -3.202139   -1.880593
  12 C     4.0000*   0    12.011    6.876354    0.091977   -1.180374
  13 H     1.0000    0     1.008    5.933453   -0.152363    4.979570
  14 H     1.0000    0     1.008    4.574874   -3.050460    3.750335
  15 H     1.0000    0     1.008    7.804180   -2.258657    3.092900
  16 H     1.0000    0     1.008    2.312520    2.150293   -0.861239
  17 H     1.0000    0     1.008   -0.405951    2.754635    2.707496
  18 H     1.0000    0     1.008    1.650181    1.097918    4.786372
  19 H     1.0000    0     1.008   -2.288158   -1.329441    4.223358
  20 H     1.0000    0     1.008    0.262122   -3.046142    2.873429
  21 H     1.0000    0     1.008   -4.830752    1.470184    1.307887
  22 H     1.0000    0     1.008   -6.698902   -1.574533   -2.939658
  23 H     1.0000    0     1.008   -4.530428    0.700531   -4.258683
  24 H     1.0000    0     1.008   -8.770616    6.081192   -2.389939
  25 H     1.0000    0     1.008   -3.030958   -4.531533   -2.337553
  26 H     1.0000    0     1.008    0.187198   -4.325566   -1.264954
  27 H     1.0000    0     1.008   -0.924392   -2.145582   -3.607642
  28 H     1.0000    0     1.008    6.015414    0.985330   -2.874580
  29 H     1.0000    0     1.008    7.505242   -1.837624   -1.712591
  30 H     1.0000    0     1.008    8.549036    1.220298   -0.606256
* core charge reduced due to ECP

--------------------------------
INTERNAL COORDINATES (ANGSTROEM)
--------------------------------
 C      0   0   0     0.000000000000     0.00000000     0.00000000
 C      1   0   0     1.508517548424     0.00000000     0.00000000
 C      2   1   0     1.352148371704   122.14761049     0.00000000
 C      3   2   1     1.510806201704   124.49098712   355.89999208
 C      4   3   2     1.535599542651   111.80560853   274.74344636
 C      5   4   3     1.515189354661   111.90649304   298.68522286
 C      6   5   4     1.350604286858   119.32503665   285.93392835
 C      7   6   5     1.507349367044   123.23187652   179.53297483
 O      8   7   6     1.426253373889   110.61715453   181.16855084
 C      9   8   7     1.398605499080   123.16302597    71.95840854
 O     10   9   8     1.260245208046   121.12442677     0.57239280
 C      6   5   4     1.510443558810   119.30726310   105.89650589
 C      2   1   3     1.506768757771   118.04473127   177.34929628
 H      1   2   3     1.109985241852   110.12879555   300.20607648
 H      1   2   3     1.108426856653   110.49579795    61.61303901
 H      1   2   3     1.110699409508   110.76629839   181.06193000
 H      3   2   1     1.086965160516   119.20320295   177.51643585
 H      4   3   2     1.111335196789   108.55066259   154.24063268
 H      4   3   2     1.109973368939   110.95842553    37.68959755
 H      5   4   3     1.111923094041   109.09271093   177.62799174
 H      5   4   3     1.109483672771   109.63330208    61.68583363
 H      7   6   5     1.087290124900   118.97069960   359.56583007
 H      8   7   6     1.110057706054   109.09121271    62.02655651
 H      8   7   6     1.111581477698   110.47615914   302.76522900
 H     10   9   8     1.081216712193   119.38073298   180.48730672
 H     12   6   5     1.110118797422   110.01496913   119.26811770
 H     12   6   5     1.110012202234   111.40581254   359.28101109
 H     12   6   5     1.110119733970   109.94157023   239.96958971
 H     13   2   1     1.111225563461   112.21703968   174.26035766
 H     13   2   1     1.110278268192   109.55025862    54.27361518
 H     13   2   1     1.110085177745   109.41587958   294.87096553

---------------------------
INTERNAL COORDINATES (A.U.)
---------------------------
 C      0   0   0     0.000000000000     0.00000000     0.00000000
 C      1   0   0     2.850685034735     0.00000000     0.00000000
 C      2   1   0     2.555190114948   122.14761049     0.00000000
 C      3   2   1     2.855009962650   124.49098712   355.89999208
 C      4   3   2     2.901862586985   111.80560853   274.74344636
 C      5   4   3     2.863292921342   111.90649304   298.68522286
 C      6   5   4     2.552272217462   119.32503665   285.93392835
 C      7   6   5     2.848477491853   123.23187652   179.53297483
 O      8   7   6     2.695228274232   110.61715453   181.16855084
 C      9   8   7     2.642981362658   123.16302597    71.95840854
 O     10   9   8     2.381518304793   121.12442677     0.57239280
 C      6   5   4     2.854324666897   119.30726310   105.89650589
 C      2   1   3     2.847380299337   118.04473127   177.34929628
 H      1   2   3     2.097568119794   110.12879555   300.20607648
 H      1   2   3     2.094623198558   110.49579795    61.61303901
 H      1   2   3     2.098917701078   110.76629839   181.06193000
 H      3   2   1     2.054066470489   119.20320295   177.51643585
 H      4   3   2     2.100119164919   108.55066259   154.24063268
 H      4   3   2     2.097545683240   110.95842553    37.68959755
 H      5   4   3     2.101230129720   109.09271093   177.62799174
 H      5   4   3     2.096620291594   109.63330208    61.68583363
 H      7   6   5     2.054680564179   118.97069960   359.56583007
 H      8   7   6     2.097705057290   109.09121271    62.02655651
 H      8   7   6     2.100584568389   110.47615914   302.76522900
 H     10   9   8     2.043203477464   119.38073298   180.48730672
 H     12   6   5     2.097820503246   110.01496913   119.26811770
 H     12   6   5     2.097619067534   111.40581254   359.28101109
 H     12   6   5     2.097822273065   109.94157023   239.96958971
 H     13   2   1     2.099911987953   112.21703968   174.26035766
 H     13   2   1     2.098121859327   109.55025862    54.27361518
 H     13   2   1     2.097756971263   109.41587958   294.87096553

---------------------
BASIS SET INFORMATION
---------------------
There are 3 groups of distinct atoms

 Group   1 Type C   : 6s6p2d contracted to 2s2p1d pattern {42/42/2}
 Group   2 Type O   : 6s6p2d contracted to 2s2p1d pattern {42/42/2}
 Group   3 Type H   : 8s2p contracted to 2s1p pattern {53/2}

Atom   0C    basis set group =>   1
Atom   1C    basis set group =>   1
Atom   2C    basis set group =>   1
Atom   3C    basis set group =>   1
Atom   4C    basis set group =>   1
Atom   5C    basis set group =>   1
Atom   6C    basis set group =>   1
Atom   7C    basis set group =>   1
Atom   8O    basis set group =>   2
Atom   9C    basis set group =>   1
Atom  10O    basis set group =>   2
Atom  11C    basis set group =>   1
Atom  12C    basis set group =>   1
Atom  13H    basis set group =>   3
Atom  14H    basis set group =>   3
Atom  15H    basis set group =>   3
Atom  16H    basis set group =>   3
Atom  17H    basis set group =>   3
Atom  18H    basis set group =>   3
Atom  19H    basis set group =>   3
Atom  20H    basis set group =>   3
Atom  21H    basis set group =>   3
Atom  22H    basis set group =>   3
Atom  23H    basis set group =>   3
Atom  24H    basis set group =>   3
Atom  25H    basis set group =>   3
Atom  26H    basis set group =>   3
Atom  27H    basis set group =>   3
Atom  28H    basis set group =>   3
Atom  29H    basis set group =>   3
Atom  30H    basis set group =>   3
---------------------------------
AUXILIARY/J BASIS SET INFORMATION
---------------------------------
There are 3 groups of distinct atoms

 Group   1 Type C   : 12s5p4d2f1g contracted to 6s4p3d1f1g pattern {711111/2111/211/2/1}
 Group   2 Type O   : 12s5p4d2f1g contracted to 6s4p3d1f1g pattern {711111/2111/211/2/1}
 Group   3 Type H   : 5s2p1d contracted to 3s1p1d pattern {311/2/1}

Atom   0C    basis set group =>   1
Atom   1C    basis set group =>   1
Atom   2C    basis set group =>   1
Atom   3C    basis set group =>   1
Atom   4C    basis set group =>   1
Atom   5C    basis set group =>   1
Atom   6C    basis set group =>   1
Atom   7C    basis set group =>   1
Atom   8O    basis set group =>   2
Atom   9C    basis set group =>   1
Atom  10O    basis set group =>   2
Atom  11C    basis set group =>   1
Atom  12C    basis set group =>   1
Atom  13H    basis set group =>   3
Atom  14H    basis set group =>   3
Atom  15H    basis set group =>   3
Atom  16H    basis set group =>   3
Atom  17H    basis set group =>   3
Atom  18H    basis set group =>   3
Atom  19H    basis set group =>   3
Atom  20H    basis set group =>   3
Atom  21H    basis set group =>   3
Atom  22H    basis set group =>   3
Atom  23H    basis set group =>   3
Atom  24H    basis set group =>   3
Atom  25H    basis set group =>   3
Atom  26H    basis set group =>   3
Atom  27H    basis set group =>   3
Atom  28H    basis set group =>   3
Atom  29H    basis set group =>   3
Atom  30H    basis set group =>   3
-------------------------
ECP PARAMETER INFORMATION
-------------------------

 Group 1, Type C  ECP vDZP-ECP (replacing 2 core electrons, lmax=3)
 Group 2, Type O  ECP vDZP-ECP (replacing 2 core electrons, lmax=3)

Atom   0C    ECP group =>   1
Atom   1C    ECP group =>   1
Atom   2C    ECP group =>   1
Atom   3C    ECP group =>   1
Atom   4C    ECP group =>   1
Atom   5C    ECP group =>   1
Atom   6C    ECP group =>   1
Atom   7C    ECP group =>   1
Atom   8O    ECP group =>   2
Atom   9C    ECP group =>   1
Atom  10O    ECP group =>   2
Atom  11C    ECP group =>   1
Atom  12C    ECP group =>   1



           ************************************************************
           *        Program running with 40 parallel MPI-processes    *
           *              working on a common directory               *
           ************************************************************
------------------------------------------------------------------------------
                             ORCA STARTUP CALCULATIONS
                           -- RI-GTO INTEGRALS CHOSEN --
------------------------------------------------------------------------------
------------------------------------------------------------------------------
                   ___                                                        
                  /   \      - P O W E R E D   B Y -                         
                 /     \                                                     
                 |  |  |   _    _      __       _____    __    __             
                 |  |  |  | |  | |    /  \     |  _  \  |  |  /  |          
                  \  \/   | |  | |   /    \    | | | |  |  | /  /          
                 / \  \   | |__| |  /  /\  \   | |_| |  |  |/  /          
                |  |  |   |  __  | /  /__\  \  |    /   |      \           
                |  |  |   | |  | | |   __   |  |    \   |  |\   \          
                \     /   | |  | | |  |  |  |  | |\  \  |  | \   \       
                 \___/    |_|  |_| |__|  |__|  |_| \__\ |__|  \__/        
                                                                              
                      - O R C A' S   B I G   F R I E N D -                    
                                      &                                       
                       - I N T E G R A L  F E E D E R -                       
                                                                              
 v1 FN, 2020, v2 2021, v3 2022-2024                                           
------------------------------------------------------------------------------


----------------------
SHARK INTEGRAL PACKAGE
----------------------

Number of atoms                             ...     31
Number of basis functions                   ...    259
Number of shells                            ...    119
Maximum angular momentum                    ...      2
Integral batch strategy                     ... SHARK/LIBINT Hybrid
RI-J (if used) integral strategy            ... SPLIT-RIJ (Revised 2003 algorithm where possible)
Printlevel                                  ...      1
Contraction scheme used                     ... SEGMENTED contraction
Prescreening option                         ... SCHWARTZ
   Thresh                                   ... 2.500e-11
   Tcut                                     ... 2.500e-12
   Tpresel                                  ... 2.500e-12 
Coulomb Range Separation                    ... NOT USED
Exchange Range Separation                   ... Long Range
   Mu parameter                             ... 3.000e-01
   Scaling (regular/separated)              ... 1.670e-01 8.330e-01
Multipole approximations                    ... NOT USED
Finite Nucleus Model                        ... NOT USED
CABS basis                                  ... NOT available
Auxiliary Coulomb fitting basis             ... AVAILABLE
   # of basis functions in Aux-J            ...    835
   # of shells in Aux-J                     ...    285
   Maximum angular momentum in Aux-J        ...      4
Auxiliary J/K fitting basis                 ... NOT available
Auxiliary Correlation fitting basis         ... NOT available
Auxiliary 'external' fitting basis          ... NOT available

Checking pre-screening integrals            ... done (  0.0 sec) Dimension = 119
Check shell pair data                       ... done (  0.0 sec)
Shell pair information
Shell pair cut-off parameter TPreSel        ...   2.5e-12
Total number of shell pairs                 ...      7140
Shell pairs after pre-screening             ...      6951
Total number of primitive shell pairs       ...     66150
Primitive shell pairs kept                  ...     49155
          la=0 lb=0:   1930 shell pairs
          la=1 lb=0:   2663 shell pairs
          la=1 lb=1:    945 shell pairs
          la=2 lb=0:    786 shell pairs
          la=2 lb=1:    539 shell pairs
          la=2 lb=2:     88 shell pairs

Calculating one electron integrals          ... done (  0.0 sec)
Calculating ECP integrals                   ... done (  0.1 sec)
Calculating RI/J V-Matrix + Cholesky decomp.... done (  0.0 sec)
Calculating Nuclear repulsion               ... done (  0.0 sec) ENN=    424.719537039498 Eh

Diagonalization of the overlap matrix:
Smallest eigenvalue                        ... 1.039e-03
Time for diagonalization                   ...    0.105 sec
Threshold for overlap eigenvalues          ... 1.000e-07
Number of eigenvalues below threshold      ... 0
Time for construction of square roots      ...    0.008 sec
Total time needed                          ...    0.116 sec

-------------------
DFT GRID GENERATION
-------------------

General Integration Accuracy     IntAcc      ... 4.388
Radial Grid Type                 RadialGrid  ... OptM3 with GC (2021)
Angular Grid (max. ang.)         AngularGrid ... 4 (Lebedev-302)
Angular grid pruning method      GridPruning ... 4 (adaptive)
Weight generation scheme         WeightScheme... mBecke (2022)
Basis function cutoff            BFCut       ... 1.0000e-11
Integration weight cutoff        WCut        ... 1.0000e-14
Partially contracted basis set               ... off
Rotationally invariant grid construction     ... off
Angular grids for H and He will be reduced by one unit

Total number of grid points                  ...   135440
Total number of batches                      ...     2133
Average number of points per batch           ...       63
Average number of grid points per atom       ...     4369

--------------------
COSX GRID GENERATION
--------------------

GRIDX 1
-------
General Integration Accuracy     IntAcc      ... 3.816
Radial Grid Type                 RadialGrid  ... OptM3 with GC (2021)
Angular Grid (max. ang.)         AngularGrid ... 1 (Lebedev-50)
Angular grid pruning method      GridPruning ... 4 (adaptive)
Weight generation scheme         WeightScheme... mBecke (2022)
Basis function cutoff            BFCut       ... 1.0000e-11
Integration weight cutoff        WCut        ... 1.0000e-14
Partially contracted basis set               ... on
Rotationally invariant grid construction     ... off
Angular grids for H and He will be reduced by one unit

Total number of grid points                  ...    17270
Total number of batches                      ...      157
Average number of points per batch           ...      110
Average number of grid points per atom       ...      557
UseSFitting                                  ... on

GRIDX 2
-------
General Integration Accuracy     IntAcc      ... 4.020
Radial Grid Type                 RadialGrid  ... OptM3 with GC (2021)
Angular Grid (max. ang.)         AngularGrid ... 2 (Lebedev-110)
Angular grid pruning method      GridPruning ... 4 (adaptive)
Weight generation scheme         WeightScheme... mBecke (2022)
Basis function cutoff            BFCut       ... 1.0000e-11
Integration weight cutoff        WCut        ... 1.0000e-14
Partially contracted basis set               ... on
Rotationally invariant grid construction     ... off
Angular grids for H and He will be reduced by one unit

Total number of grid points                  ...    36399
Total number of batches                      ...      303
Average number of points per batch           ...      120
Average number of grid points per atom       ...     1174
UseSFitting                                  ... on

GRIDX 3
-------
General Integration Accuracy     IntAcc      ... 4.338
Radial Grid Type                 RadialGrid  ... OptM3 with GC (2021)
Angular Grid (max. ang.)         AngularGrid ... 3 (Lebedev-194)
Angular grid pruning method      GridPruning ... 4 (adaptive)
Weight generation scheme         WeightScheme... mBecke (2022)
Basis function cutoff            BFCut       ... 1.0000e-11
Integration weight cutoff        WCut        ... 1.0000e-14
Partially contracted basis set               ... on
Rotationally invariant grid construction     ... off
Angular grids for H and He will be reduced by one unit

Total number of grid points                  ...    79313
Total number of batches                      ...      636
Average number of points per batch           ...      124
Average number of grid points per atom       ...     2558
UseSFitting                                  ... on
Initializing property integral containers    ... done (  0.0 sec)

SHARK setup successfully completed in   4.1 seconds

Maximum memory used throughout the entire STARTUP-calculation: 41.3 MB


           ************************************************************
           *        Program running with 40 parallel MPI-processes    *
           *              working on a common directory               *
           ************************************************************
-------------------------------------------------------------------------------
                                 ORCA GUESS
                   Start orbitals & Density for SCF / CASSCF
-------------------------------------------------------------------------------

------------
SCF SETTINGS
------------
Hamiltonian:
 Density Functional     Method          .... DFT(GTOs)
 Exchange Functional    Exchange        .... WB97X-V
 Correlation Functional Correlation     .... WB97X-V
 Gradients option       PostSCFGGA      .... off
 Hybrid DFT is turned on
   Fraction HF Exchange ScalHFX         ....  0.167000
   Scaling of DF-GGA-X  ScalDFX         ....  0.000000
   Scaling of DF-GGA-C  ScalDFC         ....  1.000000
   Scaling of DF-LDA-C  ScalLDAC        ....  1.000000
   Perturbative correction              ....  0.000000
 Long-range corrected/Screened/Range-Separated Hybrid DFT is turned on
   Amount of maximum screened exact exchange              ....  0.833000
   Range separation parameter mu (erf(mu*r12)/r12)        ....  0.300000
   NL short-range parameter             ....  6.000000
   NL long-range parameter              ....  0.010000
 RI-approximation to the Coulomb term is turned on
   Number of AuxJ basis functions       .... 835
   RIJ-COSX (HFX calculated with COS-X)).... on


General Settings:
 Integral files         IntName         .... ./output/geranyl_formate/geranyl_formate
 Hartree-Fock type      HFTyp           .... RHF
 Total Charge           Charge          ....    0
 Multiplicity           Mult            ....    1
 Number of Electrons    NEL             ....   74
 Basis Dimension        Dim             ....  259
 Nuclear Repulsion      ENuc            ....    424.7195370395 Eh

Convergence Acceleration:
 AO-DIIS                CNVDIIS         .... on
   Start iteration      DIISMaxIt       ....    12
   Startup error        DIISStart       ....  0.200000
   # of expansion vecs  DIISMaxEq       ....     5
   Bias factor          DIISBfac        ....   1.050
   Max. coefficient     DIISMaxC        ....  10.000
 MO-DIIS                CNVKDIIS        .... off
 Trust-Rad. Augm. Hess. CNVTRAH         .... auto
   Auto Start mean grad. ratio tolernc. ....  1.125000
   Auto Start start iteration           ....    50
   Auto Start num. interpolation iter.  ....    10
   Max. Number of Micro iterations      ....    24
   Max. Number of Macro iterations      .... Maxiter - #DIIS iter
   Number of Davidson start vectors     ....     2
   Converg. threshold    (grad. norm)   ....   1.000e-05
   Grad. Scal. Fac. for Micro threshold ....   0.100
   Minimum threshold for Micro iter.    ....   1.000e-02
   NR start threshold (gradient norm)   ....   1.000e-04
   Initial trust radius                 ....   0.400
   Minimum AH scaling param. (alpha)    ....   1.000
   Maximum AH scaling param. (alpha)    .... 1000.000
   Quad. conv. algorithm                .... NR
   White noise on init. David. guess    .... on
   Maximum white noise                  ....   0.010
   Pseudo random numbers                .... off
   Inactive MOs                         .... canonical
   Orbital update algorithm             .... Taylor
   Preconditioner                       .... Diag
   Full preconditioner red. dimension   ....   250
 SOSCF                  CNVSOSCF        .... on
   Start iteration      SOSCFMaxIt      ....   150
   Startup grad/error   SOSCFStart      ....  0.003300
   Hessian update       SOSCFHessUp     .... L-BFGS
 Level Shifting         CNVShift        .... on
   Level shift para.    LevelShift      ....    0.2500
   Turn off err/grad.   ShiftErr        ....    0.0010
 Zerner damping         CNVZerner       .... off
 Static damping         CNVDamp         .... on
   Fraction old density DampFac         ....    0.7000
   Max. Damping (<1)    DampMax         ....    0.9800
   Min. Damping (>=0)   DampMin         ....    0.0000
   Turn off err/grad.   DampErr         ....    0.1000

SCF Procedure:
 Maximum # iterations   MaxIter         ....   125
 SCF integral mode      SCFMode         .... Direct
   Integral package                     .... SHARK and LIBINT hybrid scheme
 Reset frequency        DirectResetFreq ....    20
 Integral Threshold     Thresh          ....  2.500e-11 Eh
 Primitive CutOff       TCut            ....  2.500e-12 Eh

Convergence Tolerance:
 Convergence Check Mode ConvCheckMode   .... Total+1el-Energy
 Convergence forced     ConvForced      .... 0
 Energy Change          TolE            ....  1.000e-08 Eh
 1-El. energy change                    ....  1.000e-05 Eh
 Orbital Gradient       TolG            ....  1.000e-05
 Orbital Rotation angle TolX            ....  1.000e-05
 DIIS Error             TolErr          ....  5.000e-07

------------------------------
INITIAL GUESS: MODEL POTENTIAL
------------------------------
Loading Hartree-Fock densities                     ... done
Atomic calculation to generate a density for atom 0 (C  with ECP)
  Multiplicity assumed   :    1
  Atomic configuration   : 1s2 2s2 2p2 
  Number of open shells  : 1
  Command: /home/aspe232/Project/Software/ORCA/6_0_1/build/orca ./output/geranyl_formate/geranyl_formate_atom6.inp "" > ./output/geranyl_formate/geranyl_formate_atom6.out
Returned from the atomic calculation with res=0
Atomic calculation to generate a density for atom 8 (O  with ECP)
  Multiplicity assumed   :    3
  Atomic configuration   : 1s2 2s2 2p4 
  Number of open shells  : 1
  Command: /home/aspe232/Project/Software/ORCA/6_0_1/build/orca ./output/geranyl_formate/geranyl_formate_atom8.inp "" > ./output/geranyl_formate/geranyl_formate_atom8.out
Returned from the atomic calculation with res=0
Calculating cut-offs                               ... done
Initializing the effective Hamiltonian             ... done
Setting up the integral package (SHARK)            ... done
Starting the Coulomb interaction                   ... done (   0.1 sec)
Making the grid                                    ... done (   0.8 sec)
Mapping shells                                     ... done
Starting the XC term evaluation                    ... done (   0.0 sec)
  promolecular density results
     # of electrons  =     99.988648163
     EX              =    -52.021238775
     EC              =     -4.045321607
     EX+EC           =    -56.066560382
Transforming the Hamiltonian                       ... done (   0.1 sec)
Diagonalizing the Hamiltonian                      ... done (   0.1 sec)
Back transforming the eigenvectors                 ... done (   0.1 sec)
Now organizing SCF variables                       ... done
                      ------------------
                      INITIAL GUESS DONE (   2.4 sec)
                      ------------------
             **** ENERGY FILE WAS UPDATED (./output/geranyl_formate/geranyl_formate.en.tmp) ****
Finished Guess after   3.0 sec
Maximum memory used throughout the entire GUESS-calculation: 25.9 MB


           ************************************************************
           *        Program running with 40 parallel MPI-processes    *
           *              working on a common directory               *
           ************************************************************

-------------------------------------------------------------------------------------------
                                      ORCA LEAN-SCF
                              memory conserving SCF solver
-------------------------------------------------------------------------------------------

----------------------------------------D-I-I-S--------------------------------------------
Iteration    Energy (Eh)           Delta-E    RMSDP     MaxDP     DIISErr   Damp  Time(sec)
-------------------------------------------------------------------------------------------
               ***  Starting incremental Fock matrix formation  ***
    1    -105.0262299180769787     0.00e+00  3.50e-03  9.57e-02  2.15e-01  0.700   5.6
    2    -105.2420948517863053    -2.16e-01  2.53e-03  6.18e-02  1.07e-01  0.700   4.2
                               ***Turning on AO-DIIS***
    3    -105.3513390367259035    -1.09e-01  1.30e-03  2.91e-02  5.71e-02  0.700   4.0
    4    -105.4160151460320094    -6.47e-02  2.73e-03  5.78e-02  3.51e-02  0.000   4.0
    5    -105.5534140919780839    -1.37e-01  2.61e-04  1.32e-02  1.18e-02  0.000   3.8
    6    -105.5538775678799084    -4.63e-04  1.25e-04  7.29e-03  6.46e-03  0.000   3.9
                              *** Initializing SOSCF ***
---------------------------------------S-O-S-C-F--------------------------------------
Iteration    Energy (Eh)           Delta-E    RMSDP     MaxDP     MaxGrad    Time(sec)
--------------------------------------------------------------------------------------
    7    -105.5539937178718901    -1.16e-04  6.50e-05  3.09e-03  2.57e-03     4.0
               *** Restarting incremental Fock matrix formation ***
    8    -105.5540201507890288    -2.64e-05  3.66e-05  1.34e-03  2.80e-04     5.3
    9    -105.5540251169070416    -4.97e-06  2.80e-05  1.47e-03  4.51e-04     4.7
   10    -105.5540272963428379    -2.18e-06  7.82e-06  3.42e-04  9.93e-05     4.4
   11    -105.5540274718206319    -1.75e-07  3.80e-06  1.11e-04  4.00e-05     4.3
   12    -105.5540275327552990    -6.09e-08  1.50e-06  6.30e-05  1.61e-05     3.9
   13    -105.5540275497530729    -1.70e-08  3.11e-07  1.09e-05  2.15e-06     4.0
                  *** Gradient check signals convergence ***

               *****************************************************
               *                     SUCCESS                       *
               *           SCF CONVERGED AFTER  13 CYCLES          *
               *****************************************************

Recomputing exchange energy using gridx3       ... done (    5.312 sec)
Old exchange energy                            :    -14.344579025 Eh
New exchange energy                            :    -14.344593384 Eh
Exchange energy change after final integration :     -0.000014359 Eh
Total energy after final integration           :   -105.554041909 Eh
             **** ENERGY FILE WAS UPDATED (./output/geranyl_formate/geranyl_formate.en.tmp) ****

----------------
TOTAL SCF ENERGY
----------------

Total Energy       :       -105.55404190904747 Eh           -2872.27150 eV

Components:
Nuclear Repulsion  :        424.71953703949839 Eh           11557.20616 eV
Electronic Energy  :       -530.27356458925146 Eh          -14429.47727 eV
One Electron Energy:      -1003.75061268389015 Eh          -27313.44276 eV
Two Electron Energy:        473.47704809463869 Eh           12883.96549 eV

Virial components:
Potential Energy   :       -187.47436330630194 Eh           -5101.43678 eV
Kinetic Energy     :         81.92032139725447 Eh            2229.16527 eV
Virial Ratio       :          2.28849643298134

DFT components:
N(Alpha)           :       36.999987089900 electrons
N(Beta)            :       36.999987089900 electrons
N(Total)           :       73.999974179800 electrons
E(X)               :      -15.639217266852 Eh       
E(C)               :       -2.792398210289 Eh       
E(XC)              :      -18.431615477141 Eh       

---------------
SCF CONVERGENCE
---------------

  Last Energy change         ...    1.6998e-08  Tolerance :   1.0000e-08
  Last MAX-Density change    ...    1.0947e-05  Tolerance :   1.0000e-07
  Last RMS-Density change    ...    3.1078e-07  Tolerance :   5.0000e-09
  Last DIIS Error            ...    2.5663e-03  Tolerance :   5.0000e-07
  Last Orbital Gradient      ...    2.1461e-06  Tolerance :   1.0000e-05
  Last Orbital Rotation      ...    7.3658e-06  Tolerance :   1.0000e-05


----------------
ORBITAL ENERGIES
----------------

  NO   OCC          E(Eh)            E(eV) 
   0   2.0000      -1.218428       -33.1551 
   1   2.0000      -1.129919       -30.7467 
   2   2.0000      -0.970453       -26.4074 
   3   2.0000      -0.946051       -25.7434 
   4   2.0000      -0.899962       -24.4892 
   5   2.0000      -0.867281       -23.5999 
   6   2.0000      -0.823783       -22.4163 
   7   2.0000      -0.816891       -22.2287 
   8   2.0000      -0.797134       -21.6911 
   9   2.0000      -0.740981       -20.1631 
  10   2.0000      -0.716954       -19.5093 
  11   2.0000      -0.658657       -17.9230 
  12   2.0000      -0.651509       -17.7285 
  13   2.0000      -0.627861       -17.0850 
  14   2.0000      -0.598980       -16.2991 
  15   2.0000      -0.589265       -16.0347 
  16   2.0000      -0.575520       -15.6607 
  17   2.0000      -0.566386       -15.4121 
  18   2.0000      -0.552062       -15.0224 
  19   2.0000      -0.548650       -14.9295 
  20   2.0000      -0.535975       -14.5846 
  21   2.0000      -0.532842       -14.4994 
  22   2.0000      -0.524280       -14.2664 
  23   2.0000      -0.505905       -13.7664 
  24   2.0000      -0.500419       -13.6171 
  25   2.0000      -0.496144       -13.5008 
  26   2.0000      -0.478594       -13.0232 
  27   2.0000      -0.476731       -12.9725 
  28   2.0000      -0.466740       -12.7007 
  29   2.0000      -0.462361       -12.5815 
  30   2.0000      -0.447216       -12.1694 
  31   2.0000      -0.435844       -11.8599 
  32   2.0000      -0.420938       -11.4543 
  33   2.0000      -0.408840       -11.1251 
  34   2.0000      -0.399862       -10.8808 
  35   2.0000      -0.337148        -9.1743 
  36   2.0000      -0.322223        -8.7681 
  37   0.0000       0.057454         1.5634 
  38   0.0000       0.074647         2.0312 
  39   0.0000       0.084368         2.2958 
  40   0.0000       0.090118         2.4522 
  41   0.0000       0.097399         2.6504 
  42   0.0000       0.100756         2.7417 
  43   0.0000       0.109785         2.9874 
  44   0.0000       0.113945         3.1006 
  45   0.0000       0.124260         3.3813 
  46   0.0000       0.126300         3.4368 
  47   0.0000       0.139907         3.8071 
*Only the first 10 virtual orbitals were printed.

                    ********************************
                    * MULLIKEN POPULATION ANALYSIS *
                    ********************************

-----------------------
MULLIKEN ATOMIC CHARGES
-----------------------
   0 C :   -0.097847
   1 C :   -0.071431
   2 C :   -0.017604
   3 C :   -0.083831
   4 C :   -0.054146
   5 C :   -0.079684
   6 C :    0.024362
   7 C :    0.079359
   8 O :   -0.306000
   9 C :    0.336114
  10 O :   -0.348199
  11 C :   -0.091252
  12 C :   -0.081442
  13 H :    0.057146
  14 H :    0.046528
  15 H :    0.037051
  16 H :    0.018384
  17 H :    0.050629
  18 H :    0.034182
  19 H :    0.049252
  20 H :    0.020463
  21 H :    0.028148
  22 H :    0.074853
  23 H :    0.064216
  24 H :    0.041987
  25 H :    0.050712
  26 H :    0.040872
  27 H :    0.049064
  28 H :    0.037567
  29 H :    0.040405
  30 H :    0.050142
Sum of atomic charges:   -0.0000000

--------------------------------
MULLIKEN REDUCED ORBITAL CHARGES
--------------------------------
  0 C s       :     0.955282  s :     0.955282
      pz      :     0.993968  p :     3.069362
      px      :     1.042858
      py      :     1.032536
      dz2     :     0.018074  d :     0.073203
      dxz     :     0.008904
      dyz     :     0.019309
      dx2y2   :     0.010472
      dxy     :     0.016444

  1 C s       :     1.098314  s :     1.098314
      pz      :     0.929331  p :     2.853414
      px      :     0.965666
      py      :     0.958417
      dz2     :     0.024893  d :     0.119703
      dxz     :     0.033468
      dyz     :     0.018517
      dx2y2   :     0.022538
      dxy     :     0.020287

  2 C s       :     1.035176  s :     1.035176
      pz      :     0.965427  p :     2.891818
      px      :     0.935151
      py      :     0.991240
      dz2     :     0.017456  d :     0.090609
      dxz     :     0.025018
      dyz     :     0.013619
      dx2y2   :     0.017802
      dxy     :     0.016715

  3 C s       :     0.993733  s :     0.993733
      pz      :     1.018915  p :     2.988717
      px      :     0.975387
      py      :     0.994414
      dz2     :     0.024667  d :     0.101381
      dxz     :     0.023045
      dyz     :     0.010240
      dx2y2   :     0.016152
      dxy     :     0.027275

  4 C s       :     0.990800  s :     0.990800
      pz      :     0.976747  p :     2.962527
      px      :     0.987493
      py      :     0.998287
      dz2     :     0.021317  d :     0.100819
      dxz     :     0.027474
      dyz     :     0.012963
      dx2y2   :     0.016007
      dxy     :     0.023058

  5 C s       :     1.094557  s :     1.094557
      pz      :     0.928797  p :     2.867244
      px      :     0.970948
      py      :     0.967499
      dz2     :     0.025460  d :     0.117883
      dxz     :     0.026584
      dyz     :     0.023524
      dx2y2   :     0.025853
      dxy     :     0.016463

  6 C s       :     1.033294  s :     1.033294
      pz      :     0.905734  p :     2.857747
      px      :     0.957616
      py      :     0.994398
      dz2     :     0.015421  d :     0.084597
      dxz     :     0.021525
      dyz     :     0.019427
      dx2y2   :     0.018059
      dxy     :     0.010166

  7 C s       :     1.033546  s :     1.033546
      pz      :     1.019372  p :     2.748800
      px      :     0.845503
      py      :     0.883925
      dz2     :     0.024826  d :     0.138295
      dxz     :     0.035735
      dyz     :     0.019750
      dx2y2   :     0.026846
      dxy     :     0.031137

  8 O s       :     1.699870  s :     1.699870
      pz      :     1.772177  p :     4.570027
      px      :     1.610108
      py      :     1.187741
      dz2     :     0.004519  d :     0.036103
      dxz     :     0.003466
      dyz     :     0.006345
      dx2y2   :     0.010486
      dxy     :     0.011287

  9 C s       :     1.122283  s :     1.122283
      pz      :     0.709791  p :     2.326101
      px      :     0.862927
      py      :     0.753383
      dz2     :     0.007899  d :     0.215502
      dxz     :     0.030399
      dyz     :     0.033661
      dx2y2   :     0.063472
      dxy     :     0.080071

 10 O s       :     1.802344  s :     1.802344
      pz      :     1.401130  p :     4.511731
      px      :     1.347262
      py      :     1.763339
      dz2     :     0.003323  d :     0.034124
      dxz     :     0.011453
      dyz     :     0.001628
      dx2y2   :     0.008858
      dxy     :     0.008863

 11 C s       :     0.955983  s :     0.955983
      pz      :     1.005157  p :     3.062396
      px      :     1.040194
      py      :     1.017046
      dz2     :     0.015815  d :     0.072873
      dxz     :     0.010991
      dyz     :     0.017606
      dx2y2   :     0.007149
      dxy     :     0.021312

 12 C s       :     0.959764  s :     0.959764
      pz      :     0.990541  p :     3.045854
      px      :     1.019055
      py      :     1.036257
      dz2     :     0.016312  d :     0.075825
      dxz     :     0.016889
      dyz     :     0.013688
      dx2y2   :     0.011505
      dxy     :     0.017430

 13 H s       :     0.898233  s :     0.898233
      pz      :     0.018778  p :     0.044621
      px      :     0.010449
      py      :     0.015395

 14 H s       :     0.908403  s :     0.908403
      pz      :     0.011057  p :     0.045069
      px      :     0.015722
      py      :     0.018290

 15 H s       :     0.918947  s :     0.918947
      pz      :     0.010159  p :     0.044002
      px      :     0.021524
      py      :     0.012320

 16 H s       :     0.932890  s :     0.932890
      pz      :     0.020774  p :     0.048727
      px      :     0.011221
      py      :     0.016732

 17 H s       :     0.906736  s :     0.906736
      pz      :     0.009319  p :     0.042635
      px      :     0.014373
      py      :     0.018943

 18 H s       :     0.922117  s :     0.922117
      pz      :     0.021064  p :     0.043701
      px      :     0.012776
      py      :     0.009860

 19 H s       :     0.908058  s :     0.908058
      pz      :     0.017130  p :     0.042690
      px      :     0.015847
      py      :     0.009714

 20 H s       :     0.936432  s :     0.936432
      pz      :     0.009453  p :     0.043105
      px      :     0.014482
      py      :     0.019170

 21 H s       :     0.922152  s :     0.922152
      pz      :     0.018289  p :     0.049701
      px      :     0.012897
      py      :     0.018514

 22 H s       :     0.884415  s :     0.884415
      pz      :     0.010870  p :     0.040732
      px      :     0.010201
      py      :     0.019661

 23 H s       :     0.894459  s :     0.894459
      pz      :     0.018924  p :     0.041325
      px      :     0.014350
      py      :     0.008051

 24 H s       :     0.914771  s :     0.914771
      pz      :     0.008818  p :     0.043241
      px      :     0.019180
      py      :     0.015243

 25 H s       :     0.904808  s :     0.904808
      pz      :     0.011264  p :     0.044479
      px      :     0.017209
      py      :     0.016006

 26 H s       :     0.915058  s :     0.915058
      pz      :     0.011062  p :     0.044070
      px      :     0.019024
      py      :     0.013984

 27 H s       :     0.906584  s :     0.906584
      pz      :     0.019870  p :     0.044352
      px      :     0.011241
      py      :     0.013241

 28 H s       :     0.919013  s :     0.919013
      pz      :     0.019095  p :     0.043420
      px      :     0.011815
      py      :     0.012511

 29 H s       :     0.915733  s :     0.915733
      pz      :     0.010842  p :     0.043862
      px      :     0.011950
      py      :     0.021070

 30 H s       :     0.905976  s :     0.905976
      pz      :     0.010594  p :     0.043882
      px      :     0.019184
      py      :     0.014104



                     *******************************
                     * LOEWDIN POPULATION ANALYSIS *
                     *******************************

----------------------
LOEWDIN ATOMIC CHARGES
----------------------
   0 C :   -0.115437
   1 C :   -0.056244
   2 C :   -0.052010
   3 C :   -0.090640
   4 C :   -0.084420
   5 C :   -0.037000
   6 C :   -0.048111
   7 C :   -0.032829
   8 O :   -0.059145
   9 C :    0.072986
  10 O :   -0.188549
  11 C :   -0.114035
  12 C :   -0.119544
  13 H :    0.054637
  14 H :    0.049036
  15 H :    0.052301
  16 H :    0.036174
  17 H :    0.054452
  18 H :    0.047475
  19 H :    0.054123
  20 H :    0.045982
  21 H :    0.040326
  22 H :    0.066785
  23 H :    0.055531
  24 H :    0.055852
  25 H :    0.051606
  26 H :    0.053499
  27 H :    0.052149
  28 H :    0.054889
  29 H :    0.048480
  30 H :    0.051681

-------------------------------
LOEWDIN REDUCED ORBITAL CHARGES
-------------------------------
  0 C s       :     0.775791  s :     0.775791
      pz      :     1.008081  p :     3.104370
      px      :     1.052711
      py      :     1.043578
      dz2     :     0.059363  d :     0.235276
      dxz     :     0.026674
      dyz     :     0.062296
      dx2y2   :     0.032152
      dxy     :     0.054791

  1 C s       :     0.800717  s :     0.800717
      pz      :     0.950134  p :     2.875957
      px      :     1.010444
      py      :     0.915380
      dz2     :     0.080337  d :     0.379569
      dxz     :     0.104654
      dyz     :     0.059767
      dx2y2   :     0.068007
      dxy     :     0.066804

  2 C s       :     0.806257  s :     0.806257
      pz      :     0.997156  p :     2.948331
      px      :     0.997219
      py      :     0.953956
      dz2     :     0.057877  d :     0.297423
      dxz     :     0.080816
      dyz     :     0.046448
      dx2y2   :     0.054517
      dxy     :     0.057764

  3 C s       :     0.763841  s :     0.763841
      pz      :     1.022022  p :     3.007422
      px      :     0.990422
      py      :     0.994978
      dz2     :     0.080771  d :     0.319377
      dxz     :     0.070802
      dyz     :     0.031583
      dx2y2   :     0.051482
      dxy     :     0.084738

  4 C s       :     0.763549  s :     0.763549
      pz      :     0.993788  p :     3.002556
      px      :     1.007851
      py      :     1.000917
      dz2     :     0.067353  d :     0.318315
      dxz     :     0.086856
      dyz     :     0.040582
      dx2y2   :     0.050542
      dxy     :     0.072982

  5 C s       :     0.797138  s :     0.797138
      pz      :     0.955086  p :     2.867957
      px      :     0.970047
      py      :     0.942825
      dz2     :     0.081623  d :     0.371904
      dxz     :     0.086214
      dyz     :     0.073522
      dx2y2   :     0.071648
      dxy     :     0.058897

  6 C s       :     0.808391  s :     0.808391
      pz      :     0.976754  p :     2.954698
      px      :     0.982822
      py      :     0.995123
      dz2     :     0.052251  d :     0.285022
      dxz     :     0.072953
      dyz     :     0.067129
      dx2y2   :     0.049848
      dxy     :     0.042840

  7 C s       :     0.766135  s :     0.766135
      pz      :     1.038744  p :     2.856313
      px      :     0.906656
      py      :     0.910913
      dz2     :     0.076153  d :     0.410381
      dxz     :     0.105749
      dyz     :     0.053113
      dx2y2   :     0.076802
      dxy     :     0.098564

  8 O s       :     1.405296  s :     1.405296
      pz      :     1.666120  p :     4.556134
      px      :     1.596972
      py      :     1.293041
      dz2     :     0.010595  d :     0.097716
      dxz     :     0.008000
      dyz     :     0.016486
      dx2y2   :     0.033725
      dxy     :     0.028910

  9 C s       :     0.814012  s :     0.814012
      pz      :     0.693599  p :     2.525384
      px      :     0.981475
      py      :     0.850311
      dz2     :     0.039698  d :     0.587618
      dxz     :     0.067903
      dyz     :     0.081034
      dx2y2   :     0.176974
      dxy     :     0.222010

 10 O s       :     1.573530  s :     1.573530
      pz      :     1.358910  p :     4.547595
      px      :     1.488301
      py      :     1.700384
      dz2     :     0.008052  d :     0.067424
      dxz     :     0.015413
      dyz     :     0.002279
      dx2y2   :     0.021391
      dxy     :     0.020288

 11 C s       :     0.775642  s :     0.775642
      pz      :     1.021774  p :     3.103346
      px      :     1.054360
      py      :     1.027211
      dz2     :     0.052924  d :     0.235047
      dxz     :     0.033949
      dyz     :     0.056307
      dx2y2   :     0.019979
      dxy     :     0.071888

 12 C s       :     0.777996  s :     0.777996
      pz      :     1.012634  p :     3.098645
      px      :     1.025883
      py      :     1.060129
      dz2     :     0.054717  d :     0.242903
      dxz     :     0.052649
      dyz     :     0.044642
      dx2y2   :     0.035973
      dxy     :     0.054923

 13 H s       :     0.797539  s :     0.797539
      pz      :     0.057380  p :     0.147824
      px      :     0.040698
      py      :     0.049745

 14 H s       :     0.801715  s :     0.801715
      pz      :     0.042035  p :     0.149249
      px      :     0.051982
      py      :     0.055233

 15 H s       :     0.802776  s :     0.802776
      pz      :     0.038230  p :     0.144923
      px      :     0.062438
      py      :     0.044255

 16 H s       :     0.808560  s :     0.808560
      pz      :     0.064706  p :     0.155266
      px      :     0.038428
      py      :     0.052132

 17 H s       :     0.800479  s :     0.800479
      pz      :     0.038700  p :     0.145069
      px      :     0.047940
      py      :     0.058428

 18 H s       :     0.804804  s :     0.804804
      pz      :     0.063441  p :     0.147721
      px      :     0.044457
      py      :     0.039823

 19 H s       :     0.799644  s :     0.799644
      pz      :     0.055071  p :     0.146233
      px      :     0.051268
      py      :     0.039893

 20 H s       :     0.808019  s :     0.808019
      pz      :     0.037454  p :     0.145998
      px      :     0.049431
      py      :     0.059113

 21 H s       :     0.806449  s :     0.806449
      pz      :     0.057299  p :     0.153225
      px      :     0.041099
      py      :     0.054827

 22 H s       :     0.796464  s :     0.796464
      pz      :     0.042346  p :     0.136751
      px      :     0.036192
      py      :     0.058213

 23 H s       :     0.803974  s :     0.803974
      pz      :     0.060726  p :     0.140495
      px      :     0.046727
      py      :     0.033042

 24 H s       :     0.811414  s :     0.811414
      pz      :     0.027736  p :     0.132734
      px      :     0.058999
      py      :     0.045999

 25 H s       :     0.800378  s :     0.800378
      pz      :     0.042774  p :     0.148015
      px      :     0.054471
      py      :     0.050770

 26 H s       :     0.801953  s :     0.801953
      pz      :     0.040689  p :     0.144548
      px      :     0.057347
      py      :     0.046513

 27 H s       :     0.799698  s :     0.799698
      pz      :     0.059976  p :     0.148153
      px      :     0.042100
      py      :     0.046077

 28 H s       :     0.803572  s :     0.803572
      pz      :     0.054884  p :     0.141539
      px      :     0.042025
      py      :     0.044629

 29 H s       :     0.804881  s :     0.804881
      pz      :     0.040229  p :     0.146639
      px      :     0.044197
      py      :     0.062213

 30 H s       :     0.801297  s :     0.801297
      pz      :     0.040454  p :     0.147022
      px      :     0.059073
      py      :     0.047495



                      *****************************
                      * MAYER POPULATION ANALYSIS *
                      *****************************

  NA   - Mulliken gross atomic population
  ZA   - Total nuclear charge
  QA   - Mulliken gross atomic charge
  VA   - Mayer's total valence
  BVA  - Mayer's bonded valence
  FA   - Mayer's free valence

  ATOM       NA         ZA         QA         VA         BVA        FA
  0 C      4.0978     4.0000    -0.0978     3.9864     3.9864     0.0000
  1 C      4.0714     4.0000    -0.0714     4.0634     4.0634    -0.0000
  2 C      4.0176     4.0000    -0.0176     3.9604     3.9604    -0.0000
  3 C      4.0838     4.0000    -0.0838     4.0050     4.0050     0.0000
  4 C      4.0541     4.0000    -0.0541     3.9705     3.9705     0.0000
  5 C      4.0797     4.0000    -0.0797     4.0590     4.0590    -0.0000
  6 C      3.9756     4.0000     0.0244     3.9256     3.9256     0.0000
  7 C      3.9206     4.0000     0.0794     3.9287     3.9287    -0.0000
  8 O      6.3060     6.0000    -0.3060     2.0274     2.0274    -0.0000
  9 C      3.6639     4.0000     0.3361     4.0538     4.0538    -0.0000
 10 O      6.3482     6.0000    -0.3482     1.9949     1.9949    -0.0000
 11 C      4.0913     4.0000    -0.0913     3.9843     3.9843    -0.0000
 12 C      4.0814     4.0000    -0.0814     3.9780     3.9780     0.0000
 13 H      0.9429     1.0000     0.0571     1.0201     1.0201     0.0000
 14 H      0.9535     1.0000     0.0465     1.0189     1.0189     0.0000
 15 H      0.9629     1.0000     0.0371     1.0305     1.0305    -0.0000
 16 H      0.9816     1.0000     0.0184     1.0352     1.0352    -0.0000
 17 H      0.9494     1.0000     0.0506     1.0158     1.0158    -0.0000
 18 H      0.9658     1.0000     0.0342     1.0210     1.0210     0.0000
 19 H      0.9507     1.0000     0.0493     1.0166     1.0166     0.0000
 20 H      0.9795     1.0000     0.0205     1.0262     1.0262     0.0000
 21 H      0.9719     1.0000     0.0281     1.0362     1.0362     0.0000
[...]
 43:   1091.18   0.000612    3.09  0.000175  (-0.011240  0.006560 -0.002389)
 44:   1097.55   0.000509    2.57  0.000145  (-0.011558  0.000751 -0.003256)
 45:   1129.27   0.000063    0.32  0.000017  (-0.002881 -0.002580 -0.001555)
 46:   1151.32   0.000981    4.96  0.000266  (-0.010191 -0.011175 -0.006088)
 47:   1169.12   0.002448   12.37  0.000653  ( 0.025537  0.001040  0.000346)
 48:   1215.78   0.000207    1.05  0.000053  (-0.007106 -0.001374  0.000934)
 49:   1244.54   0.019907  100.60  0.004992  (-0.026911 -0.059601  0.026740)
 50:   1250.80   0.020039  101.27  0.005000  (-0.019033 -0.053840  0.041697)
 51:   1267.42   0.016717   84.48  0.004116  ( 0.012440  0.046288 -0.042645)
 52:   1300.71   0.000675    3.41  0.000162  ( 0.005101 -0.002291 -0.011427)
 53:   1334.02   0.011639   58.82  0.002723  ( 0.034098  0.028210 -0.027643)
 54:   1378.13   0.002777   14.03  0.000629  ( 0.022807  0.008693 -0.005746)
 55:   1388.22   0.000569    2.87  0.000128  (-0.000529 -0.011281 -0.000580)
 56:   1405.11   0.001653    8.35  0.000367  (-0.018162 -0.005731  0.002109)
 57:   1422.66   0.000531    2.68  0.000116  ( 0.004510 -0.008164  0.005425)
 58:   1428.97   0.000787    3.98  0.000172  ( 0.007372 -0.010627 -0.002158)
 59:   1441.49   0.000788    3.98  0.000171  (-0.012454  0.001047  0.003793)
 60:   1450.66   0.001315    6.65  0.000283  (-0.004028 -0.003292  0.015997)
 61:   1460.69   0.002922   14.77  0.000624  (-0.012545  0.011119 -0.018525)
 62:   1463.67   0.002509   12.68  0.000535  ( 0.005674  0.015427  0.016268)
 63:   1502.73   0.000050    0.25  0.000010  (-0.000217 -0.003035  0.001092)
 64:   1503.38   0.000514    2.60  0.000107  ( 0.009851  0.002738  0.001500)
 65:   1507.72   0.001219    6.16  0.000252  (-0.005674 -0.013863  0.005277)
 66:   1517.72   0.003674   18.57  0.000755  ( 0.004065  0.026917  0.003787)
 67:   1521.78   0.002912   14.71  0.000597  ( 0.009935  0.017445  0.013930)
 68:   1524.63   0.001094    5.53  0.000224  ( 0.007921 -0.010769 -0.006729)
 69:   1527.82   0.001933    9.77  0.000395  (-0.009636  0.006958 -0.015926)
 70:   1533.83   0.002161   10.92  0.000440  (-0.012480 -0.000973  0.016819)
 71:   1539.98   0.001511    7.64  0.000306  ( 0.008179  0.004815  0.014700)
 72:   1800.21   0.004377   22.12  0.000759  ( 0.022151 -0.014522  0.007558)
 73:   1808.03   0.001027    5.19  0.000177  (-0.013262  0.000034 -0.001190)
 74:   1865.56   0.059642  301.41  0.009977  ( 0.085216 -0.013328 -0.050372)
 75:   3091.19   0.006667   33.69  0.000673  ( 0.018170  0.006587 -0.017307)
 76:   3098.19   0.009238   46.68  0.000930  (-0.028370  0.010742 -0.003195)
 77:   3104.35   0.001652    8.35  0.000166  ( 0.005147  0.009445 -0.007095)
 78:   3105.47   0.006223   31.45  0.000625  ( 0.001514 -0.010763 -0.022522)
 79:   3107.42   0.005621   28.41  0.000564  ( 0.002668 -0.023119  0.004783)
 80:   3141.44   0.008862   44.79  0.000880  (-0.006003  0.028899 -0.003033)
 81:   3160.27   0.005259   26.58  0.000519  ( 0.021054  0.006883  0.005351)
 82:   3163.27   0.003573   18.05  0.000352  ( 0.006890 -0.004693 -0.016822)
 83:   3165.32   0.001444    7.30  0.000142  (-0.002021 -0.010525 -0.005248)
 84:   3167.94   0.003154   15.94  0.000311  ( 0.004999  0.014029  0.009427)
 85:   3172.08   0.003904   19.73  0.000384  ( 0.015197 -0.009494  0.007937)
 86:   3185.45   0.000712    3.60  0.000070  ( 0.005942  0.005112 -0.002879)
 87:   3201.96   0.000492    2.48  0.000048  (-0.001118 -0.003959  0.005566)
 88:   3204.95   0.001634    8.26  0.000159  ( 0.004236 -0.002006 -0.011709)
 89:   3208.04   0.003566   18.02  0.000347  (-0.011927  0.008913 -0.011189)
 90:   3224.46   0.003110   15.72  0.000301  (-0.008016 -0.006037  0.014152)
 91:   3234.41   0.000510    2.58  0.000049  (-0.004585  0.004137  0.003330)
 92:   3245.92   0.001856    9.38  0.000178  ( 0.004357  0.001440  0.012545)

* The epsilon (eps) is given for a Dirac delta lineshape.
** The dipole moment derivative (T) already includes vibrational overlap.

The first frequency considered to be a vibration is 6
The total number of vibrations considered is 87


--------------------------
THERMOCHEMISTRY AT 298.15K
--------------------------

Temperature         ...   298.15 K
Pressure            ...     1.00 atm
Total Mass          ...   182.26 AMU
Quasi RRHO          ...     True
Cut-Off Frequency   ...     1.00 cm^-1

Throughout the following assumptions are being made:
  (1) The electronic state is orbitally nondegenerate
  (2) There are no thermally accessible electronically excited states
  (3) Hindered rotations indicated by low frequency modes are not
      treated as such but are treated as vibrations and this may
      cause some error
  (4) All equations used are the standard statistical mechanics
      equations for an ideal gas
  (5) All vibrations are strictly harmonic

freq.      21.35  E(vib)   ...       0.56 
freq.      33.96  E(vib)   ...       0.55 
freq.      42.37  E(vib)   ...       0.53 
freq.      68.68  E(vib)   ...       0.50 
freq.      91.19  E(vib)   ...       0.47 
freq.     100.13  E(vib)   ...       0.46 
freq.     124.93  E(vib)   ...       0.43 
freq.     138.74  E(vib)   ...       0.42 
freq.     147.18  E(vib)   ...       0.41 
freq.     190.83  E(vib)   ...       0.36 
freq.     223.07  E(vib)   ...       0.33 
freq.     250.73  E(vib)   ...       0.30 
freq.     303.98  E(vib)   ...       0.26 
freq.     330.88  E(vib)   ...       0.24 
freq.     356.53  E(vib)   ...       0.22 
freq.     372.68  E(vib)   ...       0.21 
freq.     393.95  E(vib)   ...       0.20 
freq.     421.74  E(vib)   ...       0.18 
freq.     466.76  E(vib)   ...       0.16 
freq.     500.35  E(vib)   ...       0.14 
freq.     530.98  E(vib)   ...       0.13 
freq.     550.46  E(vib)   ...       0.12 
freq.     613.99  E(vib)   ...       0.10 
freq.     766.81  E(vib)   ...       0.06 
freq.     783.06  E(vib)   ...       0.05 
freq.     827.23  E(vib)   ...       0.04 
freq.     875.65  E(vib)   ...       0.04 
freq.     884.83  E(vib)   ...       0.04 
freq.     924.14  E(vib)   ...       0.03 
freq.     958.98  E(vib)   ...       0.03 
freq.     972.33  E(vib)   ...       0.03 
freq.     987.47  E(vib)   ...       0.02 
freq.    1022.02  E(vib)   ...       0.02 
freq.    1030.58  E(vib)   ...       0.02 
freq.    1040.45  E(vib)   ...       0.02 
freq.    1063.11  E(vib)   ...       0.02 
freq.    1068.99  E(vib)   ...       0.02 
freq.    1091.18  E(vib)   ...       0.02 
freq.    1097.55  E(vib)   ...       0.02 
freq.    1129.27  E(vib)   ...       0.01 
freq.    1151.32  E(vib)   ...       0.01 
freq.    1169.12  E(vib)   ...       0.01 
freq.    1215.78  E(vib)   ...       0.01 
freq.    1244.54  E(vib)   ...       0.01 
freq.    1250.80  E(vib)   ...       0.01 
freq.    1267.42  E(vib)   ...       0.01 
freq.    1300.71  E(vib)   ...       0.01 
freq.    1334.02  E(vib)   ...       0.01 
freq.    1378.13  E(vib)   ...       0.01 
freq.    1388.22  E(vib)   ...       0.00 
freq.    1405.11  E(vib)   ...       0.00 
freq.    1422.66  E(vib)   ...       0.00 
freq.    1428.97  E(vib)   ...       0.00 
freq.    1441.49  E(vib)   ...       0.00 
freq.    1450.66  E(vib)   ...       0.00 
freq.    1460.69  E(vib)   ...       0.00 
freq.    1463.67  E(vib)   ...       0.00 
freq.    1502.73  E(vib)   ...       0.00 
freq.    1503.38  E(vib)   ...       0.00 
freq.    1507.72  E(vib)   ...       0.00 
freq.    1517.72  E(vib)   ...       0.00 
freq.    1521.78  E(vib)   ...       0.00 
freq.    1524.63  E(vib)   ...       0.00 
freq.    1527.82  E(vib)   ...       0.00 
freq.    1533.83  E(vib)   ...       0.00 
freq.    1539.98  E(vib)   ...       0.00 
freq.    1800.21  E(vib)   ...       0.00 
freq.    1808.03  E(vib)   ...       0.00 
freq.    1865.56  E(vib)   ...       0.00 
freq.    3091.19  E(vib)   ...       0.00 
freq.    3098.19  E(vib)   ...       0.00 
freq.    3104.35  E(vib)   ...       0.00 
freq.    3105.47  E(vib)   ...       0.00 
freq.    3107.42  E(vib)   ...       0.00 
freq.    3141.44  E(vib)   ...       0.00 
freq.    3160.27  E(vib)   ...       0.00 
freq.    3163.27  E(vib)   ...       0.00 
freq.    3165.32  E(vib)   ...       0.00 
freq.    3167.94  E(vib)   ...       0.00 
freq.    3172.08  E(vib)   ...       0.00 
freq.    3185.45  E(vib)   ...       0.00 
freq.    3201.96  E(vib)   ...       0.00 
freq.    3204.95  E(vib)   ...       0.00 
freq.    3208.04  E(vib)   ...       0.00 
freq.    3224.46  E(vib)   ...       0.00 
freq.    3234.41  E(vib)   ...       0.00 
freq.    3245.92  E(vib)   ...       0.00 

------------
INNER ENERGY
------------

The inner energy is: U= E(el) + E(ZPE) + E(vib) + E(rot) + E(trans)
    E(el)   - is the total energy from the electronic structure calculation
              = E(kin-el) + E(nuc-el) + E(el-el) + E(nuc-nuc)
    E(ZPE)  - the the zero temperature vibrational energy from the frequency calculation
    E(vib)  - the the finite temperature correction to E(ZPE) due to population
              of excited vibrational states
    E(rot)  - is the rotational thermal energy
    E(trans)- is the translational thermal energy

Summary of contributions to the inner energy U:
Electronic energy                ...   -105.62029931 Eh
Zero point energy                ...      0.27727116 Eh     173.99 kcal/mol
Thermal vibrational correction   ...      0.01257651 Eh       7.89 kcal/mol
Thermal rotational correction    ...      0.00141627 Eh       0.89 kcal/mol
Thermal translational correction ...      0.00141627 Eh       0.89 kcal/mol
-----------------------------------------------------------------------
Total thermal energy                   -105.32761910 Eh


Summary of corrections to the electronic energy:
(perhaps to be used in another calculation)
Total thermal correction                  0.01540905 Eh       9.67 kcal/mol
Non-thermal (ZPE) correction              0.27727116 Eh     173.99 kcal/mol
-----------------------------------------------------------------------
Total correction                          0.29268020 Eh     183.66 kcal/mol


--------
ENTHALPY
--------

The enthalpy is H = U + kB*T
                kB is Boltzmann's constant
Total thermal energy              ...   -105.32761910 Eh 
Thermal Enthalpy correction       ...      0.00094421 Eh       0.59 kcal/mol
-----------------------------------------------------------------------
Total Enthalpy                    ...   -105.32667489 Eh


Note: Only C1 symmetry has been detected, increase convergence thresholds 
      if your molecule has a higher symmetry. Symmetry factor of 1.0 is   
      used for the rotational entropy correction. 
 

Note: Rotational entropy computed according to Herzberg 
Infrared and Raman Spectra, Chapter V,1, Van Nostrand Reinhold, 1945 
Point Group:  C1, Symmetry Number:   1  
Rotational constants in cm-1:     0.040411     0.013673     0.011790 

Vibrational entropy computed according to the QRRHO of S. Grimme
Chem.Eur.J. 2012 18 9955 using a reference frequency of 100.0 cm-1


-------
ENTROPY
-------

The entropy contributions are T*S = T*(S(el)+S(vib)+S(rot)+S(trans))
     S(el)   - electronic entropy
     S(vib)  - vibrational entropy
     S(rot)  - rotational entropy
     S(trans)- translational entropy
The entropies will be listed as multiplied by the temperature to get
units of energy

Electronic entropy                ...      0.00000000 Eh      0.00 kcal/mol
Vibrational entropy               ...      0.02295433 Eh     14.40 kcal/mol
Rotational entropy                ...      0.01514825 Eh      9.51 kcal/mol
Translational entropy             ...      0.01972140 Eh     12.38 kcal/mol
-----------------------------------------------------------------------
Final entropy term                ...      0.05782399 Eh     36.29 kcal/mol

In case the symmetry of your molecule has not been determined correctly
or in case you have a reason to use a different symmetry number we print 
out the resulting rotational entropy values for sn=1,12:

 non-linear molecules -----------------------------------
|  sn= 1 | S(rot)=       0.01514825 Eh      9.51 kcal/mol|
|  sn= 2 | S(rot)=       0.01449380 Eh      9.09 kcal/mol|
|  sn= 3 | S(rot)=       0.01411096 Eh      8.85 kcal/mol|
|  sn= 4 | S(rot)=       0.01383934 Eh      8.68 kcal/mol|
|  sn= 5 | S(rot)=       0.01362865 Eh      8.55 kcal/mol|
|  sn= 6 | S(rot)=       0.01345651 Eh      8.44 kcal/mol|
|  sn= 7 | S(rot)=       0.01331096 Eh      8.35 kcal/mol|
|  sn= 8 | S(rot)=       0.01318488 Eh      8.27 kcal/mol|
|  sn= 9 | S(rot)=       0.01307368 Eh      8.20 kcal/mol|
|  sn=10 | S(rot)=       0.01297420 Eh      8.14 kcal/mol|
|  sn=11 | S(rot)=       0.01288421 Eh      8.08 kcal/mol|
|  sn=12 | S(rot)=       0.01280205 Eh      8.03 kcal/mol|
 linear molecules ---------------------------------------
|  Dinfh | S(rot)=       0.00951842 Eh      5.97 kcal/mol|
|  Cinfv | S(rot)=       0.01017288 Eh      6.38 kcal/mol|
 --------------------------------------------------------


-------------------
GIBBS FREE ENERGY
-------------------

The Gibbs free energy is G = H - T*S

Total enthalpy                    ...   -105.32667489 Eh 
Total entropy correction          ...     -0.05782399 Eh    -36.29 kcal/mol
-----------------------------------------------------------------------
Final Gibbs free energy         ...   -105.38449888 Eh

For completeness - the Gibbs free energy minus the electronic energy
G-E(el)                           ...      0.23580043 Eh    147.97 kcal/mol


Maximum memory used throughout the entire PROP-calculation: 164.2 MB

--------------------------------
SUGGESTED CITATIONS FOR THIS RUN
--------------------------------

Below you find a list of papers that are relevant to this ORCA run
We neither can nor want to force you to cite these papers, but we appreciate if you do
You receive ORCA, which is the product of decades of hard work by many enthusiastic individuals, for free
The only thing we kindly ask in return is that you cite our papers,
We deeply appreciate it, if you show your appreciation for ORCA by not just citing the generic ORCA reference.

Please note that relegating all ORCA citations to the supporting information does *not* help us.
SI sections are not indexed - citations you put there will not count into any citation statistics
But we need these citations in order to attract the funding resources that allow us to do what we are doing

Therefore, if you are a happy ORCA user, please consider citing a few of the papers listed below in the main body of your paper

In addition to the list printed below, the program has created the file ./output/geranyl_formate/geranyl_formate.bibtex that contains the list in bibtex format
You can import this file easily into all common literature databanks and citation aid programs


List of essential papers. We consider these as the minimum necessary citations

  1. Neese,F.
     Software update: the ORCA program system, version 5.0
     WIRES Comput. Molec. Sci., 2022 12(1)e1606
     doi.org/10.1002/wcms.1606
  2. Mueller,M.; Hansen,A.; Grimme,S.
     wB97X-3c: A composite range-separated hybrid DFT method with a molecule-optimized polarized valence double-zeta basis set
     J. Chem. Phys., 2023 158 014103
     doi.org/10.1063/5.0133026

List of papers to cite with high priority. The work reported in these papers was absolutely
necessary for this run to complete.
Our perspective: the developers of density functionals and basis sets usually get cited in chemistry papers
Good! But without the algorithms to do something with them, the functionals or basis sets would not do anything.
Hence, in our opinion, the algorithm design and method developments papers are equally worthy of getting cited

  1. Neese,F.
     An improvement of the resolution of the identity approximation for the formation of the Coulomb matrix
     J. Comp. Chem., 2003 24(14)1740-1747
     doi.org/10.1002/jcc.10318
  2. Neese,F.; Wennmohs,F.; Hansen,A.; Becker,U.
     Efficient, approximate and parallel Hartree-Fock and hybrid DFT calculations. A 'chain-of-spheres' algorithm for the Hartree-Fock exchange
     Chem. Phys., 2009 356(1-3)98-109
     doi.org/10.1016/j.chemphys.2008.10.036
  3. Bykov,D.; Petrenko,T.; Izsak,R.; Kossmann,S.; Becker,U.; Valeev,E.; Neese,F.
     Efficient implementation of the analytic second derivatives of Hartree-Fock and hybrid DFT energies: a detailed analysis of different approximations
     Molec. Phys., 2015 113 1961-1977
     doi.org/10.1080/00268976.2015.1025114
  4. Helmich-Paris,B.; de Souza,B.; Neese,F.; Izsák,R.
     An improved chain of spheres for exchange algorithm
     J. Chem. Phys., 2021 155 104109
     doi.org/doi: 10.1063/5.0058766.
  5. Neese,F.
     The SHARK Integral Generation and Digestion System
     J. Comp. Chem., 2022  1-16
     doi.org/10.1002/jcc.26942
  6. Caldeweyher,E.; Bannwarth,C.; Grimme,S.
     Extension of the D3 dispersion coefficient model
     J. Chem. Phys., 2017 147 034112
     doi.org/10.1063/1.4993215
  7. Caldeweyher,E.; Ehlert,S.; Hansen,A.; Neugebauer,H.; Spicher,S.; Bannwarth,C.; Grimme,S.
     A generally applicable atomic-charge dependent London dispersion correction
     J. Chem. Phys., 2019 150 154122
     doi.org/10.1063/1.5090222
  8. Caldeweyher,E.; Mewes,J.; Ehlert,S.; Grimme,S.
     Extension and evaluation of the D4 London-dispersion model for periodic systems
     Phys. Chem. Chem. Phys., 2020 22(16)8499-8512
     doi.org/10.1039/D0CP00502A
  9. Wittmann,L.; Gordiy,I.; Friede,M.; Helmich-Paris,B.; Grimme,S.; Hansen,A.; Bursch,M.
     Extension of the D3 and D4 London Dispersion Corrections to the full Actinides Series
     Phys. Chem. Chem. Phys., 2024 26(32)21379-21394
     doi.org/https://doi.org/10.1039/D4CP01514B 

List of suggested additional citations. These are papers that are important in the 'surrounding' of 
of this run, or papers that preceded the highly important papers. If you like your results we are grateful for a citation.

  1. Izsak,R.; Neese,F.
     An overlap fitted chain of spheres exchange method
     J. Chem. Phys., 2011 135 144105
     doi.org/10.1063/1.3646921
  2. Izsak,R.; Hansen,A.; Neese,F.
     The resolution of identity and chain of spheres approximations for the LPNO-CCSD singles Fock term
     Molec. Phys., 2012 110 2413-2417
     doi.org/10.1080/00268976.2012.687466
  3. Neese,F.
     The ORCA program system
     WIRES Comput. Molec. Sci., 2012 2(1)73-78
     doi.org/10.1002/wcms.81
  4. Izsak,R.; Neese,F.; Klopper,W.
     Robust fitting techniques in the chain of spheres approximation to the Fock exchange: The role of the complementary space
     J. Chem. Phys., 2013 139 
     doi.org/10.1063/1.4819264
  5. Neese,F.
     Software update: the ORCA program system, version 4.0
     WIRES Comput. Molec. Sci., 2018 8(1)1-6
     doi.org/10.1002/wcms.1327
  6. Neese,F.; Wennmohs,F.; Becker,U.; Riplinger,C.
     The ORCA quantum chemistry program package
     J. Chem. Phys., 2020 152 Art. No. L224108
     doi.org/10.1063/5.0004608

List of optional additional citations

  1. Neese,F.
     Approximate second-order SCF convergence for spin unrestricted wavefunctions
     Chem. Phys. Lett., 2000 325(1-3)93-98
     doi.org/10.1016/s0009-2614(00)00662-x

Timings for individual modules:

Sum of individual times          ...     2932.480 sec (=  48.875 min)
Startup calculation              ...      169.146 sec (=   2.819 min)   5.8 %
SCF iterations                   ...     2075.611 sec (=  34.594 min)  70.8 %
Property integrals               ...      102.030 sec (=   1.700 min)   3.5 %
SCF Response                     ...       59.494 sec (=   0.992 min)   2.0 %
Property calculations            ...      121.381 sec (=   2.023 min)   4.1 %
SCF Gradient evaluation          ...      403.870 sec (=   6.731 min)  13.8 %
Geometry relaxation              ...        0.950 sec (=   0.016 min)   0.0 %
                             ****ORCA TERMINATED NORMALLY****
TOTAL RUN TIME: 0 days 0 hours 49 minutes 12 seconds 491 msec
