
                                 *****************
                                 * O   R   C   A *
                                 *****************

                                            #,                                       
                                            ###                                      
                                            ####                                     
                                            #####                                    
                                            ######                                   
                                           ########,                                 
                                     ,,################,,,,,                         
                               ,,#################################,,                 
                          ,,##########################################,,             
                       ,#########################################, ''#####,          
                    ,#############################################,,   '####,        
                  ,##################################################,,,,####,       
                ,###########''''           ''''###############################       
              ,#####''   ,,,,##########,,,,          '''####'''          '####       
            ,##' ,,,,###########################,,,                        '##       
           ' ,,###''''                  '''############,,,                           
         ,,##''                                '''############,,,,        ,,,,,,###''
      ,#''                                            '''#######################'''  
     '                                                          ''''####''''         
             ,#######,   #######,   ,#######,      ##                                
            ,#'     '#,  ##    ##  ,#'     '#,    #''#        ,####,   ,####,        
            ##       ##  ##   ,#'  ##            #'  '#       #'       #'  '#        
            ##       ##  #######   ##           ,######,      #####,   #    #        
            '#,     ,#'  ##    ##  '#,     ,#' ,#      #,     #,   #   #,  ,#        
             '#######'   ##     ##  '#######'  #'      '#     '####' # '####'        



                #########################################################
                #                        -***-                          #
                #          Department of theory and spectroscopy        #
                #                                                       #
                #                      Frank Neese                      #
                #                                                       #
                #     Directorship, Architecture, Infrastructure        #
                #                    SHARK, DRIVERS                     #
                #        Core code/Algorithms in most modules           #
                #                                                       #
                #        Max Planck Institute fuer Kohlenforschung      #
                #                Kaiser Wilhelm Platz 1                 #
                #                 D-45470 Muelheim/Ruhr                 #
                #                      Germany                          #
                #                                                       #
                #                  All rights reserved                  #
                #                        -***-                          #
                #########################################################


                         Program Version 6.0.1  -  RELEASE   -


 With contributions from (in alphabetic order):
[Max-Planck-Institut fuer Kohlenforschung]                               
  Daniel Aravena         : Magnetic Suceptibility                        
  Michael Atanasov       : Ab Initio Ligand Field Theory (pilot matlab implementation)
  Alexander A. Auer      : GIAO ZORA, VPT2 properties, NMR spectrum      
  Ute Becker             : All parallelization in ORCA, NUMFREQ, NUMCALC 
  Giovanni Bistoni       : ED, misc. LED, open-shell LED, HFLD           
  Martin Brehm           : Molecular dynamics                            
  Dmytro Bykov           : pre 5.0 version of the SCF Hessian            
  Marcos Casanova-Páez   : Triplet and SCS-CIS(D). UHF-(DLPNO)-IP/EA/STEOM-CCSD. UHF-CVS-IP/STEOM-CCSD   
  Vijay G. Chilkuri      : MRCI spin determinant printing, contributions to CSF-ICE 
  Pauline Colinet        : FMM embedding                                 
  Dipayan Datta          : RHF DLPNO-CCSD density                        
  Achintya Kumar Dutta   : EOM-CC, STEOM-CC                              
  Nicolas Foglia         : Exact transition moments, OPA infrastructure, MCD improvements    
  Dmitry Ganyushin       : Spin-Orbit,Spin-Spin,Magnetic field MRCI      
  Miquel Garcia-Rates    : C-PCM and meta-GGA Hessian, CCSD/C-PCM, Gaussian charge scheme 
  Tiago L. C. Gouveia    : GS-ROHF, GS-ROCIS                             
  Yang Guo               : DLPNO-NEVPT2, F12-NEVPT2, CIM, IAO-localization        
  Andreas Hansen         : Spin unrestricted coupled pair/coupled cluster methods 
  Ingolf Harden          : AUTO-CI MPn and infrastructure                
  Benjamin Helmich-Paris : MC-RPA, TRAH-(SCF,CASSCF), AVAS, COSX integrals, SCF dyn. polar. 
  Lee Huntington         : MR-EOM, pCC                                   
  Robert Izsak           : Overlap fitted RIJCOSX, COSX-SCS-MP3, EOM     
  Riya Kayal             : Wick's Theorem for AUTO-CI, AUTO-CI UHF-CCSDT 
  Emily Kempfer          : AUTO-CI, RHF CISDT and CCSDT                  
  Christian Kollmar      : KDIIS, OOCD, Brueckner-CCSD(T), CCSD density, CASPT2, CASPT2-K, improved NEVPT2 
  Axel Koslowski         : Symmetry handling                             
  Simone Kossmann        : meta-GGA functionals, TD-DFT gradient, OOMP2, (MP2 Hessian; deprecated post 5.0) 
  Lucas Lang             : DCDCAS                                        
  Marvin Lechner         : AUTO-CI (C++ implementation), FIC-MRCC        
  Spencer Leger          : CASSCF response                               
  Dagmar Lenk            : GEPOL surface, SMD, ORCA-2-JSON               
  Dimitrios Liakos       : Extrapolation schemes; Compound Job, initial MDCI parallelization 
  Dimitrios Manganas     : Further ROCIS development; embedding schemes. LFT, Crystal Embedding 
  Dimitrios Pantazis     : SARC Basis sets                               
  Anastasios Papadopoulos: AUTO-CI, single reference methods and gradients 
  Taras Petrenko         : pre 6.0 DFT Hessian and TD-DFT gradient, (ASA, deprecated), ECA, 1-Electron XAS/XES, NRVS 
  Peter Pinski           : DLPNO-MP2, DLPNO-MP2 Gradient                 
  Christoph Reimann      : Effective Core Potentials                     
  Marius Retegan         : Local ZFS, SOC                                
  Christoph Riplinger    : Optimizer, TS searches, QM/MM, DLPNO-CCSD(T), (RO)-DLPNO pert. Triples 
  Michael Roemelt        : Original ROCIS implementation                 
  Masaaki Saitow         : Open-shell DLPNO-CCSD energy and density      
  Barbara Sandhoefer     : DKH picture change effects                    
  Kantharuban Sivalingam : CASSCF convergence/infrastructure, NEVPT2 and variants, FIC-MRCI 
  Bernardo de Souza      : ESD, SOC TD-DFT                               
  Georgi L. Stoychev     : AutoAux, RI-MP2 NMR, DLPNO-MP2 response, X2C  
  Van Anh Tran           : RI-MP2 g-tensors                              
  Willem Van den Heuvel  : Paramagnetic NMR                              
  Zikuan Wang            : NOTCH, Electric field optimization            
  Frank Wennmohs         : Technical directorship and infrastructure     
  Hang Xu                : AUTO-CI-Response properties                   
                                                                         
[FACCTs GmbH]                                                            
  Markus Bursch, Miquel Garcia-Rates, Christoph Riplinger, Bernardo de Souza, Georgi L. Stoychev 
                                                                 
  APM, Basis sets (HGBS, AHGBS, def-TZVP (Ac-Lr), def2-XVPD (La-Lu)), CI-OPT, improved COSX, DLPNO-Multilevel,           
  DOCKER, DRACO, updates on ESD, GOAT, IRC, LR-CPCM, MBIS, meta-GGA TD-DFT gradient, ML-optimized integration grids, 
  MM, NACMEs, nearIR, NEB, NEB-TS, NL-DFT gradient (VV10), 2- and 3-layer-ONIOM, interface openCOSMO-RS, QMMM,   
  Crystal-QMMM, SF, symmetry and pop. for TD-DFT, r2SCAN hybrids, SOLVATOR                                   
                                                                         
[Other institutions]                                                     
  V. Asgeirsson          : NEB                                           
  Christoph Bannwarth    : sTDA-DFT, sTD-DFT, PBEh-3c, B97-3c, D3        
  Sebastian Ehlert       : rSCAN, r2SCAN, r2SCAN-3c, D4, dhf basis sets  
  Marvin Friede          : D4 for Fr, Ra, Ac-Lr                          
  Lars Goerigk           : TD-DFT with DH, B97 family of functionals     
  Stefan Grimme          : VdW corrections, initial TS optimization, DFT functionals, gCP, sTDA/sTD-DF 
  Waldemar Hujo          : DFT-NL                                        
  H. Jonsson             : NEB                                           
  Holger Kruse           : gCP                                           
  Marcel Mueller         : wB97X-3c, vDZP basis set                      
  Hagen Neugebauer       : wr2SCAN                                       
  Tobias Risthaus        : range-separated hybrid DFT                    
  Lukas Wittmann         : regularized MP2, r2SCAN double-hybrids, wr2SCAN        
                                                                         
We gratefully acknowledge several colleagues who have allowed us to      
interface, adapt or use parts of their codes:                            
  Ed Valeev, F. Pavosevic, A. Kumar             : LibInt (2-el integral package), F12 methods 
  Garnet Chan, S. Sharma, J. Yang, R. Olivares  : DMRG                   
  Ulf Ekstrom                                   : XCFun DFT Library      
  Mihaly Kallay                                 : mrcc  (arbitrary order and MRCC methods)
  Frank Weinhold                                : gennbo (NPA and NBO analysis)           
  Simon Mueller                                 : openCOSMO-RS                            
  Christopher J. Cramer and Donald G. Truhlar   : smd solvation model                     
  S Lehtola, MJT Oliveira, MAL Marques          : LibXC Library                           
  Liviu Ungur et al                             : ANISO software                          


 Your calculation uses the libint2 library for the computation of 2-el integrals
 For citations please refer to: http://libint.valeyev.net

 Your ORCA version has been built with support for libXC version: 6.2.2
 For citations please refer to: https://libxc.gitlab.io

 This ORCA versions uses:
   CBLAS   interface :  Fast vector & matrix operations
   LAPACKE interface :  Fast linear algebra routines
   SCALAPACK package :  Parallel linear algebra routines
   Shared memory     :  Shared parallel matrices
   BLAS/LAPACK       :  OpenBLAS 0.3.27  USE64BITINT DYNAMIC_ARCH NO_AFFINITY SkylakeX SINGLE_THREADED
        Core in use  :  SkylakeX
   Copyright (c) 2011-2014, The OpenBLAS Project


Your calculation utilizes the atom-pairwise dispersion correction
based on EEQ partial charges (D4)


================================================================================

cite the ECPs for C  [vDZP-ECP] as follows:
   B-Ne (ecp-2-mwb), Al-Ar (ecp-10-mwb), Ga-Kr (ecp-28-mwb), Y-Cd (ecp-28-mwb), In-Xe (ecp-46-mwb):
     A. Bergner, M. Dolg, W. Küchle, H. Stoll, and H. Preuß, Mol. Phys. 80, 1431 (1993)., T. Leininger, A. Berning, A. Nicklass, H. Stoll, H.-J. Werner, and H.-J.Flad, Chem. Phys. 217, 19 (1997).
   Na-Mg, K-Ca, Rb-Sr, Cs-Ba (CRENBL):
     L. Fernandez Pacios and P. A. Christiansen, J. Chem. Phys. 82, 2664 (1985)., M. M. Hurley, L. F. Pacios, P. A. Christiansen, R. B. Ross, and W. C. Ermler, J. Chem. Phys. 84, 6840 (1986)., L. A. LaJohn, P. A. Christiansen, R. B. Ross, T. Atashroo, and W. C. Ermler, J. Chem. Phys. 87, 2812 (1987)., R. B. Ross, J. M. Powers, T. Atashroo, W. C. Ermler, L. A. LaJohn, and P. A. Christiansen, J. Chem. Phys. 93, 6654 (1990). 
   Sc-Zn (ecp-10-mdf):
     M. Dolg, U. Wedig, H. Stoll, and H. Preuss, J. Chem. Phys. 86, 866 (1986). 
   Y-Cd (ecp-28-mwb), Hf-Hg (ecp-60-mwb):
     D. Andrae, U. Häußermann, M. Dolg, H. Stoll, and H. Preuß, Theor. Chim. Acta 77, 123 (1990). 
   La (ecp-46-mwb):
     M. Dolg, H. Stoll, and H. Preuss, J. Chem. Phys. 90, 1730 (1989)., M. Dolg, H. Stoll, and H. Preuss, Theor. Chim. Acta 85, 441 (1993).
   Ce-Lu (SBKJC-ecp):
     T. R. Cundari and W. J. Stevens, J. Chem. Phys. 98, 5555 (1993).
   Tl-Rn (ecp-78-mwb):
     W. Küchle, M. Dolg, H. Stoll, and H. Preuss, Mol. Phys. 74, 1245 (1991).

ECP parameters for C  [vDZP-ECP] have been obtained from:
MM, AH, SG, J. Chem. Phys. 158, 014103 (2023), 10.1063/5.0133026

----- Orbital basis set information -----
Your calculation utilizes the basis: vDZP
   Marcel Mueller, Andreas Hansen, Stefan Grimme 
   J. Chem. Phys. 158, 014103 (2023). DOI: 10.1063/5.0133026

----- AuxJ basis set information -----
Your calculation utilizes the auxiliary basis: def2/J
   F. Weigend, Phys. Chem. Chem. Phys. 8, 1057 (2006).

================================================================================
                                        WARNINGS
                       Please study these warnings very carefully!
================================================================================

WARNING: Frozen-Core approximation turned on, but there are no core electrons.
  ===> : Turning off frozen-core approximation


WARNING: Geometry Optimization
  ===> : Switching off AutoStart
         For restart on a previous wavefunction, please use MOREAD

================================================================================
                                       INPUT FILE
================================================================================
NAME = ./output/beta_patchoulene/beta_patchoulene.inp
|  1> ! wB97X-3c OPT FREQ TightSCF
|  2> %pal
|  3>   nprocs 40
|  4> end
|  5> * xyz 0 1
|  6> C      2.911777     1.254297     1.613107
|  7> C      2.657491     0.595597     0.252968
|  8> C      3.038029    -0.898526     0.259825
|  9> C      1.723821    -1.684325     0.167766
| 10> C      0.690533    -0.644041    -0.098315
| 11> C      1.202862     0.587931    -0.078846
| 12> C      0.340325     1.828229    -0.254517
| 13> C     -1.117505     1.452942    -0.661120
| 14> C     -1.110555     0.893029    -2.102080
| 15> C     -0.925931    -0.628663    -1.960111
| 16> C     -0.786088    -0.883476    -0.442367
| 17> C     -1.640536     0.262334     0.189104
| 18> C     -1.429846     0.443882     1.720075
| 19> C     -3.172924     0.087062    -0.025997
| 20> C     -1.242853    -2.303681    -0.052082
| 21> H      2.322588     0.751770     2.410729
| 22> H      3.990919     1.189722     1.867706
| 23> H      2.631151     2.328061     1.577574
| 24> H      3.221318     1.138000    -0.537296
| 25> H      3.606679    -1.192847     1.169621
| 26> H      3.667582    -1.123775    -0.629195
| 27> H      1.761840    -2.419595    -0.664359
| 28> H      1.503270    -2.197369     1.128329
| 29> H      0.316703     2.394975     0.699838
| 30> H      0.798178     2.495193    -1.015920
| 31> H     -1.772283     2.348897    -0.582902
| 32> H     -0.303866     1.334866    -2.727140
| 33> H     -2.079914     1.114639    -2.599515
| 34> H     -0.034113    -0.978023    -2.527760
| 35> H     -1.811859    -1.155190    -2.378397
| 36> H     -1.875529    -0.408597     2.275241
| 37> H     -1.926524     1.377073     2.061913
| 38> H     -0.367316     0.498755     2.025072
| 39> H     -3.443713    -0.122872    -1.079480
| 40> H     -3.707789     1.012552     0.277842
| 41> H     -3.568170    -0.745271     0.594072
| 42> H     -0.619533    -3.065639    -0.565731
| 43> H     -2.295150    -2.486341    -0.352187
| 44> H     -1.153067    -2.451574     1.044536
| 45> *
| 46> 
| 47>                          ****END OF INPUT****
================================================================================

                       *****************************
                       * Geometry Optimization Run *
                       *****************************

Geometry optimization settings:
Update method            Update   .... BFGS
Choice of coordinates    CoordSys .... (2022) Redundant Internals
Initial Hessian          InHess   .... Almloef's Model
Max. no of cycles        MaxIter  .... 117

Convergence Tolerances:
Energy Change            TolE     ....  5.0000e-06 Eh
Max. Gradient            TolMAXG  ....  3.0000e-04 Eh/bohr
RMS Gradient             TolRMSG  ....  1.0000e-04 Eh/bohr
Max. Displacement        TolMAXD  ....  4.0000e-03 bohr
RMS Displacement         TolRMSD  ....  2.0000e-03 bohr
Strict Convergence                .... False

------------------------------------------------------------------------------
                        ORCA OPTIMIZATION COORDINATE SETUP
------------------------------------------------------------------------------

The optimization will be done in redundant internal coordinates (2022)
Making redundant internal coordinates   ...  (2022 redundants) done
Evaluating the initial hessian          ...  (Almloef) done
Evaluating the coordinates              ...  done
Calculating the B-matrix                .... done
Calculating the G-matrix                .... done
Diagonalizing the G-matrix              .... done
Small eigenvalue found = 2.245e-02
Small eigenvalue found = 2.686e-02
The first mode is                       ....  110
The number of degrees of freedom        ....  111

    -----------------------------------------------------------------
                    Redundant Internal Coordinates


    -----------------------------------------------------------------
         Definition                    Initial Value    Approx d2E/dq
    -----------------------------------------------------------------
      1. B(C   1,C   0)                  1.5325         0.370173   
      2. B(C   2,C   1)                  1.5418         0.357679   
      3. B(C   3,C   2)                  1.5340         0.368151   
      4. B(C   4,C   3)                  1.4902         0.432402   
      5. B(C   5,C   1)                  1.4920         0.429519   
      6. B(C   5,C   4)                  1.3344         0.766390   
      7. B(C   6,C   5)                  1.5209         0.386259   
      8. B(C   7,C   6)                  1.5593         0.335445   
      9. B(C   8,C   7)                  1.5459         0.352333   
     10. B(C   9,C   8)                  1.5394         0.360879   
     11. B(C  10,C   9)                  1.5453         0.353123   
     12. B(C  10,C   4)                  1.5350         0.366826   
     13. B(C  11,C  10)                  1.5626         0.331411   
     14. B(C  11,C   7)                  1.5537         0.342423   
     15. B(C  12,C  11)                  1.5560         0.339510   
     16. B(C  13,C  11)                  1.5573         0.337919   
     17. B(C  14,C  10)                  1.5421         0.357389   
     18. B(H  15,C   0)                  1.1117         0.332507   
     19. B(H  16,C   0)                  1.1106         0.333796   
     20. B(H  17,C   0)                  1.1104         0.334103   
     21. B(H  18,C   1)                  1.1120         0.332101   
     22. B(H  19,C   2)                  1.1125         0.331499   
     23. B(H  20,C   2)                  1.1124         0.331656   
     24. B(H  21,C   3)                  1.1111         0.333266   
     25. B(H  22,C   3)                  1.1111         0.333245   
     26. B(H  23,C   6)                  1.1102         0.334341   
     27. B(H  24,C   6)                  1.1109         0.333428   
     28. B(H  25,C   7)                  1.1125         0.331570   
     29. B(H  26,C   8)                  1.1121         0.332074   
     30. B(H  27,C   8)                  1.1118         0.332325   
     31. B(H  28,C   9)                  1.1134         0.330461   
     32. B(H  29,C   9)                  1.1122         0.331858   
     33. B(H  30,C  12)                  1.1107         0.333782   
     34. B(H  31,C  12)                  1.1110         0.333327   
     35. B(H  32,C  12)                  1.1068         0.338549   
     36. B(H  33,C  13)                  1.1078         0.337304   
     37. B(H  34,C  13)                  1.1113         0.333029   
     38. B(H  35,C  13)                  1.1106         0.333826   
     39. B(H  36,C  14)                  1.1104         0.334125   
     40. B(H  37,C  14)                  1.1094         0.335336   
     41. B(H  38,C  14)                  1.1102         0.334367   
     42. A(H  15,C   0,H  17)          109.0346         0.283897   
     43. A(C   1,C   0,H  17)          110.2005         0.319883   
     44. A(H  15,C   0,H  16)          108.9172         0.283856   
     45. A(H  16,C   0,H  17)          108.0060         0.284067   
     46. A(C   1,C   0,H  15)          110.7660         0.319633   
     47. A(C   1,C   0,H  16)          109.8578         0.319835   
     48. A(C   2,C   1,C   5)          103.6880         0.369382   
     49. A(C   5,C   1,H  18)          109.8027         0.327461   
     50. A(C   0,C   1,C   2)          111.8157         0.360103   
     51. A(C   0,C   1,C   5)          111.1839         0.371570   
     52. A(C   2,C   1,H  18)          110.5293         0.317784   
     53. A(C   0,C   1,H  18)          109.6908         0.319569   
     54. A(C   1,C   2,H  19)          112.7154         0.317690   
     55. A(C   3,C   2,H  20)          109.4613         0.319214   
     56. A(C   1,C   2,C   3)          106.5405         0.359767   
     57. A(C   1,C   2,H  20)          109.4114         0.317715   
     58. A(C   3,C   2,H  19)          110.5767         0.319189   
     59. A(H  19,C   2,H  20)          108.1025         0.283439   
     60. A(C   4,C   3,H  22)          109.8199         0.328008   
     61. A(C   2,C   3,H  22)          110.7758         0.319463   
     62. A(C   4,C   3,H  21)          110.6077         0.328012   
     63. A(C   2,C   3,H  21)          110.7705         0.319466   
     64. A(H  21,C   3,H  22)          110.4074         0.283884   
     65. A(C   2,C   3,C   4)          104.3097         0.371647   
     66. A(C   5,C   4,C  10)          121.1066         0.410476   
     67. A(C   3,C   4,C  10)          126.7387         0.371416   
     68. A(C   3,C   4,C   5)          112.0662         0.422669   
     69. A(C   1,C   5,C   4)          112.4768         0.422164   
     70. A(C   1,C   5,C   6)          125.0580         0.374303   
     71. A(C   4,C   5,C   6)          122.2406         0.414254   
     72. A(C   5,C   6,H  24)          109.5740         0.322010   
     73. A(C   7,C   6,H  24)          110.5537         0.314689   
     74. A(C   7,C   6,H  23)          109.0943         0.314828   
     75. A(C   5,C   6,H  23)          109.2129         0.322154   
     76. A(C   5,C   6,C   7)          111.3498         0.358778   
     77. A(H  23,C   6,H  24)          106.9446         0.284050   
     78. A(C  11,C   7,H  25)          112.3677         0.315456   
     79. A(C   8,C   7,H  25)          111.0926         0.316923   
     80. A(C   6,C   7,H  25)          109.7617         0.314403   
     81. A(C   6,C   7,C   8)          109.0273         0.353223   
     82. A(C   8,C   7,C  11)          103.5348         0.354457   
     83. A(C   6,C   7,C  11)          110.8833         0.351522   
     84. A(C   9,C   8,H  27)          110.0502         0.318281   
     85. A(C   9,C   8,H  26)          110.9516         0.318242   
     86. A(C   7,C   8,H  26)          112.5363         0.317002   
     87. A(C   7,C   8,C   9)          105.8187         0.357630   
     88. A(H  26,C   8,H  27)          107.5644         0.283604   
     89. A(C   7,C   8,H  27)          109.9320         0.317041   
     90. A(C   8,C   9,H  28)          111.0521         0.317989   
     91. A(C   8,C   9,C  10)          105.3328         0.357766   
     92. A(C  10,C   9,H  28)          112.1181         0.316866   
     93. A(H  28,C   9,H  29)          107.3217         0.283328   
     94. A(C  10,C   9,H  29)          111.3083         0.317083   
     95. A(C   8,C   9,H  29)          109.7389         0.318208   
     96. A(C  11,C  10,C  14)          114.2728         0.353351   
     97. A(C   9,C  10,C  14)          111.9400         0.357176   
     98. A(C   4,C  10,C  14)          111.8315         0.359496   
     99. A(C   9,C  10,C  11)          103.0916         0.352634   
    100. A(C   4,C  10,C  11)          108.7275         0.354915   
    101. A(C   4,C  10,C   9)          106.3483         0.358762   
    102. A(C  12,C  11,C  13)          106.3956         0.351451   
    103. A(C  10,C  11,C  13)          113.5604         0.350021   
    104. A(C   7,C  11,C  13)          109.9933         0.351959   
    105. A(C  10,C  11,C  12)          114.1497         0.350298   
    106. A(C   7,C  11,C  12)          113.7924         0.352239   
    107. A(C   7,C  11,C  10)           99.0149         0.350804   
    108. A(H  31,C  12,H  32)          107.6219         0.284590   
    109. A(H  30,C  12,H  32)          106.5910         0.284650   
    110. A(C  11,C  12,H  32)          114.0103         0.316087   
    111. A(H  30,C  12,H  31)          108.1499         0.283963   
    112. A(C  11,C  12,H  31)          109.8884         0.315289   
    113. A(C  11,C  12,H  30)          110.3600         0.315359   
    114. A(H  34,C  13,H  35)          107.4697         0.283929   
    115. A(H  33,C  13,H  35)          107.5730         0.284493   
    116. A(C  11,C  13,H  35)          110.9415         0.315125   
    117. A(H  33,C  13,H  34)          107.4685         0.284387   
    118. A(C  11,C  13,H  34)          110.0054         0.315003   
    119. A(C  11,C  13,H  33)          113.1542         0.315656   
    120. A(H  37,C  14,H  38)          108.7831         0.284305   
    121. A(H  36,C  14,H  38)          108.6704         0.284146   
    122. A(C  10,C  14,H  38)          110.4099         0.318095   
    123. A(H  36,C  14,H  37)          107.1183         0.284273   
    124. A(C  10,C  14,H  37)          111.3542         0.318245   
    125. A(C  10,C  14,H  36)          110.4038         0.318057   
    126. D(C   2,C   1,C   0,H  17)    179.8812         0.010953   
    127. D(C   5,C   1,C   0,H  15)     55.9954         0.010953   
    128. D(C   5,C   1,C   0,H  17)    -64.7468         0.010953   
    129. D(C   2,C   1,C   0,H  16)     60.9942         0.010953   
    130. D(C   5,C   1,C   0,H  16)    176.3662         0.010953   
    131. D(C   2,C   1,C   0,H  15)    -59.3766         0.010953   
    132. D(C   3,C   2,C   1,C   0)    110.3716         0.010273   
    133. D(H  19,C   2,C   1,C   0)    -11.0806         0.010273   
    134. D(C   3,C   2,C   1,C   5)     -9.5032         0.010273   
    135. D(H  19,C   2,C   1,C   5)   -130.9554         0.010273   
    136. D(H  19,C   2,C   1,H  18)    111.4293         0.010273   
    137. D(C   3,C   2,C   1,H  18)   -127.1185         0.010273   
    138. D(C   4,C   3,C   2,H  19)    131.2598         0.010841   
    139. D(C   4,C   3,C   2,C   1)      8.4559         0.010841   
    140. D(C   4,C   3,C   2,H  20)   -109.7502         0.010841   
    141. D(H  21,C   3,C   2,H  20)      9.2774         0.010841   
    142. D(H  21,C   3,C   2,H  19)   -109.7127         0.010841   
    143. D(H  21,C   3,C   2,C   1)    127.4835         0.010841   
    144. D(C  10,C   4,C   3,C   2)    172.3963         0.013805   
    145. D(C   5,C   4,C   3,H  22)    114.5701         0.013805   
    146. D(C   5,C   4,C   3,H  21)   -123.3221         0.013805   
    147. D(C  10,C   4,C   3,H  21)     53.2583         0.013805   
    148. D(C   5,C   4,C   3,C   2)     -4.1841         0.013805   
    149. D(C   1,C   5,C   4,C  10)   -178.9162         0.042066   
    150. D(C   6,C   5,C   1,C   2)   -177.9634         0.013626   
    151. D(C   6,C   5,C   4,C   3)   -176.9270         0.042066   
    152. D(C   6,C   5,C   1,C   0)     61.7322         0.013626   
    153. D(C   1,C   5,C   4,C   3)     -2.1166         0.042066   
    154. D(C   4,C   5,C   1,H  18)    125.5194         0.013626   
    155. D(C   4,C   5,C   1,C   2)      7.3994         0.013626   
    156. D(C   4,C   5,C   1,C   0)   -112.9050         0.013626   
    157. D(C   6,C   5,C   4,C  10)      6.2734         0.042066   
    158. D(H  24,C   6,C   5,C   1)     54.7705         0.011112   
    159. D(H  23,C   6,C   5,C   4)    112.0713         0.011112   
    160. D(H  23,C   6,C   5,C   1)    -62.0683         0.011112   
    161. D(C   7,C   6,C   5,C   4)     -8.4702         0.011112   
    162. D(C   7,C   6,C   5,C   1)    177.3903         0.011112   
    163. D(C  11,C   7,C   6,H  23)    -76.7083         0.009134   
    164. D(C  11,C   7,C   6,C   5)     43.9029         0.009134   
    165. D(C   8,C   7,C   6,H  24)     52.5953         0.009134   
    166. D(C   8,C   7,C   6,C   5)    -69.4593         0.009134   
    167. D(C  11,C   7,C   6,H  24)    165.9575         0.009134   
    168. D(C   8,C   7,C   6,H  23)    169.9295         0.009134   
    169. D(H  26,C   8,C   7,H  25)     90.5692         0.009991   
    170. D(H  26,C   8,C   7,C  11)   -148.6083         0.009991   
    171. D(H  26,C   8,C   7,C   6)    -30.5187         0.009991   
    172. D(C   9,C   8,C   7,H  25)   -148.1020         0.009991   
    173. D(C   9,C   8,C   7,C   6)     90.8101         0.009991   
    174. D(C   9,C   8,C   7,C  11)    -27.2795         0.009991   
    175. D(H  28,C   9,C   8,H  26)     -1.0737         0.010445   
    176. D(H  28,C   9,C   8,C   7)   -123.4204         0.010445   
    177. D(C  10,C   9,C   8,H  27)   -120.5520         0.010445   
    178. D(C  10,C   9,C   8,H  26)    120.5185         0.010445   
    179. D(H  28,C   9,C   8,H  27)    117.8558         0.010445   
    180. D(C  10,C   9,C   8,C   7)     -1.8282         0.010445   
    181. D(C   4,C  10,C   9,H  28)     36.6385         0.010033   
    182. D(C   4,C  10,C   9,C   8)    -84.2586         0.010033   
    183. D(C  14,C  10,C   4,C   3)     18.5682         0.010089   
    184. D(C  11,C  10,C   4,C   5)    -38.0190         0.010089   
    185. D(C  11,C  10,C   4,C   3)    145.6828         0.010089   
    186. D(C   9,C  10,C   4,C   5)     72.3885         0.010089   
    187. D(C   4,C  10,C   9,H  29)    156.8702         0.010033   
    188. D(C   9,C  10,C   4,C   3)   -103.9098         0.010089   
    189. D(C  11,C  10,C   9,H  29)    -88.8157         0.010033   
    190. D(C  11,C  10,C   9,H  28)    150.9527         0.010033   
    191. D(C  11,C  10,C   9,C   8)     30.0556         0.010033   
    192. D(C  12,C  11,C  10,C  14)     71.0854         0.008936   
    193. D(C  12,C  11,C  10,C   9)   -167.2010         0.008936   
    194. D(C  12,C  11,C  10,C   4)    -54.6205         0.008936   
    195. D(C   7,C  11,C  10,C  14)   -167.6641         0.008936   
    196. D(C   7,C  11,C  10,C   9)    -45.9505         0.008936   
    197. D(C   7,C  11,C  10,C   4)     66.6300         0.008936   
    198. D(C  12,C  11,C   7,H  25)    -73.7366         0.009482   
    199. D(C  12,C  11,C   7,C   8)    166.3076         0.009482   
    200. D(C  12,C  11,C   7,C   6)     49.5157         0.009482   
    201. D(C  10,C  11,C   7,H  25)    164.7524         0.009482   
    202. D(C  10,C  11,C   7,C   8)     44.7966         0.009482   
    203. D(C  10,C  11,C   7,C   6)    -71.9952         0.009482   
    204. D(H  31,C  12,C  11,C  13)    -63.7580         0.009335   
    205. D(H  31,C  12,C  11,C  10)    170.1881         0.009335   
    206. D(H  31,C  12,C  11,C   7)     57.5227         0.009335   
    207. D(H  30,C  12,C  11,C  13)     55.4242         0.009335   
    208. D(H  30,C  12,C  11,C  10)    -70.6297         0.009335   
    209. D(H  30,C  12,C  11,C   7)    176.7049         0.009335   
    210. D(H  34,C  13,C  11,C  12)     63.8297         0.009256   
    211. D(H  34,C  13,C  11,C  10)   -169.7608         0.009256   
    212. D(H  34,C  13,C  11,C   7)    -59.8498         0.009256   
    213. D(H  33,C  13,C  11,C  12)   -175.9621         0.009256   
    214. D(H  33,C  13,C  11,C  10)    -49.5526         0.009256   
    215. D(H  33,C  13,C  11,C   7)     60.3584         0.009256   
    216. D(H  37,C  14,C  10,C  11)     58.9187         0.010258   
    217. D(H  37,C  14,C  10,C   9)    -57.7941         0.010258   
    218. D(H  37,C  14,C  10,C   4)   -177.0209         0.010258   
    219. D(H  36,C  14,C  10,C  11)    177.7761         0.010258   
    220. D(H  36,C  14,C  10,C   9)     61.0633         0.010258   
    221. D(H  36,C  14,C  10,C   4)    -58.1635         0.010258   
    -----------------------------------------------------------------

Number of atoms                         .... 39
Number of degrees of freedom            .... 221


         *************************************************************
         *                GEOMETRY OPTIMIZATION CYCLE   1            *
         *************************************************************
---------------------------------
CARTESIAN COORDINATES (ANGSTROEM)
---------------------------------
  C      2.911777    1.254297    1.613107
  C      2.657491    0.595597    0.252968
  C      3.038029   -0.898526    0.259825
  C      1.723821   -1.684325    0.167766
  C      0.690533   -0.644041   -0.098315
  C      1.202862    0.587931   -0.078846
  C      0.340325    1.828229   -0.254517
  C     -1.117505    1.452942   -0.661120
  C     -1.110555    0.893029   -2.102080
  C     -0.925931   -0.628663   -1.960111
  C     -0.786088   -0.883476   -0.442367
  C     -1.640536    0.262334    0.189104
  C     -1.429846    0.443882    1.720075
  C     -3.172924    0.087062   -0.025997
  C     -1.242853   -2.303681   -0.052082
  H      2.322588    0.751770    2.410729
  H      3.990919    1.189722    1.867706
  H      2.631151    2.328061    1.577574
  H      3.221318    1.138000   -0.537296
  H      3.606679   -1.192847    1.169621
  H      3.667582   -1.123775   -0.629195
  H      1.761840   -2.419595   -0.664359
  H      1.503270   -2.197369    1.128329
  H      0.316703    2.394975    0.699838
  H      0.798178    2.495193   -1.015920
  H     -1.772283    2.348897   -0.582902
  H     -0.303866    1.334866   -2.727140
  H     -2.079914    1.114639   -2.599515
  H     -0.034113   -0.978023   -2.527760
  H     -1.811859   -1.155190   -2.378397
  H     -1.875529   -0.408597    2.275241
  H     -1.926524    1.377073    2.061913
  H     -0.367316    0.498755    2.025072
  H     -3.443713   -0.122872   -1.079480
  H     -3.707789    1.012552    0.277842
  H     -3.568170   -0.745271    0.594072
  H     -0.619533   -3.065639   -0.565731
  H     -2.295150   -2.486341   -0.352187
  H     -1.153067   -2.451574    1.044536

----------------------------
CARTESIAN COORDINATES (A.U.)
----------------------------
  NO LB      ZA    FRAG     MASS         X           Y           Z
   0 C     4.0000*   0    12.011    5.502461    2.370278    3.048330
   1 C     4.0000*   0    12.011    5.021930    1.125515    0.478040
   2 C     4.0000*   0    12.011    5.741043   -1.697968    0.490998
   3 C     4.0000*   0    12.011    3.257550   -3.182913    0.317032
   4 C     4.0000*   0    12.011    1.304918   -1.217061   -0.185788
   5 C     4.0000*   0    12.011    2.273080    1.111029   -0.148997
   6 C     4.0000*   0    12.011    0.643121    3.454852   -0.480967
   7 C     4.0000*   0    12.011   -2.111778    2.745662   -1.249336
   8 C     4.0000*   0    12.011   -2.098645    1.687580   -3.972356
   9 C     4.0000*   0    12.011   -1.749756   -1.188001   -3.704073
  10 C     4.0000*   0    12.011   -1.485491   -1.669528   -0.835952
  11 C     4.0000*   0    12.011   -3.100164    0.495739    0.357355
  12 C     4.0000*   0    12.011   -2.702017    0.838815    3.250471
  13 C     4.0000*   0    12.011   -5.995957    0.164523   -0.049127
  14 C     4.0000*   0    12.011   -2.348652   -4.353326   -0.098421
  15 H     1.0000    0     1.008    4.389055    1.420639    4.555618
  16 H     1.0000    0     1.008    7.541744    2.248249    3.529453
  17 H     1.0000    0     1.008    4.972155    4.399398    2.981183
  18 H     1.0000    0     1.008    6.087409    2.150508   -1.015342
  19 H     1.0000    0     1.008    6.815636   -2.254154    2.210263
  20 H     1.0000    0     1.008    6.930726   -2.123627   -1.189006
  21 H     1.0000    0     1.008    3.329395   -4.572372   -1.255457
  22 H     1.0000    0     1.008    2.840769   -4.152426    2.132233
  23 H     1.0000    0     1.008    0.598482    4.525847    1.322502
  24 H     1.0000    0     1.008    1.508338    4.715231   -1.919811
  25 H     1.0000    0     1.008   -3.349130    4.438772   -1.101525
  26 H     1.0000    0     1.008   -0.574224    2.522531   -5.153548
  27 H     1.0000    0     1.008   -3.930468    2.106362   -4.912371
  28 H     1.0000    0     1.008   -0.064464   -1.848196   -4.776774
  29 H     1.0000    0     1.008   -3.423917   -2.182993   -4.494519
  30 H     1.0000    0     1.008   -3.544236   -0.772136    4.299582
  31 H     1.0000    0     1.008   -3.640603    2.602291    3.896451
  32 H     1.0000    0     1.008   -0.694127    0.942510    3.826831
  33 H     1.0000    0     1.008   -6.507674   -0.232194   -2.039922
  34 H     1.0000    0     1.008   -7.006706    1.913446    0.525045
  35 H     1.0000    0     1.008   -6.742864   -1.408358    1.122633
  36 H     1.0000    0     1.008   -1.170748   -5.793218   -1.069077
  37 H     1.0000    0     1.008   -4.337205   -4.698504   -0.665537
  38 H     1.0000    0     1.008   -2.178981   -4.632803    1.973887
* core charge reduced due to ECP

--------------------------------
INTERNAL COORDINATES (ANGSTROEM)
--------------------------------
 C      0   0   0     0.000000000000     0.00000000     0.00000000
 C      1   0   0     1.532489856122     0.00000000     0.00000000
 C      2   1   0     1.541836478691   111.81569231     0.00000000
 C      3   2   1     1.533980963098   106.54054920   110.37163697
 C      4   3   2     1.490192601700   104.30969084     8.45590671
 C      5   4   3     1.334396888106   112.06616679   355.81594290
 C      6   5   4     1.520910748668   122.24064214   183.07300317
 C      7   6   5     1.559305820190   111.34977108   351.52984929
 C      8   7   6     1.545935506957   109.02726935   290.54069056
 C      9   8   7     1.539411498333   105.81865833    90.81013115
 C      5   4   3     1.534962695172   126.73869415   172.39629043
 C      8   7   6     1.553701929844   110.88325414    43.90287103
 C     12   8   7     1.556027684601   113.79238444    49.51573163
 C     12   8   7     1.557305909810   109.99330702   168.76970747
 C     11   5   4     1.542056707283   111.83154230    18.56817118
 H      1   2   3     1.111700462505   110.76599890   300.62343183
 H      1   2   3     1.110647575782   109.85776384    60.99419549
 H      1   2   3     1.110397529564   110.20052594   179.88123412
 H      2   1   3     1.112033762992   109.69084275   237.01284137
 H      3   2   1     1.112527049180   112.71539311   348.91943012
 H      3   2   1     1.112398603114   109.41136135   228.61057464
 H      4   3   2     1.111080299927   110.77045617   127.48345574
 H      4   3   2     1.111097730403   110.77575025   250.35484068
 H      7   6   5     1.110203807157   109.21286654   112.07130152
 H      7   6   5     1.110947737436   109.57404409   228.91008047
 H      8   7   6     1.112469166689   109.76171554   168.64370257
 H      9   8   7     1.112055340750   112.53630862   329.48132905
 H      9   8   7     1.111849559161   109.93204928   209.61219060
 H     10   9   8     1.113380950944   111.05212674   236.57956745
 H     10   9   8     1.112233015473   109.73894314   118.08603369
 H     13  12   8     1.110658844779   110.35998153   176.70486666
 H     13  12   8     1.111030015980   109.88843933    57.52268776
 H     13  12   8     1.106799086121   114.01027622   296.62026980
 H     14  12   8     1.107802057304   113.15416464    60.35844548
 H     14  12   8     1.111274244391   110.00543156   300.15023986
 H     14  12   8     1.110622882965   110.94151806   181.37302963
 H     15  11   5     1.110379714947   110.40383325   301.83654730
 H     15  11   5     1.109394728144   111.35424395   182.97912700
 H     15  11   5     1.110182373833   110.40992604    62.02458225

---------------------------
INTERNAL COORDINATES (A.U.)
---------------------------
 C      0   0   0     0.000000000000     0.00000000     0.00000000
 C      1   0   0     2.895986131083     0.00000000     0.00000000
 C      2   1   0     2.913648688015   111.81569231     0.00000000
 C      3   2   1     2.898803914903   106.54054920   110.37163697
 C      4   3   2     2.816055904008   104.30969084     8.45590671
 C      5   4   3     2.521644672476   112.06616679   355.81594290
 C      6   5   4     2.874104789120   122.24064214   183.07300317
 C      7   6   5     2.946660959188   111.34977108   351.52984929
 C      8   7   6     2.921394728853   109.02726935   290.54069056
 C      9   8   7     2.909066139259   105.81865833    90.81013115
 C      5   4   3     2.900659119661   126.73869415   172.39629043
 C      8   7   6     2.936071141150   110.88325414    43.90287103
 C     12   8   7     2.940466180696   113.79238444    49.51573163
 C     12   8   7     2.942881676278   109.99330702   168.76970747
 C     11   5   4     2.914064859740   111.83154230    18.56817118
 H      1   2   3     2.100809417088   110.76599890   300.62343183
 H      1   2   3     2.098819749531   109.85776384    60.99419549
 H      1   2   3     2.098347230658   110.20052594   179.88123412
 H      2   1   3     2.101439263729   109.69084275   237.01284137
 H      3   2   1     2.102371439530   112.71539311   348.91943012
 H      3   2   1     2.102128711642   109.41136135   228.61057464
 H      4   3   2     2.099637479657   110.77045617   127.48345574
 H      4   3   2     2.099670418483   110.77575025   250.35484068
 H      7   6   5     2.097981148363   109.21286654   112.07130152
 H      7   6   5     2.099386972853   109.57404409   228.91008047
 H      8   7   6     2.102262057473   109.76171554   168.64370257
 H      9   8   7     2.101480039781   112.53630862   329.48132905
 H      9   8   7     2.101091168935   109.93204928   209.61219060
 H     10   9   8     2.103985080009   111.05212674   236.57956745
 H     10   9   8     2.101815796350   109.73894314   118.08603369
 H     13  12   8     2.098841044850   110.35998153   176.70486666
 H     13  12   8     2.099542456769   109.88843933    57.52268776
 H     13  12   8     2.091547158043   114.01027622   296.62026980
 H     14  12   8     2.093442498898   113.15416464    60.35844548
 H     14  12   8     2.100003981579   110.00543156   300.15023986
 H     14  12   8     2.098773086870   110.94151806   181.37302963
 H     15  11   5     2.098313565911   110.40383325   301.83654730
 H     15  11   5     2.096452210608   111.35424395   182.97912700
 H     15  11   5     2.097940645251   110.40992604    62.02458225

---------------------
BASIS SET INFORMATION
---------------------
There are 2 groups of distinct atoms

 Group   1 Type C   : 6s6p2d contracted to 2s2p1d pattern {42/42/2}
 Group   2 Type H   : 8s2p contracted to 2s1p pattern {53/2}

Atom   0C    basis set group =>   1
Atom   1C    basis set group =>   1
Atom   2C    basis set group =>   1
Atom   3C    basis set group =>   1
Atom   4C    basis set group =>   1
Atom   5C    basis set group =>   1
Atom   6C    basis set group =>   1
Atom   7C    basis set group =>   1
Atom   8C    basis set group =>   1
Atom   9C    basis set group =>   1
Atom  10C    basis set group =>   1
Atom  11C    basis set group =>   1
Atom  12C    basis set group =>   1
Atom  13C    basis set group =>   1
Atom  14C    basis set group =>   1
Atom  15H    basis set group =>   2
Atom  16H    basis set group =>   2
Atom  17H    basis set group =>   2
Atom  18H    basis set group =>   2
Atom  19H    basis set group =>   2
Atom  20H    basis set group =>   2
Atom  21H    basis set group =>   2
Atom  22H    basis set group =>   2
Atom  23H    basis set group =>   2
Atom  24H    basis set group =>   2
Atom  25H    basis set group =>   2
Atom  26H    basis set group =>   2
Atom  27H    basis set group =>   2
Atom  28H    basis set group =>   2
Atom  29H    basis set group =>   2
Atom  30H    basis set group =>   2
Atom  31H    basis set group =>   2
Atom  32H    basis set group =>   2
Atom  33H    basis set group =>   2
Atom  34H    basis set group =>   2
Atom  35H    basis set group =>   2
Atom  36H    basis set group =>   2
Atom  37H    basis set group =>   2
Atom  38H    basis set group =>   2
---------------------------------
AUXILIARY/J BASIS SET INFORMATION
---------------------------------
There are 2 groups of distinct atoms

 Group   1 Type C   : 12s5p4d2f1g contracted to 6s4p3d1f1g pattern {711111/2111/211/2/1}
 Group   2 Type H   : 5s2p1d contracted to 3s1p1d pattern {311/2/1}

Atom   0C    basis set group =>   1
Atom   1C    basis set group =>   1
Atom   2C    basis set group =>   1
Atom   3C    basis set group =>   1
Atom   4C    basis set group =>   1
Atom   5C    basis set group =>   1
Atom   6C    basis set group =>   1
Atom   7C    basis set group =>   1
Atom   8C    basis set group =>   1
Atom   9C    basis set group =>   1
Atom  10C    basis set group =>   1
Atom  11C    basis set group =>   1
Atom  12C    basis set group =>   1
Atom  13C    basis set group =>   1
Atom  14C    basis set group =>   1
Atom  15H    basis set group =>   2
Atom  16H    basis set group =>   2
Atom  17H    basis set group =>   2
Atom  18H    basis set group =>   2
Atom  19H    basis set group =>   2
Atom  20H    basis set group =>   2
Atom  21H    basis set group =>   2
Atom  22H    basis set group =>   2
Atom  23H    basis set group =>   2
Atom  24H    basis set group =>   2
Atom  25H    basis set group =>   2
Atom  26H    basis set group =>   2
Atom  27H    basis set group =>   2
Atom  28H    basis set group =>   2
Atom  29H    basis set group =>   2
Atom  30H    basis set group =>   2
Atom  31H    basis set group =>   2
Atom  32H    basis set group =>   2
Atom  33H    basis set group =>   2
Atom  34H    basis set group =>   2
Atom  35H    basis set group =>   2
Atom  36H    basis set group =>   2
Atom  37H    basis set group =>   2
Atom  38H    basis set group =>   2
-------------------------
ECP PARAMETER INFORMATION
-------------------------

 Group 1, Type C  ECP vDZP-ECP (replacing 2 core electrons, lmax=3)

Atom   0C    ECP group =>   1
Atom   1C    ECP group =>   1
Atom   2C    ECP group =>   1
Atom   3C    ECP group =>   1
Atom   4C    ECP group =>   1
Atom   5C    ECP group =>   1
Atom   6C    ECP group =>   1
Atom   7C    ECP group =>   1
Atom   8C    ECP group =>   1
Atom   9C    ECP group =>   1
Atom  10C    ECP group =>   1
Atom  11C    ECP group =>   1
Atom  12C    ECP group =>   1
Atom  13C    ECP group =>   1
Atom  14C    ECP group =>   1



           ************************************************************
           *        Program running with 40 parallel MPI-processes    *
           *              working on a common directory               *
           ************************************************************
------------------------------------------------------------------------------
                             ORCA STARTUP CALCULATIONS
                           -- RI-GTO INTEGRALS CHOSEN --
------------------------------------------------------------------------------
------------------------------------------------------------------------------
                   ___                                                        
                  /   \      - P O W E R E D   B Y -                         
                 /     \                                                     
                 |  |  |   _    _      __       _____    __    __             
                 |  |  |  | |  | |    /  \     |  _  \  |  |  /  |          
                  \  \/   | |  | |   /    \    | | | |  |  | /  /          
                 / \  \   | |__| |  /  /\  \   | |_| |  |  |/  /          
                |  |  |   |  __  | /  /__\  \  |    /   |      \           
                |  |  |   | |  | | |   __   |  |    \   |  |\   \          
                \     /   | |  | | |  |  |  |  | |\  \  |  | \   \       
                 \___/    |_|  |_| |__|  |__|  |_| \__\ |__|  \__/        
                                                                              
                      - O R C A' S   B I G   F R I E N D -                    
                                      &                                       
                       - I N T E G R A L  F E E D E R -                       
                                                                              
 v1 FN, 2020, v2 2021, v3 2022-2024                                           
------------------------------------------------------------------------------


----------------------
SHARK INTEGRAL PACKAGE
----------------------

Number of atoms                             ...     39
Number of basis functions                   ...    315
Number of shells                            ...    147
Maximum angular momentum                    ...      2
Integral batch strategy                     ... SHARK/LIBINT Hybrid
RI-J (if used) integral strategy            ... SPLIT-RIJ (Revised 2003 algorithm where possible)
Printlevel                                  ...      1
Contraction scheme used                     ... SEGMENTED contraction
Prescreening option                         ... SCHWARTZ
   Thresh                                   ... 2.500e-11
   Tcut                                     ... 2.500e-12
   Tpresel                                  ... 2.500e-12 
Coulomb Range Separation                    ... NOT USED
Exchange Range Separation                   ... Long Range
   Mu parameter                             ... 3.000e-01
   Scaling (regular/separated)              ... 1.670e-01 8.330e-01
Multipole approximations                    ... NOT USED
Finite Nucleus Model                        ... NOT USED
CABS basis                                  ... NOT available
Auxiliary Coulomb fitting basis             ... AVAILABLE
   # of basis functions in Aux-J            ...    999
   # of shells in Aux-J                     ...    345
   Maximum angular momentum in Aux-J        ...      4
Auxiliary J/K fitting basis                 ... NOT available
Auxiliary Correlation fitting basis         ... NOT available
Auxiliary 'external' fitting basis          ... NOT available

Checking pre-screening integrals            ... done (  0.0 sec) Dimension = 147
Check shell pair data                       ... done (  0.0 sec)
Shell pair information
Shell pair cut-off parameter TPreSel        ...   2.5e-12
Total number of shell pairs                 ...     10878
Shell pairs after pre-screening             ...     10862
Total number of primitive shell pairs       ...    102036
Primitive shell pairs kept                  ...     80571
          la=0 lb=0:   3080 shell pairs
          la=1 lb=0:   4205 shell pairs
          la=1 lb=1:   1477 shell pairs
          la=2 lb=0:   1170 shell pairs
          la=2 lb=1:    810 shell pairs
          la=2 lb=2:    120 shell pairs

Calculating one electron integrals          ... done (  0.0 sec)
Calculating ECP integrals                   ... done (  0.2 sec)
Calculating RI/J V-Matrix + Cholesky decomp.... done (  0.0 sec)
Calculating Nuclear repulsion               ... done (  0.0 sec) ENN=    598.054573927456 Eh

Diagonalization of the overlap matrix:
Smallest eigenvalue                        ... 6.876e-04
Time for diagonalization                   ...    0.014 sec
Threshold for overlap eigenvalues          ... 1.000e-07
Number of eigenvalues below threshold      ... 0
Time for construction of square roots      ...    0.011 sec
Total time needed                          ...    0.028 sec

-------------------
DFT GRID GENERATION
-------------------

General Integration Accuracy     IntAcc      ... 4.388
Radial Grid Type                 RadialGrid  ... OptM3 with GC (2021)
Angular Grid (max. ang.)         AngularGrid ... 4 (Lebedev-302)
Angular grid pruning method      GridPruning ... 4 (adaptive)
Weight generation scheme         WeightScheme... mBecke (2022)
Basis function cutoff            BFCut       ... 1.0000e-11
Integration weight cutoff        WCut        ... 1.0000e-14
Partially contracted basis set               ... off
Rotationally invariant grid construction     ... off
Angular grids for H and He will be reduced by one unit

Total number of grid points                  ...   164109
Total number of batches                      ...     2581
Average number of points per batch           ...       63
Average number of grid points per atom       ...     4208

--------------------
COSX GRID GENERATION
--------------------

GRIDX 1
-------
General Integration Accuracy     IntAcc      ... 3.816
Radial Grid Type                 RadialGrid  ... OptM3 with GC (2021)
Angular Grid (max. ang.)         AngularGrid ... 1 (Lebedev-50)
Angular grid pruning method      GridPruning ... 4 (adaptive)
Weight generation scheme         WeightScheme... mBecke (2022)
Basis function cutoff            BFCut       ... 1.0000e-11
Integration weight cutoff        WCut        ... 1.0000e-14
Partially contracted basis set               ... on
Rotationally invariant grid construction     ... off
Angular grids for H and He will be reduced by one unit

Total number of grid points                  ...    20953
Total number of batches                      ...      189
Average number of points per batch           ...      110
Average number of grid points per atom       ...      537
UseSFitting                                  ... on

GRIDX 2
-------
General Integration Accuracy     IntAcc      ... 4.020
Radial Grid Type                 RadialGrid  ... OptM3 with GC (2021)
Angular Grid (max. ang.)         AngularGrid ... 2 (Lebedev-110)
Angular grid pruning method      GridPruning ... 4 (adaptive)
Weight generation scheme         WeightScheme... mBecke (2022)
Basis function cutoff            BFCut       ... 1.0000e-11
Integration weight cutoff        WCut        ... 1.0000e-14
Partially contracted basis set               ... on
Rotationally invariant grid construction     ... off
Angular grids for H and He will be reduced by one unit

Total number of grid points                  ...    43179
Total number of batches                      ...      358
Average number of points per batch           ...      120
Average number of grid points per atom       ...     1107
UseSFitting                                  ... on

GRIDX 3
-------
General Integration Accuracy     IntAcc      ... 4.338
Radial Grid Type                 RadialGrid  ... OptM3 with GC (2021)
Angular Grid (max. ang.)         AngularGrid ... 3 (Lebedev-194)
Angular grid pruning method      GridPruning ... 4 (adaptive)
Weight generation scheme         WeightScheme... mBecke (2022)
Basis function cutoff            BFCut       ... 1.0000e-11
Integration weight cutoff        WCut        ... 1.0000e-14
Partially contracted basis set               ... on
Rotationally invariant grid construction     ... off
Angular grids for H and He will be reduced by one unit

Total number of grid points                  ...    93537
Total number of batches                      ...      752
Average number of points per batch           ...      124
Average number of grid points per atom       ...     2398
UseSFitting                                  ... on
Initializing property integral containers    ... done (  0.0 sec)

SHARK setup successfully completed in   5.0 seconds

Maximum memory used throughout the entire STARTUP-calculation: 52.5 MB


           ************************************************************
           *        Program running with 40 parallel MPI-processes    *
           *              working on a common directory               *
           ************************************************************
-------------------------------------------------------------------------------
                                 ORCA GUESS
                   Start orbitals & Density for SCF / CASSCF
-------------------------------------------------------------------------------

------------
SCF SETTINGS
------------
Hamiltonian:
 Density Functional     Method          .... DFT(GTOs)
 Exchange Functional    Exchange        .... WB97X-V
 Correlation Functional Correlation     .... WB97X-V
 Gradients option       PostSCFGGA      .... off
 Hybrid DFT is turned on
   Fraction HF Exchange ScalHFX         ....  0.167000
   Scaling of DF-GGA-X  ScalDFX         ....  0.000000
   Scaling of DF-GGA-C  ScalDFC         ....  1.000000
   Scaling of DF-LDA-C  ScalLDAC        ....  1.000000
   Perturbative correction              ....  0.000000
 Long-range corrected/Screened/Range-Separated Hybrid DFT is turned on
   Amount of maximum screened exact exchange              ....  0.833000
   Range separation parameter mu (erf(mu*r12)/r12)        ....  0.300000
   NL short-range parameter             ....  6.000000
   NL long-range parameter              ....  0.010000
 RI-approximation to the Coulomb term is turned on
   Number of AuxJ basis functions       .... 999
   RIJ-COSX (HFX calculated with COS-X)).... on


General Settings:
 Integral files         IntName         .... ./output/beta_patchoulene/beta_patchoulene
 Hartree-Fock type      HFTyp           .... RHF
 Total Charge           Charge          ....    0
 Multiplicity           Mult            ....    1
 Number of Electrons    NEL             ....   84
 Basis Dimension        Dim             ....  315
 Nuclear Repulsion      ENuc            ....    598.0545739275 Eh

Convergence Acceleration:
 AO-DIIS                CNVDIIS         .... on
   Start iteration      DIISMaxIt       ....    12
   Startup error        DIISStart       ....  0.200000
   # of expansion vecs  DIISMaxEq       ....     5
   Bias factor          DIISBfac        ....   1.050
   Max. coefficient     DIISMaxC        ....  10.000
 MO-DIIS                CNVKDIIS        .... off
 Trust-Rad. Augm. Hess. CNVTRAH         .... auto
   Auto Start mean grad. ratio tolernc. ....  1.125000
   Auto Start start iteration           ....    50
   Auto Start num. interpolation iter.  ....    10
   Max. Number of Micro iterations      ....    24
   Max. Number of Macro iterations      .... Maxiter - #DIIS iter
   Number of Davidson start vectors     ....     2
   Converg. threshold    (grad. norm)   ....   1.000e-05
   Grad. Scal. Fac. for Micro threshold ....   0.100
   Minimum threshold for Micro iter.    ....   1.000e-02
   NR start threshold (gradient norm)   ....   1.000e-04
   Initial trust radius                 ....   0.400
   Minimum AH scaling param. (alpha)    ....   1.000
   Maximum AH scaling param. (alpha)    .... 1000.000
   Quad. conv. algorithm                .... NR
   White noise on init. David. guess    .... on
   Maximum white noise                  ....   0.010
   Pseudo random numbers                .... off
   Inactive MOs                         .... canonical
   Orbital update algorithm             .... Taylor
   Preconditioner                       .... Diag
   Full preconditioner red. dimension   ....   250
 SOSCF                  CNVSOSCF        .... on
   Start iteration      SOSCFMaxIt      ....   150
   Startup grad/error   SOSCFStart      ....  0.003300
   Hessian update       SOSCFHessUp     .... L-BFGS
 Level Shifting         CNVShift        .... on
   Level shift para.    LevelShift      ....    0.2500
   Turn off err/grad.   ShiftErr        ....    0.0010
 Zerner damping         CNVZerner       .... off
 Static damping         CNVDamp         .... on
   Fraction old density DampFac         ....    0.7000
   Max. Damping (<1)    DampMax         ....    0.9800
   Min. Damping (>=0)   DampMin         ....    0.0000
   Turn off err/grad.   DampErr         ....    0.1000

SCF Procedure:
 Maximum # iterations   MaxIter         ....   125
 SCF integral mode      SCFMode         .... Direct
   Integral package                     .... SHARK and LIBINT hybrid scheme
 Reset frequency        DirectResetFreq ....    20
 Integral Threshold     Thresh          ....  2.500e-11 Eh
 Primitive CutOff       TCut            ....  2.500e-12 Eh

Convergence Tolerance:
 Convergence Check Mode ConvCheckMode   .... Total+1el-Energy
 Convergence forced     ConvForced      .... 0
 Energy Change          TolE            ....  1.000e-08 Eh
 1-El. energy change                    ....  1.000e-05 Eh
 Orbital Gradient       TolG            ....  1.000e-05
 Orbital Rotation angle TolX            ....  1.000e-05
 DIIS Error             TolErr          ....  5.000e-07

------------------------------
INITIAL GUESS: MODEL POTENTIAL
------------------------------
Loading Hartree-Fock densities                     ... done
Atomic calculation to generate a density for atom 0 (C  with ECP)
  Multiplicity assumed   :    1
  Atomic configuration   : 1s2 2s2 2p2 
  Number of open shells  : 1
  Command: /home/aspe232/Project/Software/ORCA/6_0_1/build/orca ./output/beta_patchoulene/beta_patchoulene_atom6.inp "" > ./output/beta_patchoulene/beta_patchoulene_atom6.out
Returned from the atomic calculation with res=0
Calculating cut-offs                               ... done
Initializing the effective Hamiltonian             ... done
Setting up the integral package (SHARK)            ... done
Starting the Coulomb interaction                   ... done (   0.1 sec)
Making the grid                                    ... done (   1.2 sec)
Mapping shells                                     ... done
Starting the XC term evaluation                    ... done (   0.1 sec)
  promolecular density results
     # of electrons  =    113.993327888
     EX              =    -55.428458011
     EC              =     -4.584033371
     EX+EC           =    -60.012491382
Transforming the Hamiltonian                       ... done (   0.0 sec)
Diagonalizing the Hamiltonian                      ... done (   0.0 sec)
Back transforming the eigenvectors                 ... done (   0.0 sec)
Now organizing SCF variables                       ... done
                      ------------------
                      INITIAL GUESS DONE (   2.0 sec)
                      ------------------
             **** ENERGY FILE WAS UPDATED (./output/beta_patchoulene/beta_patchoulene.en.tmp) ****
Finished Guess after   3.0 sec
Maximum memory used throughout the entire GUESS-calculation: 35.2 MB


           ************************************************************
           *        Program running with 40 parallel MPI-processes    *
           *              working on a common directory               *
           ************************************************************

-------------------------------------------------------------------------------------------
                                      ORCA LEAN-SCF
                              memory conserving SCF solver
-------------------------------------------------------------------------------------------

----------------------------------------D-I-I-S--------------------------------------------
Iteration    Energy (Eh)           Delta-E    RMSDP     MaxDP     DIISErr   Damp  Time(sec)
-------------------------------------------------------------------------------------------
               ***  Starting incremental Fock matrix formation  ***
    1    -99.2096652288473706     0.00e+00  3.63e-03  7.96e-02  1.85e-01  0.700   8.9
    2    -99.4937750287576819    -2.84e-01  2.64e-03  5.81e-02  1.12e-01  0.700   6.5
                               ***Turning on AO-DIIS***
    3    -99.6369385340378813    -1.43e-01  1.41e-03  3.02e-02  5.93e-02  0.700   5.7
    4    -99.7210253884703661    -8.41e-02  3.11e-03  6.97e-02  3.66e-02  0.000   5.9
    5    -99.8984497467890833    -1.77e-01  2.43e-04  5.12e-03  4.84e-03  0.000   6.4
                              *** Initializing SOSCF ***
---------------------------------------S-O-S-C-F--------------------------------------
Iteration    Energy (Eh)           Delta-E    RMSDP     MaxDP     MaxGrad    Time(sec)
--------------------------------------------------------------------------------------
    6    -99.8989778446152741    -5.28e-04  1.19e-04  2.24e-03  1.55e-03     6.1
               *** Restarting incremental Fock matrix formation ***
    7    -99.8990888747556482    -1.11e-04  6.35e-05  1.37e-03  1.93e-04     8.6
    8    -99.8991006360577103    -1.18e-05  3.56e-05  7.71e-04  1.29e-04     7.9
    9    -99.8991034865646270    -2.85e-06  1.13e-05  2.19e-04  4.61e-05     7.5
   10    -99.8991037484523758    -2.62e-07  2.52e-06  7.29e-05  1.20e-05     7.2
   11    -99.8991037374023563     1.11e-08  1.18e-06  3.12e-05  8.56e-06     6.8
   12    -99.8991037646446784    -2.72e-08  2.30e-07  7.41e-06  9.54e-07     6.2
                  *** Gradient check signals convergence ***

               *****************************************************
               *                     SUCCESS                       *
               *           SCF CONVERGED AFTER  12 CYCLES          *
               *****************************************************

Recomputing exchange energy using gridx3       ... done (   10.001 sec)
Old exchange energy                            :    -15.907228223 Eh
New exchange energy                            :    -15.907241765 Eh
Exchange energy change after final integration :     -0.000013542 Eh
Total energy after final integration           :    -99.899117307 Eh
             **** ENERGY FILE WAS UPDATED (./output/beta_patchoulene/beta_patchoulene.en.tmp) ****

----------------
TOTAL SCF ENERGY
----------------

Total Energy       :        -99.89911730697088 Eh           -2718.39318 eV

Components:
Nuclear Repulsion  :        598.05457392745609 Eh           16273.89231 eV
Electronic Energy  :       -697.95367769210077 Eh          -18992.28512 eV
One Electron Energy:      -1335.17624873971840 Eh          -36331.99281 eV
Two Electron Energy:        637.22257104761763 Eh           17339.70769 eV

Virial components:
Potential Energy   :       -177.94013020629689 Eh           -4841.99711 eV
Kinetic Energy     :         78.04101289932602 Eh            2123.60392 eV
Virial Ratio       :          2.28008483738982

DFT components:
N(Alpha)           :       41.999848857792 electrons
N(Beta)            :       41.999848857792 electrons
N(Total)           :       83.999697715584 electrons
E(X)               :      -16.123328381536 Eh       
E(C)               :       -3.156065891051 Eh       
E(XC)              :      -19.279394272588 Eh       

---------------
SCF CONVERGENCE
---------------

  Last Energy change         ...    2.7242e-08  Tolerance :   1.0000e-08
  Last MAX-Density change    ...    7.4090e-06  Tolerance :   1.0000e-07
  Last RMS-Density change    ...    2.2985e-07  Tolerance :   5.0000e-09
  Last DIIS Error            ...    1.5517e-03  Tolerance :   5.0000e-07
  Last Orbital Gradient      ...    9.5445e-07  Tolerance :   1.0000e-05
  Last Orbital Rotation      ...    1.8943e-06  Tolerance :   1.0000e-05


----------------
ORBITAL ENERGIES
----------------

  NO   OCC          E(Eh)            E(eV) 
   0   2.0000      -1.018150       -27.7053 
   1   2.0000      -0.975208       -26.5368 
   2   2.0000      -0.907987       -24.7076 
   3   2.0000      -0.890815       -24.2403 
   4   2.0000      -0.873392       -23.7662 
   5   2.0000      -0.861225       -23.4351 
   6   2.0000      -0.811948       -22.0942 
   7   2.0000      -0.804737       -21.8980 
   8   2.0000      -0.777228       -21.1495 
   9   2.0000      -0.760673       -20.6990 
  10   2.0000      -0.750238       -20.4150 
  11   2.0000      -0.684420       -18.6240 
  12   2.0000      -0.665585       -18.1115 
  13   2.0000      -0.656446       -17.8628 
  14   2.0000      -0.598702       -16.2915 
  15   2.0000      -0.594075       -16.1656 
  16   2.0000      -0.581366       -15.8198 
  17   2.0000      -0.573688       -15.6109 
  18   2.0000      -0.561500       -15.2792 
  19   2.0000      -0.545100       -14.8329 
  20   2.0000      -0.541422       -14.7328 
  21   2.0000      -0.524313       -14.2673 
  22   2.0000      -0.515716       -14.0333 
  23   2.0000      -0.508274       -13.8308 
  24   2.0000      -0.498432       -13.5630 
  25   2.0000      -0.493868       -13.4388 
  26   2.0000      -0.485447       -13.2097 
  27   2.0000      -0.480656       -13.0793 
  28   2.0000      -0.478940       -13.0326 
  29   2.0000      -0.470843       -12.8123 
  30   2.0000      -0.465673       -12.6716 
  31   2.0000      -0.456379       -12.4187 
  32   2.0000      -0.440980       -11.9997 
  33   2.0000      -0.433286       -11.7903 
  34   2.0000      -0.423934       -11.5358 
  35   2.0000      -0.420097       -11.4314 
  36   2.0000      -0.415481       -11.3058 
  37   2.0000      -0.414471       -11.2783 
  38   2.0000      -0.404689       -11.0122 
  39   2.0000      -0.389300       -10.5934 
  40   2.0000      -0.386489       -10.5169 
  41   2.0000      -0.310023        -8.4361 
  42   0.0000       0.083767         2.2794 
  43   0.0000       0.091607         2.4927 
  44   0.0000       0.094398         2.5687 
  45   0.0000       0.097654         2.6573 
  46   0.0000       0.104718         2.8495 
  47   0.0000       0.117608         3.2003 
  48   0.0000       0.120547         3.2802 
  49   0.0000       0.123184         3.3520 
  50   0.0000       0.131100         3.5674 
  51   0.0000       0.137603         3.7444 
  52   0.0000       0.144397         3.9293 
*Only the first 10 virtual orbitals were printed.

                    ********************************
                    * MULLIKEN POPULATION ANALYSIS *
                    ********************************

-----------------------
MULLIKEN ATOMIC CHARGES
-----------------------
   0 C :   -0.076611
   1 C :   -0.083441
   2 C :   -0.049246
   3 C :   -0.064130
   4 C :    0.029009
   5 C :   -0.026308
   6 C :   -0.054179
   7 C :   -0.046806
   8 C :   -0.045262
   9 C :    0.003052
  10 C :   -0.201185
  11 C :   -0.169685
  12 C :   -0.012931
  13 C :   -0.037184
  14 C :   -0.023450
  15 H :    0.032438
  16 H :    0.039698
  17 H :    0.036178
  18 H :    0.036737
  19 H :    0.035309
  20 H :    0.039856
  21 H :    0.041853
  22 H :    0.041181
  23 H :    0.037873
  24 H :    0.041005
  25 H :    0.039904
  26 H :    0.036503
  27 H :    0.039838
  28 H :    0.044277
  29 H :    0.029950
  30 H :    0.030535
  31 H :    0.036808
  32 H :    0.021193
  33 H :    0.024879
  34 H :    0.037025
  35 H :    0.035202
  36 H :    0.035870
  37 H :    0.033957
  38 H :    0.030291
Sum of atomic charges:    0.0000000

--------------------------------
MULLIKEN REDUCED ORBITAL CHARGES
--------------------------------
  0 C s       :     0.966727  s :     0.966727
      pz      :     0.972435  p :     3.035010
      px      :     1.037510
      py      :     1.025064
      dz2     :     0.018296  d :     0.074875
      dxz     :     0.016561
      dyz     :     0.013351
      dx2y2   :     0.020376
      dxy     :     0.006291

  1 C s       :     1.039607  s :     1.039607
      pz      :     0.972216  p :     2.915964
      px      :     0.978663
      py      :     0.965086
      dz2     :     0.022122  d :     0.127869
      dxz     :     0.028564
      dyz     :     0.027019
      dx2y2   :     0.027719
      dxy     :     0.022446

  2 C s       :     1.000375  s :     1.000375
      pz      :     1.048962  p :     2.954749
      px      :     0.975954
      py      :     0.929833
      dz2     :     0.012743  d :     0.094121
      dxz     :     0.024155
      dyz     :     0.014494
      dx2y2   :     0.021313
      dxy     :     0.021417

  3 C s       :     0.995032  s :     0.995032
      pz      :     1.022622  p :     2.966796
      px      :     0.942947
      py      :     1.001228
      dz2     :     0.013542  d :     0.102302
      dxz     :     0.014362
      dyz     :     0.030394
      dx2y2   :     0.020304
      dxy     :     0.023699

  4 C s       :     1.030909  s :     1.030909
      pz      :     0.959440  p :     2.819550
      px      :     0.909525
      py      :     0.950585
      dz2     :     0.008421  d :     0.120533
      dxz     :     0.016516
      dyz     :     0.025004
      dx2y2   :     0.034794
      dxy     :     0.035797

  5 C s       :     1.037761  s :     1.037761
      pz      :     0.983045  p :     2.867501
      px      :     0.920714
      py      :     0.963742
      dz2     :     0.006975  d :     0.121047
      dxz     :     0.015704
      dyz     :     0.026840
      dx2y2   :     0.036009
      dxy     :     0.035519

  6 C s       :     0.988134  s :     0.988134
      pz      :     1.035188  p :     2.967518
      px      :     0.938174
      py      :     0.994156
      dz2     :     0.014529  d :     0.098527
      dxz     :     0.014898
      dyz     :     0.027108
      dx2y2   :     0.018521
      dxy     :     0.023471

  7 C s       :     1.031282  s :     1.031282
      pz      :     0.936092  p :     2.897350
      px      :     0.965068
      py      :     0.996190
      dz2     :     0.028525  d :     0.118174
      dxz     :     0.019753
      dyz     :     0.021964
      dx2y2   :     0.019759
      dxy     :     0.028174

  8 C s       :     0.992913  s :     0.992913
      pz      :     0.964432  p :     2.958018
      px      :     1.047172
      py      :     0.946414
      dz2     :     0.016334  d :     0.094331
      dxz     :     0.022085
      dyz     :     0.020840
      dx2y2   :     0.019122
      dxy     :     0.015951

  9 C s       :     0.983962  s :     0.983962
      pz      :     0.937929  p :     2.916890
      px      :     1.032845
      py      :     0.946116
      dz2     :     0.018979  d :     0.096096
      dxz     :     0.020982
      dyz     :     0.019667
      dx2y2   :     0.017047
      dxy     :     0.019421

 10 C s       :     1.056571  s :     1.056571
      pz      :     0.997656  p :     3.001213
      px      :     0.996557
      py      :     1.007000
      dz2     :     0.032796  d :     0.143402
      dxz     :     0.024486
      dyz     :     0.025909
      dx2y2   :     0.033355
      dxy     :     0.026855

 11 C s       :     1.075606  s :     1.075606
      pz      :     0.983268  p :     2.952859
      px      :     0.982968
      py      :     0.986623
      dz2     :     0.033966  d :     0.141221
      dxz     :     0.024087
      dyz     :     0.028643
      dx2y2   :     0.027914
      dxy     :     0.026610

 12 C s       :     0.940959  s :     0.940959
      pz      :     0.945235  p :     3.000073
      px      :     1.025898
      py      :     1.028939
      dz2     :     0.016080  d :     0.071900
      dxz     :     0.014178
      dyz     :     0.018019
      dx2y2   :     0.013400
      dxy     :     0.010222

 13 C s       :     0.949090  s :     0.949090
      pz      :     1.027893  p :     3.015326
      px      :     0.949192
      py      :     1.038241
      dz2     :     0.016451  d :     0.072769
      dxz     :     0.013268
      dyz     :     0.010817
      dx2y2   :     0.013151
      dxy     :     0.019082

 14 C s       :     0.937907  s :     0.937907
      pz      :     1.021730  p :     3.012514
      px      :     1.026843
      py      :     0.963942
      dz2     :     0.020347  d :     0.073029
      dxz     :     0.006262
      dyz     :     0.013166
      dx2y2   :     0.017372
      dxy     :     0.015882

 15 H s       :     0.925024  s :     0.925024
      pz      :     0.016911  p :     0.042538
      px      :     0.013477
      py      :     0.012151

 16 H s       :     0.917128  s :     0.917128
      pz      :     0.010940  p :     0.043174
      px      :     0.022295
      py      :     0.009939

 17 H s       :     0.920016  s :     0.920016
      pz      :     0.010124  p :     0.043806
      px      :     0.011040
      py      :     0.022642

 18 H s       :     0.922291  s :     0.922291
      pz      :     0.015775  p :     0.040972
      px      :     0.013156
      py      :     0.012040

 19 H s       :     0.921648  s :     0.921648
      pz      :     0.018844  p :     0.043043
      px      :     0.013417
      py      :     0.010782

 20 H s       :     0.917798  s :     0.917798
      pz      :     0.018031  p :     0.042346
      px      :     0.013724
      py      :     0.010591

 21 H s       :     0.915030  s :     0.915030
      pz      :     0.017156  p :     0.043117
      px      :     0.010152
      py      :     0.015809

 22 H s       :     0.915897  s :     0.915897
      pz      :     0.019798  p :     0.042922
      px      :     0.010373
      py      :     0.012751

 23 H s       :     0.918378  s :     0.918378
      pz      :     0.020345  p :     0.043749
      px      :     0.010178
      py      :     0.013227

 24 H s       :     0.916244  s :     0.916244
      pz      :     0.016296  p :     0.042751
      px      :     0.011702
      py      :     0.014752

 25 H s       :     0.920187  s :     0.920187
      pz      :     0.008934  p :     0.039909
      px      :     0.013329
      py      :     0.017647

 26 H s       :     0.920926  s :     0.920926
      pz      :     0.013567  p :     0.042571
      px      :     0.016917
      py      :     0.012087

 27 H s       :     0.917249  s :     0.917249
      pz      :     0.012304  p :     0.042913
      px      :     0.019936
      py      :     0.010673

 28 H s       :     0.913664  s :     0.913664
      pz      :     0.012609  p :     0.042059
      px      :     0.018605
      py      :     0.010845

 29 H s       :     0.927217  s :     0.927217
      pz      :     0.011356  p :     0.042832
      px      :     0.018569
      py      :     0.012907

 30 H s       :     0.925336  s :     0.925336
      pz      :     0.013375  p :     0.044129
      px      :     0.012911
      py      :     0.017843

 31 H s       :     0.919779  s :     0.919779
      pz      :     0.010883  p :     0.043413
      px      :     0.013223
      py      :     0.019307

 32 H s       :     0.931989  s :     0.931989
      pz      :     0.011435  p :     0.046818
      px      :     0.024792
      py      :     0.010590

 33 H s       :     0.930155  s :     0.930155
      pz      :     0.022681  p :     0.044966
      px      :     0.011161
      py      :     0.011124

 34 H s       :     0.919902  s :     0.919902
      pz      :     0.011181  p :     0.043073
      px      :     0.012782
      py      :     0.019110

 35 H s       :     0.920857  s :     0.920857
      pz      :     0.014477  p :     0.043941
      px      :     0.011586
      py      :     0.017879

 36 H s       :     0.920278  s :     0.920278
      pz      :     0.012781  p :     0.043853
      px      :     0.014463
      py      :     0.016610

[...]
 81:   1514.20   0.000428    2.16  0.000088  ( 0.003506  0.002767  0.008258)
 82:   1517.86   0.003358   16.97  0.000690  ( 0.008720  0.024668 -0.002410)
 83:   1523.28   0.001792    9.06  0.000367  (-0.011284  0.015480  0.000373)
 84:   1524.90   0.001317    6.65  0.000269  ( 0.005405  0.001651 -0.015411)
 85:   1526.28   0.000690    3.49  0.000141  (-0.008201  0.008436  0.001663)
 86:   1529.00   0.002420   12.23  0.000494  (-0.013812 -0.017411 -0.000091)
 87:   1533.51   0.000454    2.30  0.000092  ( 0.004749 -0.007738 -0.003164)
 88:   1540.48   0.000399    2.02  0.000081  ( 0.006816 -0.005784 -0.000964)
 89:   1543.51   0.001027    5.19  0.000208  (-0.010169  0.000139 -0.010213)
 90:   1551.03   0.003103   15.68  0.000624  ( 0.003317 -0.000886  0.024748)
 91:   1551.75   0.000720    3.64  0.000145  ( 0.007187 -0.008786 -0.003985)
 92:   1797.35   0.000058    0.29  0.000010  (-0.001913 -0.000866 -0.002381)
 93:   3075.93   0.006524   32.97  0.000662  ( 0.009450  0.023572  0.004112)
 94:   3086.53   0.005828   29.45  0.000589  ( 0.010344  0.018183 -0.012313)
 95:   3086.98   0.007597   38.39  0.000768  (-0.007408 -0.025858  0.006668)
 96:   3091.27   0.006592   33.31  0.000665  (-0.011331 -0.011636 -0.020043)
 97:   3097.36   0.005111   25.83  0.000515  ( 0.002252  0.006622  0.021588)
 98:   3101.86   0.005209   26.32  0.000524  ( 0.011198 -0.019782  0.002708)
 99:   3104.57   0.007253   36.65  0.000729  ( 0.019096  0.009746 -0.016412)
100:   3110.71   0.005199   26.27  0.000522  (-0.020680 -0.007631  0.005971)
101:   3113.45   0.014175   71.63  0.001421  (-0.002219  0.035478  0.012535)
102:   3117.20   0.004908   24.80  0.000491  (-0.007732  0.000027  0.020774)
103:   3119.74   0.009182   46.40  0.000918  (-0.029554  0.006004  0.002988)
104:   3129.24   0.011481   58.02  0.001145  (-0.013572  0.015548 -0.026815)
105:   3138.29   0.004100   20.72  0.000408  (-0.007983  0.014480  0.011590)
106:   3159.83   0.000688    3.48  0.000068  ( 0.006514 -0.000241 -0.005051)
107:   3173.76   0.001765    8.92  0.000174  (-0.000143  0.013012 -0.002050)
108:   3174.35   0.004262   21.54  0.000419  ( 0.007919  0.000785  0.018859)
109:   3178.01   0.007117   35.97  0.000699  (-0.026014  0.001033  0.004589)
110:   3180.28   0.005694   28.77  0.000559  (-0.019892 -0.011997  0.004368)
111:   3182.34   0.005161   26.08  0.000506  ( 0.000903 -0.022427  0.001526)
112:   3184.89   0.004776   24.14  0.000468  ( 0.011432 -0.017613  0.005201)
113:   3188.49   0.003398   17.17  0.000333  (-0.004043  0.006087  0.016709)
114:   3198.21   0.005012   25.33  0.000489  (-0.019611 -0.002396 -0.009935)
115:   3209.69   0.003289   16.62  0.000320  (-0.000148  0.001051 -0.017851)
116:   3213.66   0.002599   13.14  0.000252  ( 0.015788  0.001441  0.001031)

* The epsilon (eps) is given for a Dirac delta lineshape.
** The dipole moment derivative (T) already includes vibrational overlap.

The first frequency considered to be a vibration is 6
The total number of vibrations considered is 111


--------------------------
THERMOCHEMISTRY AT 298.15K
--------------------------

Temperature         ...   298.15 K
Pressure            ...     1.00 atm
Total Mass          ...   204.36 AMU
Quasi RRHO          ...     True
Cut-Off Frequency   ...     1.00 cm^-1

Throughout the following assumptions are being made:
  (1) The electronic state is orbitally nondegenerate
  (2) There are no thermally accessible electronically excited states
  (3) Hindered rotations indicated by low frequency modes are not
      treated as such but are treated as vibrations and this may
      cause some error
  (4) All equations used are the standard statistical mechanics
      equations for an ideal gas
  (5) All vibrations are strictly harmonic

freq.      73.92  E(vib)   ...       0.49 
freq.      79.31  E(vib)   ...       0.49 
freq.     137.99  E(vib)   ...       0.42 
freq.     173.87  E(vib)   ...       0.38 
freq.     214.51  E(vib)   ...       0.34 
freq.     219.46  E(vib)   ...       0.33 
freq.     232.63  E(vib)   ...       0.32 
freq.     242.60  E(vib)   ...       0.31 
freq.     251.50  E(vib)   ...       0.30 
freq.     262.97  E(vib)   ...       0.29 
freq.     271.78  E(vib)   ...       0.29 
freq.     296.56  E(vib)   ...       0.27 
freq.     320.16  E(vib)   ...       0.25 
freq.     340.30  E(vib)   ...       0.23 
freq.     361.25  E(vib)   ...       0.22 
freq.     384.13  E(vib)   ...       0.20 
freq.     413.96  E(vib)   ...       0.19 
freq.     451.35  E(vib)   ...       0.16 
freq.     462.18  E(vib)   ...       0.16 
freq.     512.34  E(vib)   ...       0.14 
freq.     530.12  E(vib)   ...       0.13 
freq.     578.75  E(vib)   ...       0.11 
freq.     601.78  E(vib)   ...       0.10 
freq.     612.81  E(vib)   ...       0.10 
freq.     699.77  E(vib)   ...       0.07 
freq.     711.67  E(vib)   ...       0.07 
freq.     741.71  E(vib)   ...       0.06 
freq.     808.42  E(vib)   ...       0.05 
freq.     817.07  E(vib)   ...       0.05 
freq.     824.60  E(vib)   ...       0.04 
freq.     877.76  E(vib)   ...       0.04 
freq.     897.70  E(vib)   ...       0.03 
freq.     929.74  E(vib)   ...       0.03 
freq.     959.89  E(vib)   ...       0.03 
freq.     977.13  E(vib)   ...       0.03 
freq.     979.57  E(vib)   ...       0.03 
freq.     990.94  E(vib)   ...       0.02 
freq.     994.52  E(vib)   ...       0.02 
freq.     996.73  E(vib)   ...       0.02 
freq.    1015.59  E(vib)   ...       0.02 
freq.    1028.71  E(vib)   ...       0.02 
freq.    1037.50  E(vib)   ...       0.02 
freq.    1070.66  E(vib)   ...       0.02 
freq.    1079.22  E(vib)   ...       0.02 
freq.    1102.12  E(vib)   ...       0.02 
freq.    1117.64  E(vib)   ...       0.01 
freq.    1130.30  E(vib)   ...       0.01 
freq.    1141.78  E(vib)   ...       0.01 
freq.    1168.32  E(vib)   ...       0.01 
freq.    1182.75  E(vib)   ...       0.01 
freq.    1194.96  E(vib)   ...       0.01 
freq.    1222.31  E(vib)   ...       0.01 
freq.    1224.57  E(vib)   ...       0.01 
freq.    1241.81  E(vib)   ...       0.01 
freq.    1258.58  E(vib)   ...       0.01 
freq.    1260.81  E(vib)   ...       0.01 
freq.    1268.76  E(vib)   ...       0.01 
freq.    1282.06  E(vib)   ...       0.01 
freq.    1304.66  E(vib)   ...       0.01 
freq.    1324.06  E(vib)   ...       0.01 
freq.    1342.75  E(vib)   ...       0.01 
freq.    1355.87  E(vib)   ...       0.01 
freq.    1368.72  E(vib)   ...       0.01 
freq.    1372.69  E(vib)   ...       0.01 
freq.    1379.01  E(vib)   ...       0.01 
freq.    1387.53  E(vib)   ...       0.00 
freq.    1392.17  E(vib)   ...       0.00 
freq.    1408.49  E(vib)   ...       0.00 
freq.    1433.95  E(vib)   ...       0.00 
freq.    1437.43  E(vib)   ...       0.00 
freq.    1442.46  E(vib)   ...       0.00 
freq.    1452.60  E(vib)   ...       0.00 
freq.    1458.57  E(vib)   ...       0.00 
freq.    1505.98  E(vib)   ...       0.00 
freq.    1510.22  E(vib)   ...       0.00 
freq.    1514.20  E(vib)   ...       0.00 
freq.    1517.86  E(vib)   ...       0.00 
freq.    1523.28  E(vib)   ...       0.00 
freq.    1524.90  E(vib)   ...       0.00 
freq.    1526.28  E(vib)   ...       0.00 
freq.    1529.00  E(vib)   ...       0.00 
freq.    1533.51  E(vib)   ...       0.00 
freq.    1540.48  E(vib)   ...       0.00 
freq.    1543.51  E(vib)   ...       0.00 
freq.    1551.03  E(vib)   ...       0.00 
freq.    1551.75  E(vib)   ...       0.00 
freq.    1797.35  E(vib)   ...       0.00 
freq.    3075.93  E(vib)   ...       0.00 
freq.    3086.53  E(vib)   ...       0.00 
freq.    3086.98  E(vib)   ...       0.00 
freq.    3091.27  E(vib)   ...       0.00 
freq.    3097.36  E(vib)   ...       0.00 
freq.    3101.86  E(vib)   ...       0.00 
freq.    3104.57  E(vib)   ...       0.00 
freq.    3110.71  E(vib)   ...       0.00 
freq.    3113.45  E(vib)   ...       0.00 
freq.    3117.20  E(vib)   ...       0.00 
freq.    3119.74  E(vib)   ...       0.00 
freq.    3129.24  E(vib)   ...       0.00 
freq.    3138.29  E(vib)   ...       0.00 
freq.    3159.83  E(vib)   ...       0.00 
freq.    3173.76  E(vib)   ...       0.00 
freq.    3174.35  E(vib)   ...       0.00 
freq.    3178.01  E(vib)   ...       0.00 
freq.    3180.28  E(vib)   ...       0.00 
freq.    3182.34  E(vib)   ...       0.00 
freq.    3184.89  E(vib)   ...       0.00 
freq.    3188.49  E(vib)   ...       0.00 
freq.    3198.21  E(vib)   ...       0.00 
freq.    3209.69  E(vib)   ...       0.00 
freq.    3213.66  E(vib)   ...       0.00 

------------
INNER ENERGY
------------

The inner energy is: U= E(el) + E(ZPE) + E(vib) + E(rot) + E(trans)
    E(el)   - is the total energy from the electronic structure calculation
              = E(kin-el) + E(nuc-el) + E(el-el) + E(nuc-nuc)
    E(ZPE)  - the the zero temperature vibrational energy from the frequency calculation
    E(vib)  - the the finite temperature correction to E(ZPE) due to population
              of excited vibrational states
    E(rot)  - is the rotational thermal energy
    E(trans)- is the translational thermal energy

Summary of contributions to the inner energy U:
Electronic energy                ...    -99.96911305 Eh
Zero point energy                ...      0.36726082 Eh     230.46 kcal/mol
Thermal vibrational correction   ...      0.01140469 Eh       7.16 kcal/mol
Thermal rotational correction    ...      0.00141627 Eh       0.89 kcal/mol
Thermal translational correction ...      0.00141627 Eh       0.89 kcal/mol
-----------------------------------------------------------------------
Total thermal energy                    -99.58761500 Eh


Summary of corrections to the electronic energy:
(perhaps to be used in another calculation)
Total thermal correction                  0.01423723 Eh       8.93 kcal/mol
Non-thermal (ZPE) correction              0.36726082 Eh     230.46 kcal/mol
-----------------------------------------------------------------------
Total correction                          0.38149806 Eh     239.39 kcal/mol


--------
ENTHALPY
--------

The enthalpy is H = U + kB*T
                kB is Boltzmann's constant
Total thermal energy              ...    -99.58761500 Eh 
Thermal Enthalpy correction       ...      0.00094421 Eh       0.59 kcal/mol
-----------------------------------------------------------------------
Total Enthalpy                    ...    -99.58667079 Eh


Note: Only C1 symmetry has been detected, increase convergence thresholds 
      if your molecule has a higher symmetry. Symmetry factor of 1.0 is   
      used for the rotational entropy correction. 
 

Note: Rotational entropy computed according to Herzberg 
Infrared and Raman Spectra, Chapter V,1, Van Nostrand Reinhold, 1945 
Point Group:  C1, Symmetry Number:   1  
Rotational constants in cm-1:     0.033864     0.017649     0.016116 

Vibrational entropy computed according to the QRRHO of S. Grimme
Chem.Eur.J. 2012 18 9955 using a reference frequency of 100.0 cm-1


-------
ENTROPY
-------

The entropy contributions are T*S = T*(S(el)+S(vib)+S(rot)+S(trans))
     S(el)   - electronic entropy
     S(vib)  - vibrational entropy
     S(rot)  - rotational entropy
     S(trans)- translational entropy
The entropies will be listed as multiplied by the temperature to get
units of energy

Electronic entropy                ...      0.00000000 Eh      0.00 kcal/mol
Vibrational entropy               ...      0.01874792 Eh     11.76 kcal/mol
Rotational entropy                ...      0.01496366 Eh      9.39 kcal/mol
Translational entropy             ...      0.01988345 Eh     12.48 kcal/mol
-----------------------------------------------------------------------
Final entropy term                ...      0.05359503 Eh     33.63 kcal/mol

In case the symmetry of your molecule has not been determined correctly
or in case you have a reason to use a different symmetry number we print 
out the resulting rotational entropy values for sn=1,12:

 non-linear molecules -----------------------------------
|  sn= 1 | S(rot)=       0.01496366 Eh      9.39 kcal/mol|
|  sn= 2 | S(rot)=       0.01430920 Eh      8.98 kcal/mol|
|  sn= 3 | S(rot)=       0.01392637 Eh      8.74 kcal/mol|
|  sn= 4 | S(rot)=       0.01365474 Eh      8.57 kcal/mol|
|  sn= 5 | S(rot)=       0.01344406 Eh      8.44 kcal/mol|
|  sn= 6 | S(rot)=       0.01327191 Eh      8.33 kcal/mol|
|  sn= 7 | S(rot)=       0.01312637 Eh      8.24 kcal/mol|
|  sn= 8 | S(rot)=       0.01300029 Eh      8.16 kcal/mol|
|  sn= 9 | S(rot)=       0.01288908 Eh      8.09 kcal/mol|
|  sn=10 | S(rot)=       0.01278960 Eh      8.03 kcal/mol|
|  sn=11 | S(rot)=       0.01269961 Eh      7.97 kcal/mol|
|  sn=12 | S(rot)=       0.01261746 Eh      7.92 kcal/mol|
 linear molecules ---------------------------------------
|  Dinfh | S(rot)=       0.00922336 Eh      5.79 kcal/mol|
|  Cinfv | S(rot)=       0.00987781 Eh      6.20 kcal/mol|
 --------------------------------------------------------


-------------------
GIBBS FREE ENERGY
-------------------

The Gibbs free energy is G = H - T*S

Total enthalpy                    ...    -99.58667079 Eh 
Total entropy correction          ...     -0.05359503 Eh    -33.63 kcal/mol
-----------------------------------------------------------------------
Final Gibbs free energy         ...    -99.64026581 Eh

For completeness - the Gibbs free energy minus the electronic energy
G-E(el)                           ...      0.32884724 Eh    206.35 kcal/mol


Maximum memory used throughout the entire PROP-calculation: 242.2 MB

--------------------------------
SUGGESTED CITATIONS FOR THIS RUN
--------------------------------

Below you find a list of papers that are relevant to this ORCA run
We neither can nor want to force you to cite these papers, but we appreciate if you do
You receive ORCA, which is the product of decades of hard work by many enthusiastic individuals, for free
The only thing we kindly ask in return is that you cite our papers,
We deeply appreciate it, if you show your appreciation for ORCA by not just citing the generic ORCA reference.

Please note that relegating all ORCA citations to the supporting information does *not* help us.
SI sections are not indexed - citations you put there will not count into any citation statistics
But we need these citations in order to attract the funding resources that allow us to do what we are doing

Therefore, if you are a happy ORCA user, please consider citing a few of the papers listed below in the main body of your paper

In addition to the list printed below, the program has created the file ./output/beta_patchoulene/beta_patchoulene.bibtex that contains the list in bibtex format
You can import this file easily into all common literature databanks and citation aid programs


List of essential papers. We consider these as the minimum necessary citations

  1. Neese,F.
     Software update: the ORCA program system, version 5.0
     WIRES Comput. Molec. Sci., 2022 12(1)e1606
     doi.org/10.1002/wcms.1606
  2. Mueller,M.; Hansen,A.; Grimme,S.
     wB97X-3c: A composite range-separated hybrid DFT method with a molecule-optimized polarized valence double-zeta basis set
     J. Chem. Phys., 2023 158 014103
     doi.org/10.1063/5.0133026

List of papers to cite with high priority. The work reported in these papers was absolutely
necessary for this run to complete.
Our perspective: the developers of density functionals and basis sets usually get cited in chemistry papers
Good! But without the algorithms to do something with them, the functionals or basis sets would not do anything.
Hence, in our opinion, the algorithm design and method developments papers are equally worthy of getting cited

  1. Neese,F.
     An improvement of the resolution of the identity approximation for the formation of the Coulomb matrix
     J. Comp. Chem., 2003 24(14)1740-1747
     doi.org/10.1002/jcc.10318
  2. Neese,F.; Wennmohs,F.; Hansen,A.; Becker,U.
     Efficient, approximate and parallel Hartree-Fock and hybrid DFT calculations. A 'chain-of-spheres' algorithm for the Hartree-Fock exchange
     Chem. Phys., 2009 356(1-3)98-109
     doi.org/10.1016/j.chemphys.2008.10.036
  3. Bykov,D.; Petrenko,T.; Izsak,R.; Kossmann,S.; Becker,U.; Valeev,E.; Neese,F.
     Efficient implementation of the analytic second derivatives of Hartree-Fock and hybrid DFT energies: a detailed analysis of different approximations
     Molec. Phys., 2015 113 1961-1977
     doi.org/10.1080/00268976.2015.1025114
  4. Helmich-Paris,B.; de Souza,B.; Neese,F.; Izsák,R.
     An improved chain of spheres for exchange algorithm
     J. Chem. Phys., 2021 155 104109
     doi.org/doi: 10.1063/5.0058766.
  5. Neese,F.
     The SHARK Integral Generation and Digestion System
     J. Comp. Chem., 2022  1-16
     doi.org/10.1002/jcc.26942
  6. Caldeweyher,E.; Bannwarth,C.; Grimme,S.
     Extension of the D3 dispersion coefficient model
     J. Chem. Phys., 2017 147 034112
     doi.org/10.1063/1.4993215
  7. Caldeweyher,E.; Ehlert,S.; Hansen,A.; Neugebauer,H.; Spicher,S.; Bannwarth,C.; Grimme,S.
     A generally applicable atomic-charge dependent London dispersion correction
     J. Chem. Phys., 2019 150 154122
     doi.org/10.1063/1.5090222
  8. Caldeweyher,E.; Mewes,J.; Ehlert,S.; Grimme,S.
     Extension and evaluation of the D4 London-dispersion model for periodic systems
     Phys. Chem. Chem. Phys., 2020 22(16)8499-8512
     doi.org/10.1039/D0CP00502A
  9. Wittmann,L.; Gordiy,I.; Friede,M.; Helmich-Paris,B.; Grimme,S.; Hansen,A.; Bursch,M.
     Extension of the D3 and D4 London Dispersion Corrections to the full Actinides Series
     Phys. Chem. Chem. Phys., 2024 26(32)21379-21394
     doi.org/https://doi.org/10.1039/D4CP01514B 

List of suggested additional citations. These are papers that are important in the 'surrounding' of 
of this run, or papers that preceded the highly important papers. If you like your results we are grateful for a citation.

  1. Izsak,R.; Neese,F.
     An overlap fitted chain of spheres exchange method
     J. Chem. Phys., 2011 135 144105
     doi.org/10.1063/1.3646921
  2. Izsak,R.; Hansen,A.; Neese,F.
     The resolution of identity and chain of spheres approximations for the LPNO-CCSD singles Fock term
     Molec. Phys., 2012 110 2413-2417
     doi.org/10.1080/00268976.2012.687466
  3. Neese,F.
     The ORCA program system
     WIRES Comput. Molec. Sci., 2012 2(1)73-78
     doi.org/10.1002/wcms.81
  4. Izsak,R.; Neese,F.; Klopper,W.
     Robust fitting techniques in the chain of spheres approximation to the Fock exchange: The role of the complementary space
     J. Chem. Phys., 2013 139 
     doi.org/10.1063/1.4819264
  5. Neese,F.
     Software update: the ORCA program system, version 4.0
     WIRES Comput. Molec. Sci., 2018 8(1)1-6
     doi.org/10.1002/wcms.1327
  6. Neese,F.; Wennmohs,F.; Becker,U.; Riplinger,C.
     The ORCA quantum chemistry program package
     J. Chem. Phys., 2020 152 Art. No. L224108
     doi.org/10.1063/5.0004608

List of optional additional citations

  1. Neese,F.
     Approximate second-order SCF convergence for spin unrestricted wavefunctions
     Chem. Phys. Lett., 2000 325(1-3)93-98
     doi.org/10.1016/s0009-2614(00)00662-x

Timings for individual modules:

Sum of individual times          ...     1760.525 sec (=  29.342 min)
Startup calculation              ...       70.986 sec (=   1.183 min)   4.0 %
SCF iterations                   ...      992.448 sec (=  16.541 min)  56.4 %
Property integrals               ...      143.633 sec (=   2.394 min)   8.2 %
SCF Response                     ...       85.824 sec (=   1.430 min)   4.9 %
Property calculations            ...      232.955 sec (=   3.883 min)  13.2 %
SCF Gradient evaluation          ...      234.361 sec (=   3.906 min)  13.3 %
Geometry relaxation              ...        0.317 sec (=   0.005 min)   0.0 %
                             ****ORCA TERMINATED NORMALLY****
TOTAL RUN TIME: 0 days 0 hours 29 minutes 26 seconds 949 msec
