
                                 *****************
                                 * O   R   C   A *
                                 *****************

                                            #,                                       
                                            ###                                      
                                            ####                                     
                                            #####                                    
                                            ######                                   
                                           ########,                                 
                                     ,,################,,,,,                         
                               ,,#################################,,                 
                          ,,##########################################,,             
                       ,#########################################, ''#####,          
                    ,#############################################,,   '####,        
                  ,##################################################,,,,####,       
                ,###########''''           ''''###############################       
              ,#####''   ,,,,##########,,,,          '''####'''          '####       
            ,##' ,,,,###########################,,,                        '##       
           ' ,,###''''                  '''############,,,                           
         ,,##''                                '''############,,,,        ,,,,,,###''
      ,#''                                            '''#######################'''  
     '                                                          ''''####''''         
             ,#######,   #######,   ,#######,      ##                                
            ,#'     '#,  ##    ##  ,#'     '#,    #''#        ,####,   ,####,        
            ##       ##  ##   ,#'  ##            #'  '#       #'       #'  '#        
            ##       ##  #######   ##           ,######,      #####,   #    #        
            '#,     ,#'  ##    ##  '#,     ,#' ,#      #,     #,   #   #,  ,#        
             '#######'   ##     ##  '#######'  #'      '#     '####' # '####'        



                #########################################################
                #                        -***-                          #
                #          Department of theory and spectroscopy        #
                #                                                       #
                #                      Frank Neese                      #
                #                                                       #
                #     Directorship, Architecture, Infrastructure        #
                #                    SHARK, DRIVERS                     #
                #        Core code/Algorithms in most modules           #
                #                                                       #
                #        Max Planck Institute fuer Kohlenforschung      #
                #                Kaiser Wilhelm Platz 1                 #
                #                 D-45470 Muelheim/Ruhr                 #
                #                      Germany                          #
                #                                                       #
                #                  All rights reserved                  #
                #                        -***-                          #
                #########################################################


                         Program Version 6.0.1  -  RELEASE   -


 With contributions from (in alphabetic order):
[Max-Planck-Institut fuer Kohlenforschung]                               
  Daniel Aravena         : Magnetic Suceptibility                        
  Michael Atanasov       : Ab Initio Ligand Field Theory (pilot matlab implementation)
  Alexander A. Auer      : GIAO ZORA, VPT2 properties, NMR spectrum      
  Ute Becker             : All parallelization in ORCA, NUMFREQ, NUMCALC 
  Giovanni Bistoni       : ED, misc. LED, open-shell LED, HFLD           
  Martin Brehm           : Molecular dynamics                            
  Dmytro Bykov           : pre 5.0 version of the SCF Hessian            
  Marcos Casanova-Páez   : Triplet and SCS-CIS(D). UHF-(DLPNO)-IP/EA/STEOM-CCSD. UHF-CVS-IP/STEOM-CCSD   
  Vijay G. Chilkuri      : MRCI spin determinant printing, contributions to CSF-ICE 
  Pauline Colinet        : FMM embedding                                 
  Dipayan Datta          : RHF DLPNO-CCSD density                        
  Achintya Kumar Dutta   : EOM-CC, STEOM-CC                              
  Nicolas Foglia         : Exact transition moments, OPA infrastructure, MCD improvements    
  Dmitry Ganyushin       : Spin-Orbit,Spin-Spin,Magnetic field MRCI      
  Miquel Garcia-Rates    : C-PCM and meta-GGA Hessian, CCSD/C-PCM, Gaussian charge scheme 
  Tiago L. C. Gouveia    : GS-ROHF, GS-ROCIS                             
  Yang Guo               : DLPNO-NEVPT2, F12-NEVPT2, CIM, IAO-localization        
  Andreas Hansen         : Spin unrestricted coupled pair/coupled cluster methods 
  Ingolf Harden          : AUTO-CI MPn and infrastructure                
  Benjamin Helmich-Paris : MC-RPA, TRAH-(SCF,CASSCF), AVAS, COSX integrals, SCF dyn. polar. 
  Lee Huntington         : MR-EOM, pCC                                   
  Robert Izsak           : Overlap fitted RIJCOSX, COSX-SCS-MP3, EOM     
  Riya Kayal             : Wick's Theorem for AUTO-CI, AUTO-CI UHF-CCSDT 
  Emily Kempfer          : AUTO-CI, RHF CISDT and CCSDT                  
  Christian Kollmar      : KDIIS, OOCD, Brueckner-CCSD(T), CCSD density, CASPT2, CASPT2-K, improved NEVPT2 
  Axel Koslowski         : Symmetry handling                             
  Simone Kossmann        : meta-GGA functionals, TD-DFT gradient, OOMP2, (MP2 Hessian; deprecated post 5.0) 
  Lucas Lang             : DCDCAS                                        
  Marvin Lechner         : AUTO-CI (C++ implementation), FIC-MRCC        
  Spencer Leger          : CASSCF response                               
  Dagmar Lenk            : GEPOL surface, SMD, ORCA-2-JSON               
  Dimitrios Liakos       : Extrapolation schemes; Compound Job, initial MDCI parallelization 
  Dimitrios Manganas     : Further ROCIS development; embedding schemes. LFT, Crystal Embedding 
  Dimitrios Pantazis     : SARC Basis sets                               
  Anastasios Papadopoulos: AUTO-CI, single reference methods and gradients 
  Taras Petrenko         : pre 6.0 DFT Hessian and TD-DFT gradient, (ASA, deprecated), ECA, 1-Electron XAS/XES, NRVS 
  Peter Pinski           : DLPNO-MP2, DLPNO-MP2 Gradient                 
  Christoph Reimann      : Effective Core Potentials                     
  Marius Retegan         : Local ZFS, SOC                                
  Christoph Riplinger    : Optimizer, TS searches, QM/MM, DLPNO-CCSD(T), (RO)-DLPNO pert. Triples 
  Michael Roemelt        : Original ROCIS implementation                 
  Masaaki Saitow         : Open-shell DLPNO-CCSD energy and density      
  Barbara Sandhoefer     : DKH picture change effects                    
  Kantharuban Sivalingam : CASSCF convergence/infrastructure, NEVPT2 and variants, FIC-MRCI 
  Bernardo de Souza      : ESD, SOC TD-DFT                               
  Georgi L. Stoychev     : AutoAux, RI-MP2 NMR, DLPNO-MP2 response, X2C  
  Van Anh Tran           : RI-MP2 g-tensors                              
  Willem Van den Heuvel  : Paramagnetic NMR                              
  Zikuan Wang            : NOTCH, Electric field optimization            
  Frank Wennmohs         : Technical directorship and infrastructure     
  Hang Xu                : AUTO-CI-Response properties                   
                                                                         
[FACCTs GmbH]                                                            
  Markus Bursch, Miquel Garcia-Rates, Christoph Riplinger, Bernardo de Souza, Georgi L. Stoychev 
                                                                 
  APM, Basis sets (HGBS, AHGBS, def-TZVP (Ac-Lr), def2-XVPD (La-Lu)), CI-OPT, improved COSX, DLPNO-Multilevel,           
  DOCKER, DRACO, updates on ESD, GOAT, IRC, LR-CPCM, MBIS, meta-GGA TD-DFT gradient, ML-optimized integration grids, 
  MM, NACMEs, nearIR, NEB, NEB-TS, NL-DFT gradient (VV10), 2- and 3-layer-ONIOM, interface openCOSMO-RS, QMMM,   
  Crystal-QMMM, SF, symmetry and pop. for TD-DFT, r2SCAN hybrids, SOLVATOR                                   
                                                                         
[Other institutions]                                                     
  V. Asgeirsson          : NEB                                           
  Christoph Bannwarth    : sTDA-DFT, sTD-DFT, PBEh-3c, B97-3c, D3        
  Sebastian Ehlert       : rSCAN, r2SCAN, r2SCAN-3c, D4, dhf basis sets  
  Marvin Friede          : D4 for Fr, Ra, Ac-Lr                          
  Lars Goerigk           : TD-DFT with DH, B97 family of functionals     
  Stefan Grimme          : VdW corrections, initial TS optimization, DFT functionals, gCP, sTDA/sTD-DF 
  Waldemar Hujo          : DFT-NL                                        
  H. Jonsson             : NEB                                           
  Holger Kruse           : gCP                                           
  Marcel Mueller         : wB97X-3c, vDZP basis set                      
  Hagen Neugebauer       : wr2SCAN                                       
  Tobias Risthaus        : range-separated hybrid DFT                    
  Lukas Wittmann         : regularized MP2, r2SCAN double-hybrids, wr2SCAN        
                                                                         
We gratefully acknowledge several colleagues who have allowed us to      
interface, adapt or use parts of their codes:                            
  Ed Valeev, F. Pavosevic, A. Kumar             : LibInt (2-el integral package), F12 methods 
  Garnet Chan, S. Sharma, J. Yang, R. Olivares  : DMRG                   
  Ulf Ekstrom                                   : XCFun DFT Library      
  Mihaly Kallay                                 : mrcc  (arbitrary order and MRCC methods)
  Frank Weinhold                                : gennbo (NPA and NBO analysis)           
  Simon Mueller                                 : openCOSMO-RS                            
  Christopher J. Cramer and Donald G. Truhlar   : smd solvation model                     
  S Lehtola, MJT Oliveira, MAL Marques          : LibXC Library                           
  Liviu Ungur et al                             : ANISO software                          


 Your calculation uses the libint2 library for the computation of 2-el integrals
 For citations please refer to: http://libint.valeyev.net

 Your ORCA version has been built with support for libXC version: 6.2.2
 For citations please refer to: https://libxc.gitlab.io

 This ORCA versions uses:
   CBLAS   interface :  Fast vector & matrix operations
   LAPACKE interface :  Fast linear algebra routines
   SCALAPACK package :  Parallel linear algebra routines
   Shared memory     :  Shared parallel matrices
   BLAS/LAPACK       :  OpenBLAS 0.3.27  USE64BITINT DYNAMIC_ARCH NO_AFFINITY SkylakeX SINGLE_THREADED
        Core in use  :  SkylakeX
   Copyright (c) 2011-2014, The OpenBLAS Project


Your calculation utilizes the atom-pairwise dispersion correction
based on EEQ partial charges (D4)


================================================================================

cite the ECPs for C  [vDZP-ECP], O  [vDZP-ECP] as follows:
   B-Ne (ecp-2-mwb), Al-Ar (ecp-10-mwb), Ga-Kr (ecp-28-mwb), Y-Cd (ecp-28-mwb), In-Xe (ecp-46-mwb):
     A. Bergner, M. Dolg, W. Küchle, H. Stoll, and H. Preuß, Mol. Phys. 80, 1431 (1993)., T. Leininger, A. Berning, A. Nicklass, H. Stoll, H.-J. Werner, and H.-J.Flad, Chem. Phys. 217, 19 (1997).
   Na-Mg, K-Ca, Rb-Sr, Cs-Ba (CRENBL):
     L. Fernandez Pacios and P. A. Christiansen, J. Chem. Phys. 82, 2664 (1985)., M. M. Hurley, L. F. Pacios, P. A. Christiansen, R. B. Ross, and W. C. Ermler, J. Chem. Phys. 84, 6840 (1986)., L. A. LaJohn, P. A. Christiansen, R. B. Ross, T. Atashroo, and W. C. Ermler, J. Chem. Phys. 87, 2812 (1987)., R. B. Ross, J. M. Powers, T. Atashroo, W. C. Ermler, L. A. LaJohn, and P. A. Christiansen, J. Chem. Phys. 93, 6654 (1990). 
   Sc-Zn (ecp-10-mdf):
     M. Dolg, U. Wedig, H. Stoll, and H. Preuss, J. Chem. Phys. 86, 866 (1986). 
   Y-Cd (ecp-28-mwb), Hf-Hg (ecp-60-mwb):
     D. Andrae, U. Häußermann, M. Dolg, H. Stoll, and H. Preuß, Theor. Chim. Acta 77, 123 (1990). 
   La (ecp-46-mwb):
     M. Dolg, H. Stoll, and H. Preuss, J. Chem. Phys. 90, 1730 (1989)., M. Dolg, H. Stoll, and H. Preuss, Theor. Chim. Acta 85, 441 (1993).
   Ce-Lu (SBKJC-ecp):
     T. R. Cundari and W. J. Stevens, J. Chem. Phys. 98, 5555 (1993).
   Tl-Rn (ecp-78-mwb):
     W. Küchle, M. Dolg, H. Stoll, and H. Preuss, Mol. Phys. 74, 1245 (1991).

ECP parameters for C  [vDZP-ECP], O  [vDZP-ECP] have been obtained from:
MM, AH, SG, J. Chem. Phys. 158, 014103 (2023), 10.1063/5.0133026

----- Orbital basis set information -----
Your calculation utilizes the basis: vDZP
   Marcel Mueller, Andreas Hansen, Stefan Grimme 
   J. Chem. Phys. 158, 014103 (2023). DOI: 10.1063/5.0133026

----- AuxJ basis set information -----
Your calculation utilizes the auxiliary basis: def2/J
   F. Weigend, Phys. Chem. Chem. Phys. 8, 1057 (2006).

================================================================================
                                        WARNINGS
                       Please study these warnings very carefully!
================================================================================

WARNING: Frozen-Core approximation turned on, but there are no core electrons.
  ===> : Turning off frozen-core approximation


WARNING: Geometry Optimization
  ===> : Switching off AutoStart
         For restart on a previous wavefunction, please use MOREAD

================================================================================
                                       INPUT FILE
================================================================================
NAME = ./output/bornyl_acetate/bornyl_acetate.inp
|  1> ! wB97X-3c OPT FREQ TightSCF
|  2> %pal
|  3>   nprocs 40
|  4> end
|  5> * xyz 0 1
|  6> C      3.978569     1.318191     0.010725
|  7> C      3.028089     0.174280    -0.083680
|  8> O      3.343532    -0.941288     0.412197
|  9> O      1.779443     0.366993    -0.684845
| 10> C      0.760919    -0.635243    -0.742366
| 11> C     -0.186653    -0.378916    -1.936661
| 12> C     -1.576381    -0.248398    -1.262774
| 13> C     -1.964052    -1.672614    -0.794838
| 14> C     -1.030757    -1.901992     0.411345
| 15> C     -0.221754    -0.576353     0.472079
| 16> C     -1.269504     0.483468     0.052835
| 17> C     -0.733517     1.934483    -0.144637
| 18> C     -2.501761     0.615897     1.002285
| 19> C      0.441698    -0.353059     1.839089
| 20> H      5.021005     0.960442    -0.124777
| 21> H      3.880803     1.797359     1.006911
| 22> H      3.750506     2.066416    -0.777058
| 23> H      1.234536    -1.637278    -0.854948
| 24> H     -0.154974    -1.219444    -2.664527
| 25> H      0.076554     0.544903    -2.494239
| 26> H     -2.342724     0.237684    -1.904151
| 27> H     -3.033056    -1.718156    -0.496135
| 28> H     -1.800473    -2.436377    -1.586539
| 29> H     -0.379789    -2.790340     0.255566
| 30> H     -1.612383    -2.080929     1.340941
| 31> H     -0.389068     2.350114     0.825737
| 32> H     -1.548659     2.586727    -0.525200
| 33> H      0.098188     2.040984    -0.860546
| 34> H     -3.289363     1.226952     0.511601
| 35> H     -2.974765    -0.338212     1.296444
| 36> H     -2.206218     1.127999     1.942768
| 37> H      1.164637    -1.169492     2.046531
| 38> H     -0.320909    -0.352343     2.645695
| 39> H      0.978282     0.617542     1.865172
| 40> *
| 41> 
| 42>                          ****END OF INPUT****
================================================================================

                       *****************************
                       * Geometry Optimization Run *
                       *****************************

Geometry optimization settings:
Update method            Update   .... BFGS
Choice of coordinates    CoordSys .... (2022) Redundant Internals
Initial Hessian          InHess   .... Almloef's Model
Max. no of cycles        MaxIter  .... 102

Convergence Tolerances:
Energy Change            TolE     ....  5.0000e-06 Eh
Max. Gradient            TolMAXG  ....  3.0000e-04 Eh/bohr
RMS Gradient             TolRMSG  ....  1.0000e-04 Eh/bohr
Max. Displacement        TolMAXD  ....  4.0000e-03 bohr
RMS Displacement         TolRMSD  ....  2.0000e-03 bohr
Strict Convergence                .... False

------------------------------------------------------------------------------
                        ORCA OPTIMIZATION COORDINATE SETUP
------------------------------------------------------------------------------

The optimization will be done in redundant internal coordinates (2022)
Making redundant internal coordinates   ...  (2022 redundants) done
Evaluating the initial hessian          ...  (Almloef) done
Evaluating the coordinates              ...  done
Calculating the B-matrix                .... done
Calculating the G-matrix                .... done
Diagonalizing the G-matrix              .... done
Small eigenvalue found = 8.836e-03
Small eigenvalue found = 1.401e-02
The first mode is                       ....   85
The number of degrees of freedom        ....   96

    -----------------------------------------------------------------
                    Redundant Internal Coordinates


    -----------------------------------------------------------------
         Definition                    Initial Value    Approx d2E/dq
    -----------------------------------------------------------------
      1. B(C   1,C   0)                  1.4903         0.432304   
      2. B(O   2,C   1)                  1.2609         0.899151   
      3. B(O   3,C   1)                  1.3992         0.541076   
      4. B(C   4,O   3)                  1.4301         0.482952   
      5. B(C   5,C   4)                  1.5459         0.352325   
      6. B(C   6,C   5)                  1.5500         0.347110   
      7. B(C   7,C   6)                  1.5484         0.349116   
      8. B(C   8,C   7)                  1.5422         0.357137   
      9. B(C   9,C   8)                  1.5542         0.341815   
     10. B(C   9,C   4)                  1.5633         0.330527   
     11. B(C  10,C   9)                  1.5481         0.349479   
     12. B(C  10,C   6)                  1.5364         0.364849   
     13. B(C  11,C  10)                  1.5594         0.335332   
     14. B(C  12,C  10)                  1.5612         0.333078   
     15. B(C  13,C   9)                  1.5358         0.365671   
     16. B(H  14,C   0)                  1.1104         0.334083   
     17. B(H  15,C   0)                  1.1098         0.334898   
     18. B(H  16,C   0)                  1.1102         0.334394   
     19. B(H  17,C   4)                  1.1140         0.329675   
     20. B(H  18,C   5)                  1.1123         0.331738   
     21. B(H  19,C   5)                  1.1107         0.333755   
     22. B(H  20,C   6)                  1.1113         0.333033   
     23. B(H  21,C   7)                  1.1109         0.333504   
     24. B(H  22,C   7)                  1.1122         0.331956   
     25. B(H  23,C   8)                  1.1123         0.331788   
     26. B(H  24,C   8)                  1.1111         0.333290   
     27. B(H  25,C  11)                  1.1104         0.334082   
     28. B(H  26,C  11)                  1.1112         0.333152   
     29. B(H  27,C  11)                  1.1025         0.343884   
     30. B(H  28,C  12)                  1.1111         0.333279   
     31. B(H  29,C  12)                  1.1048         0.341042   
     32. B(H  30,C  12)                  1.1109         0.333485   
     33. B(H  31,C  13)                  1.1101         0.334516   
     34. B(H  32,C  13)                  1.1100         0.334545   
     35. B(H  33,C  13)                  1.1094         0.335385   
     36. A(H  15,C   0,H  16)          109.1405         0.284251   
     37. A(H  14,C   0,H  15)          109.3510         0.284210   
     38. A(H  14,C   0,H  16)          108.8689         0.284144   
     39. A(C   1,C   0,H  15)          109.3969         0.328264   
     40. A(C   1,C   0,H  14)          110.1038         0.328132   
     41. A(C   1,C   0,H  16)          109.9601         0.328182   
     42. A(C   0,C   1,O   2)          119.6464         0.432091   
     43. A(O   2,C   1,O   3)          120.9366         0.446999   
     44. A(C   0,C   1,O   3)          119.3853         0.394833   
     45. A(C   1,O   3,C   4)          123.8034         0.400019   
     46. A(O   3,C   4,C   5)          110.5738         0.373580   
     47. A(O   3,C   4,C   9)          112.9565         0.369496   
     48. A(C   5,C   4,H  17)          109.3691         0.316626   
     49. A(C   5,C   4,C   9)          102.0406         0.352339   
     50. A(C   9,C   4,H  17)          112.3102         0.313360   
     51. A(O   3,C   4,H  17)          109.3684         0.331456   
     52. A(C   4,C   5,C   6)          103.1589         0.355274   
     53. A(C   6,C   5,H  19)          111.1428         0.316492   
     54. A(C   4,C   5,H  19)          112.3635         0.317261   
     55. A(C   6,C   5,H  18)          111.9414         0.316180   
     56. A(C   4,C   5,H  18)          111.2704         0.316948   
     57. A(H  18,C   5,H  19)          107.0537         0.283748   
     58. A(C   5,C   6,C   7)          106.1654         0.354723   
     59. A(C   5,C   6,C  10)          103.4919         0.357387   
     60. A(C  10,C   6,H  20)          115.0612         0.318960   
     61. A(C   7,C   6,H  20)          113.8338         0.316677   
     62. A(C   5,C   6,H  20)          113.8415         0.316381   
     63. A(C   7,C   6,C  10)          103.2599         0.357737   
     64. A(C   6,C   7,H  22)          112.3153         0.316510   
     65. A(C   8,C   7,H  22)          111.4444         0.317683   
     66. A(C   8,C   7,H  21)          111.4657         0.317924   
     67. A(C   6,C   7,H  21)          111.0934         0.316750   
     68. A(H  21,C   7,H  22)          107.7459         0.283744   
     69. A(C   6,C   7,C   8)          102.8053         0.356441   
     70. A(H  23,C   8,H  24)          107.1530         0.283694   
     71. A(C   7,C   8,H  24)          111.1937         0.317891   
     72. A(C   7,C   8,H  23)          111.3102         0.317657   
     73. A(C   7,C   8,C   9)          102.6330         0.355165   
     74. A(C   9,C   8,H  23)          112.4608         0.315399   
     75. A(C   9,C   8,H  24)          112.1581         0.315630   
     76. A(C   4,C   9,C  10)          103.9352         0.351857   
     77. A(C  10,C   9,C  13)          115.7131         0.357938   
     78. A(C   8,C   9,C  13)          112.5603         0.356591   
     79. A(C   4,C   9,C   8)          105.3496         0.350541   
     80. A(C   4,C   9,C  13)          115.1752         0.354565   
     81. A(C   8,C   9,C  10)          102.7701         0.353862   
     82. A(C  11,C  10,C  12)          105.6269         0.349863   
     83. A(C   9,C  10,C  12)          115.3122         0.352315   
     84. A(C   6,C  10,C  12)          113.7968         0.354892   
     85. A(C   9,C  10,C  11)          116.0189         0.352717   
     86. A(C   6,C  10,C  11)          113.7941         0.355298   
     87. A(C   6,C  10,C   9)           92.3479         0.357801   
     88. A(H  26,C  11,H  27)          105.9201         0.285259   
     89. A(H  25,C  11,H  27)          107.2943         0.285383   
     90. A(C  10,C  11,H  27)          115.5558         0.316254   
     91. A(H  25,C  11,H  26)          107.8870         0.283979   
     92. A(C  10,C  11,H  26)          109.7195         0.314629   
     93. A(C  10,C  11,H  25)          110.1357         0.314771   
     94. A(H  28,C  12,H  30)          107.9957         0.283917   
     95. A(C  10,C  12,H  30)          110.1189         0.314336   
     96. A(H  28,C  12,H  29)          106.8011         0.284908   
     97. A(C  10,C  12,H  29)          115.2512         0.315482   
     98. A(C  10,C  12,H  28)          109.7292         0.314304   
     99. A(H  29,C  12,H  30)          106.6541         0.284936   
    100. A(H  32,C  13,H  33)          108.3397         0.284335   
    101. A(H  31,C  13,H  33)          108.9105         0.284332   
    102. A(C   9,C  13,H  33)          110.9210         0.319444   
    103. A(H  31,C  13,H  32)          108.1861         0.284221   
    104. A(C   9,C  13,H  32)          110.4930         0.319313   
    105. A(C   9,C  13,H  31)          109.9217         0.319309   
    106. D(O   2,C   1,C   0,H  16)    158.0925         0.013799   
    107. D(O   2,C   1,C   0,H  14)     38.1369         0.013799   
    108. D(O   2,C   1,C   0,H  15)    -82.0591         0.013799   
    109. D(O   3,C   1,C   0,H  14)   -143.8929         0.013799   
    110. D(O   3,C   1,C   0,H  15)     95.9111         0.013799   
    111. D(C   4,O   3,C   1,O   2)      2.5052         0.021143   
    112. D(C   4,O   3,C   1,C   0)   -175.4381         0.021143   
    113. D(C   5,C   4,O   3,C   1)   -155.2094         0.018405   
    114. D(H  17,C   4,O   3,C   1)    -34.7154         0.018405   
    115. D(C   9,C   4,O   3,C   1)     91.1517         0.018405   
    116. D(H  18,C   5,C   4,C   9)   -121.7087         0.009991   
    117. D(C   6,C   5,C   4,H  17)    117.5828         0.009991   
    118. D(H  18,C   5,C   4,O   3)    117.8911         0.009991   
    119. D(C   6,C   5,C   4,C   9)     -1.5235         0.009991   
    120. D(C   6,C   5,C   4,O   3)   -121.9236         0.009991   
    121. D(H  18,C   5,C   4,H  17)     -2.6024         0.009991   
    122. D(C  10,C   6,C   5,H  18)    156.5371         0.009720   
    123. D(C  10,C   6,C   5,C   4)     36.8130         0.009720   
    124. D(C   7,C   6,C   5,H  19)    167.8229         0.009720   
    125. D(C   7,C   6,C   5,C   4)    -71.5561         0.009720   
    126. D(C   7,C   6,C   5,H  18)     48.1680         0.009720   
    127. D(C  10,C   6,C   5,H  19)    -83.8080         0.009720   
    128. D(H  21,C   7,C   6,H  20)    -41.8299         0.009824   
    129. D(H  21,C   7,C   6,C  10)     83.6108         0.009824   
    130. D(H  21,C   7,C   6,C   5)   -167.8547         0.009824   
    131. D(C   8,C   7,C   6,H  20)   -161.1642         0.009824   
    132. D(C   8,C   7,C   6,C  10)    -35.7235         0.009824   
    133. D(C   8,C   7,C   6,C   5)     72.8110         0.009824   
    134. D(C   9,C   8,C   7,H  22)    120.2140         0.010245   
    135. D(C   9,C   8,C   7,H  21)   -119.3667         0.010245   
    136. D(C   9,C   8,C   7,C   6)     -0.2918         0.010245   
    137. D(H  23,C   8,C   7,H  22)     -0.2965         0.010245   
    138. D(H  23,C   8,C   7,H  21)    120.1228         0.010245   
    139. D(H  23,C   8,C   7,C   6)   -120.8023         0.010245   
    140. D(C  10,C   9,C   8,H  24)    -83.5908         0.009451   
    141. D(C  10,C   9,C   8,H  23)    155.5493         0.009451   
    142. D(C  10,C   9,C   8,C   7)     35.8358         0.009451   
    143. D(C   4,C   9,C   8,H  23)     46.9903         0.009451   
    144. D(C   4,C   9,C   8,C   7)    -72.7232         0.009451   
    145. D(C  10,C   9,C   4,H  17)   -150.9150         0.008894   
    146. D(C  10,C   9,C   4,C   5)    -33.9096         0.008894   
    147. D(C   4,C   9,C   8,H  24)    167.8502         0.009451   
    148. D(C  10,C   9,C   4,O   3)     84.8132         0.008894   
    149. D(C   8,C   9,C   4,H  17)    -43.2003         0.008894   
    150. D(C   8,C   9,C   4,C   5)     73.8051         0.008894   
    151. D(C   8,C   9,C   4,O   3)   -167.4721         0.008894   
    152. D(C  11,C  10,C   9,C  13)     63.4918         0.009843   
    153. D(C  11,C  10,C   9,C   8)   -173.4315         0.009843   
    154. D(C  11,C  10,C   9,C   4)    -63.8049         0.009843   
    155. D(C   6,C  10,C   9,C   8)    -55.4397         0.009843   
    156. D(C   6,C  10,C   9,C   4)     54.1869         0.009843   
    157. D(C  11,C  10,C   6,H  20)    -60.0371         0.010660   
    158. D(C  11,C  10,C   6,C   7)    175.3178         0.010660   
    159. D(C   6,C  10,C   9,C  13)   -178.5164         0.009843   
    160. D(C  11,C  10,C   6,C   5)     64.7880         0.010660   
    161. D(C   9,C  10,C   6,H  20)   -179.8982         0.010660   
    162. D(C   9,C  10,C   6,C   7)     55.4567         0.010660   
    163. D(C   9,C  10,C   6,C   5)    -55.0732         0.010660   
    164. D(H  26,C  11,C  10,C   9)    175.2490         0.009128   
    165. D(H  26,C  11,C  10,C   6)     69.8786         0.009128   
    166. D(H  25,C  11,C  10,C  12)     62.9572         0.009128   
    167. D(H  25,C  11,C  10,C   9)    -66.1349         0.009128   
    168. D(H  25,C  11,C  10,C   6)   -171.5054         0.009128   
    169. D(H  26,C  11,C  10,C  12)    -55.6588         0.009128   
    170. D(H  29,C  12,C  10,C  11)   -176.6672         0.009018   
    171. D(H  29,C  12,C  10,C   9)    -47.1601         0.009018   
    172. D(H  29,C  12,C  10,C   6)     57.7970         0.009018   
    173. D(H  28,C  12,C  10,C  11)     62.7578         0.009018   
    174. D(H  28,C  12,C  10,C   9)   -167.7352         0.009018   
    175. D(H  28,C  12,C  10,C   6)    -62.7781         0.009018   
    176. D(H  32,C  13,C   9,C  10)     60.1153         0.010705   
    177. D(H  32,C  13,C   9,C   8)    -57.6415         0.010705   
    178. D(H  32,C  13,C   9,C   4)   -178.4388         0.010705   
    179. D(H  31,C  13,C   9,C  10)    179.4463         0.010705   
    180. D(H  31,C  13,C   9,C   8)     61.6895         0.010705   
    181. D(H  31,C  13,C   9,C   4)    -59.1079         0.010705   
    -----------------------------------------------------------------

Number of atoms                         .... 34
Number of degrees of freedom            .... 181


         *************************************************************
         *                GEOMETRY OPTIMIZATION CYCLE   1            *
         *************************************************************
---------------------------------
CARTESIAN COORDINATES (ANGSTROEM)
---------------------------------
  C      3.978569    1.318191    0.010725
  C      3.028089    0.174280   -0.083680
  O      3.343532   -0.941288    0.412197
  O      1.779443    0.366993   -0.684845
  C      0.760919   -0.635243   -0.742366
  C     -0.186653   -0.378916   -1.936661
  C     -1.576381   -0.248398   -1.262774
  C     -1.964052   -1.672614   -0.794838
  C     -1.030757   -1.901992    0.411345
  C     -0.221754   -0.576353    0.472079
  C     -1.269504    0.483468    0.052835
  C     -0.733517    1.934483   -0.144637
  C     -2.501761    0.615897    1.002285
  C      0.441698   -0.353059    1.839089
  H      5.021005    0.960442   -0.124777
  H      3.880803    1.797359    1.006911
  H      3.750506    2.066416   -0.777058
  H      1.234536   -1.637278   -0.854948
  H     -0.154974   -1.219444   -2.664527
  H      0.076554    0.544903   -2.494239
  H     -2.342724    0.237684   -1.904151
  H     -3.033056   -1.718156   -0.496135
  H     -1.800473   -2.436377   -1.586539
  H     -0.379789   -2.790340    0.255566
  H     -1.612383   -2.080929    1.340941
  H     -0.389068    2.350114    0.825737
  H     -1.548659    2.586727   -0.525200
  H      0.098188    2.040984   -0.860546
  H     -3.289363    1.226952    0.511601
  H     -2.974765   -0.338212    1.296444
  H     -2.206218    1.127999    1.942768
  H      1.164637   -1.169492    2.046531
  H     -0.320909   -0.352343    2.645695
  H      0.978282    0.617542    1.865172

----------------------------
CARTESIAN COORDINATES (A.U.)
----------------------------
  NO LB      ZA    FRAG     MASS         X           Y           Z
   0 C     4.0000*   0    12.011    7.518406    2.491020    0.020267
   1 C     4.0000*   0    12.011    5.722259    0.329341   -0.158132
   2 O     6.0000*   0    15.999    6.318360   -1.778777    0.778939
   3 O     6.0000*   0    15.999    3.362660    0.693516   -1.294169
   4 C     4.0000*   0    12.011    1.437929   -1.200435   -1.402868
   5 C     4.0000*   0    12.011   -0.352723   -0.716047   -3.659759
   6 C     4.0000*   0    12.011   -2.978928   -0.469404   -2.386297
   7 C     4.0000*   0    12.011   -3.711520   -3.160782   -1.502026
   8 C     4.0000*   0    12.011   -1.947848   -3.594244    0.777329
   9 C     4.0000*   0    12.011   -0.419054   -1.089149    0.892100
  10 C     4.0000*   0    12.011   -2.399015    0.913622    0.099844
  11 C     4.0000*   0    12.011   -1.386146    3.655643   -0.273324
  12 C     4.0000*   0    12.011   -4.727643    1.163877    1.894044
  13 C     4.0000*   0    12.011    0.834688   -0.667185    3.475375
  14 H     1.0000    0     1.008    9.488324    1.814972   -0.235794
  15 H     1.0000    0     1.008    7.333655    3.396516    1.902786
  16 H     1.0000    0     1.008    7.087429    3.904960   -1.468427
  17 H     1.0000    0     1.008    2.332935   -3.094007   -1.615618
  18 H     1.0000    0     1.008   -0.292858   -2.304415   -5.035226
  19 H     1.0000    0     1.008    0.144666    1.029717   -4.713429
  20 H     1.0000    0     1.008   -4.427107    0.449158   -3.598324
  21 H     1.0000    0     1.008   -5.731645   -3.246844   -0.937559
  22 H     1.0000    0     1.008   -3.402401   -4.604085   -2.998124
  23 H     1.0000    0     1.008   -0.717697   -5.272978    0.482950
  24 H     1.0000    0     1.008   -3.046962   -3.932386    2.534011
  25 H     1.0000    0     1.008   -0.735232    4.441072    1.560417
  26 H     1.0000    0     1.008   -2.926541    4.888206   -0.992484
  27 H     1.0000    0     1.008    0.185548    3.856901   -1.626196
  28 H     1.0000    0     1.008   -6.215995    2.318603    0.966786
  29 H     1.0000    0     1.008   -5.621491   -0.639128    2.449924
  30 H     1.0000    0     1.008   -4.169148    2.131609    3.671299
  31 H     1.0000    0     1.008    2.200845   -2.210020    3.867383
  32 H     1.0000    0     1.008   -0.606430   -0.665832    4.999639
  33 H     1.0000    0     1.008    1.848685    1.166985    3.524664
* core charge reduced due to ECP

--------------------------------
INTERNAL COORDINATES (ANGSTROEM)
--------------------------------
 C      0   0   0     0.000000000000     0.00000000     0.00000000
 C      1   0   0     1.490253975115     0.00000000     0.00000000
 O      2   1   0     1.260908501043   119.64636022     0.00000000
 O      2   1   3     1.399162067421   119.38526343   177.97019588
 C      4   2   1     1.430096781240   123.80341319   184.56193170
 C      5   4   2     1.545942034210   110.57380470   204.79064936
 C      6   5   4     1.550000822928   103.15888503   238.07636237
 C      7   6   5     1.548432794471   106.16541425   288.44388253
 C      8   7   6     1.542248765082   102.80531099    72.81095464
 C      9   8   7     1.554185713191   102.63296737   359.70817401
 C      7   6   5     1.536433654918   103.49193400    36.81296254
 C     11   7   6     1.559397891873   113.79414315    64.78800445
 C     11   7   6     1.561233504826   113.79678957   185.86522714
 C     10   9   8     1.535820662330   112.56027605   160.99791501
 H      1   2   3     1.110413415400   110.10376477    38.13691086
 H      1   2   3     1.109750742093   109.39685244   277.94088466
 H      1   2   3     1.110160095519   109.96011734   158.09250979
 H      5   4   2     1.114029582479   109.36842940   325.28455376
 H      6   5   4     1.112330792427   111.27039708   117.89112629
 H      6   5   4     1.110681185442   112.36349338   357.86049857
 H      7   6   5     1.111270336373   113.84147040   162.42374341
 H      8   7   6     1.110885731292   111.09340905   192.14525295
 H      8   7   6     1.112152185095   112.31526560   312.90593287
 H      9   8   7     1.112289801701   111.31016389   239.19769820
 H      9   8   7     1.111060744091   111.19365827   119.80525625
 H     12  11   7     1.110414310804   110.13565571   188.49464801
 H     12  11   7     1.111173664496   109.71949516    69.87861562
 H     12  11   7     1.102543135803   115.55577907   310.24998533
 H     13  11   7     1.111069714863   109.72915327   297.22194606
 H     13  11   7     1.104801468671   115.25116247    57.79700948
 H     13  11   7     1.110901614249   110.11894097   178.47687979
 H     14  10   9     1.110061180554   109.92174242    61.68946996
 H     14  10   9     1.110037471593   110.49301031   302.35853125
 H     14  10   9     1.109355224059   110.92099103   182.19342746

---------------------------
INTERNAL COORDINATES (A.U.)
---------------------------
 C      0   0   0     0.000000000000     0.00000000     0.00000000
 C      1   0   0     2.816171882955     0.00000000     0.00000000
 O      2   1   0     2.382771746904   119.64636022     0.00000000
 O      2   1   3     2.644033124397   119.38526343   177.97019588
 C      4   2   1     2.702491261546   123.80341319   184.56193170
 C      5   4   2     2.921407063574   110.57380470   204.79064936
 C      6   5   4     2.929077062686   103.15888503   238.07636237
 C      7   6   5     2.926113918332   106.16541425   288.44388253
 C      8   7   6     2.914427796384   102.80531099    72.81095464
 C      9   8   7     2.936985359183   102.63296737   359.70817401
 C      7   6   5     2.903438830735   103.49193400    36.81296254
 C     11   7   6     2.946834949454   113.79414315    64.78800445
 C     11   7   6     2.950303755222   113.79678957   185.86522714
 C     10   9   8     2.902280442621   112.56027605   160.99791501
 H      1   2   3     2.098377250539   110.10376477    38.13691086
 H      1   2   3     2.097124979472   109.39685244   277.94088466
 H      1   2   3     2.097898545339   109.96011734   158.09250979
 H      5   4   2     2.105210815972   109.36842940   325.28455376
 H      6   5   4     2.102000568014   111.27039708   117.89112629
 H      6   5   4     2.098883262584   112.36349338   357.86049857
 H      7   6   5     2.099996596495   113.84147040   162.42374341
 H      8   7   6     2.099269798223   111.09340905   192.14525295
 H      8   7   6     2.101663049071   112.31526560   312.90593287
 H      9   8   7     2.101923106769   111.31016389   239.19769820
 H      9   8   7     2.099600524484   111.19365827   119.80525625
 H     12  11   7     2.098378942606   110.13565571   188.49464801
 H     12  11   7     2.099813913123   109.71949516    69.87861562
 H     12  11   7     2.083504577503   115.55577907   310.24998533
 H     13  11   7     2.099617476784   109.72915327   297.22194606
 H     13  11   7     2.087772208143   115.25116247    57.79700948
 H     13  11   7     2.099299812662   110.11894097   178.47687979
 H     14  10   9     2.097711623145   109.92174242    61.68946996
 H     14  10   9     2.097666819702   110.49301031   302.35853125
 H     14  10   9     2.096377558706   110.92099103   182.19342746

---------------------
BASIS SET INFORMATION
---------------------
There are 3 groups of distinct atoms

 Group   1 Type C   : 6s6p2d contracted to 2s2p1d pattern {42/42/2}
 Group   2 Type O   : 6s6p2d contracted to 2s2p1d pattern {42/42/2}
 Group   3 Type H   : 8s2p contracted to 2s1p pattern {53/2}

Atom   0C    basis set group =>   1
Atom   1C    basis set group =>   1
Atom   2O    basis set group =>   2
Atom   3O    basis set group =>   2
Atom   4C    basis set group =>   1
Atom   5C    basis set group =>   1
Atom   6C    basis set group =>   1
Atom   7C    basis set group =>   1
Atom   8C    basis set group =>   1
Atom   9C    basis set group =>   1
Atom  10C    basis set group =>   1
Atom  11C    basis set group =>   1
Atom  12C    basis set group =>   1
Atom  13C    basis set group =>   1
Atom  14H    basis set group =>   3
Atom  15H    basis set group =>   3
Atom  16H    basis set group =>   3
Atom  17H    basis set group =>   3
Atom  18H    basis set group =>   3
Atom  19H    basis set group =>   3
Atom  20H    basis set group =>   3
Atom  21H    basis set group =>   3
Atom  22H    basis set group =>   3
Atom  23H    basis set group =>   3
Atom  24H    basis set group =>   3
Atom  25H    basis set group =>   3
Atom  26H    basis set group =>   3
Atom  27H    basis set group =>   3
Atom  28H    basis set group =>   3
Atom  29H    basis set group =>   3
Atom  30H    basis set group =>   3
Atom  31H    basis set group =>   3
Atom  32H    basis set group =>   3
Atom  33H    basis set group =>   3
---------------------------------
AUXILIARY/J BASIS SET INFORMATION
---------------------------------
There are 3 groups of distinct atoms

 Group   1 Type C   : 12s5p4d2f1g contracted to 6s4p3d1f1g pattern {711111/2111/211/2/1}
 Group   2 Type O   : 12s5p4d2f1g contracted to 6s4p3d1f1g pattern {711111/2111/211/2/1}
 Group   3 Type H   : 5s2p1d contracted to 3s1p1d pattern {311/2/1}

Atom   0C    basis set group =>   1
Atom   1C    basis set group =>   1
Atom   2O    basis set group =>   2
Atom   3O    basis set group =>   2
Atom   4C    basis set group =>   1
Atom   5C    basis set group =>   1
Atom   6C    basis set group =>   1
Atom   7C    basis set group =>   1
Atom   8C    basis set group =>   1
Atom   9C    basis set group =>   1
Atom  10C    basis set group =>   1
Atom  11C    basis set group =>   1
Atom  12C    basis set group =>   1
Atom  13C    basis set group =>   1
Atom  14H    basis set group =>   3
Atom  15H    basis set group =>   3
Atom  16H    basis set group =>   3
Atom  17H    basis set group =>   3
Atom  18H    basis set group =>   3
Atom  19H    basis set group =>   3
Atom  20H    basis set group =>   3
Atom  21H    basis set group =>   3
Atom  22H    basis set group =>   3
Atom  23H    basis set group =>   3
Atom  24H    basis set group =>   3
Atom  25H    basis set group =>   3
Atom  26H    basis set group =>   3
Atom  27H    basis set group =>   3
Atom  28H    basis set group =>   3
Atom  29H    basis set group =>   3
Atom  30H    basis set group =>   3
Atom  31H    basis set group =>   3
Atom  32H    basis set group =>   3
Atom  33H    basis set group =>   3
-------------------------
ECP PARAMETER INFORMATION
-------------------------

 Group 1, Type C  ECP vDZP-ECP (replacing 2 core electrons, lmax=3)
 Group 2, Type O  ECP vDZP-ECP (replacing 2 core electrons, lmax=3)

Atom   0C    ECP group =>   1
Atom   1C    ECP group =>   1
Atom   2O    ECP group =>   2
Atom   3O    ECP group =>   2
Atom   4C    ECP group =>   1
Atom   5C    ECP group =>   1
Atom   6C    ECP group =>   1
Atom   7C    ECP group =>   1
Atom   8C    ECP group =>   1
Atom   9C    ECP group =>   1
Atom  10C    ECP group =>   1
Atom  11C    ECP group =>   1
Atom  12C    ECP group =>   1
Atom  13C    ECP group =>   1



           ************************************************************
           *        Program running with 40 parallel MPI-processes    *
           *              working on a common directory               *
           ************************************************************
------------------------------------------------------------------------------
                             ORCA STARTUP CALCULATIONS
                           -- RI-GTO INTEGRALS CHOSEN --
------------------------------------------------------------------------------
------------------------------------------------------------------------------
                   ___                                                        
                  /   \      - P O W E R E D   B Y -                         
                 /     \                                                     
                 |  |  |   _    _      __       _____    __    __             
                 |  |  |  | |  | |    /  \     |  _  \  |  |  /  |          
                  \  \/   | |  | |   /    \    | | | |  |  | /  /          
                 / \  \   | |__| |  /  /\  \   | |_| |  |  |/  /          
                |  |  |   |  __  | /  /__\  \  |    /   |      \           
                |  |  |   | |  | | |   __   |  |    \   |  |\   \          
                \     /   | |  | | |  |  |  |  | |\  \  |  | \   \       
                 \___/    |_|  |_| |__|  |__|  |_| \__\ |__|  \__/        
                                                                              
                      - O R C A' S   B I G   F R I E N D -                    
                                      &                                       
                       - I N T E G R A L  F E E D E R -                       
                                                                              
 v1 FN, 2020, v2 2021, v3 2022-2024                                           
------------------------------------------------------------------------------


----------------------
SHARK INTEGRAL PACKAGE
----------------------

Number of atoms                             ...     34
Number of basis functions                   ...    282
Number of shells                            ...    130
Maximum angular momentum                    ...      2
Integral batch strategy                     ... SHARK/LIBINT Hybrid
RI-J (if used) integral strategy            ... SPLIT-RIJ (Revised 2003 algorithm where possible)
Printlevel                                  ...      1
Contraction scheme used                     ... SEGMENTED contraction
Prescreening option                         ... SCHWARTZ
   Thresh                                   ... 2.500e-11
   Tcut                                     ... 2.500e-12
   Tpresel                                  ... 2.500e-12 
Coulomb Range Separation                    ... NOT USED
Exchange Range Separation                   ... Long Range
   Mu parameter                             ... 3.000e-01
   Scaling (regular/separated)              ... 1.670e-01 8.330e-01
Multipole approximations                    ... NOT USED
Finite Nucleus Model                        ... NOT USED
CABS basis                                  ... NOT available
Auxiliary Coulomb fitting basis             ... AVAILABLE
   # of basis functions in Aux-J            ...    906
   # of shells in Aux-J                     ...    310
   Maximum angular momentum in Aux-J        ...      4
Auxiliary J/K fitting basis                 ... NOT available
Auxiliary Correlation fitting basis         ... NOT available
Auxiliary 'external' fitting basis          ... NOT available

Checking pre-screening integrals            ... done (  0.0 sec) Dimension = 130
Check shell pair data                       ... done (  0.0 sec)
Shell pair information
Shell pair cut-off parameter TPreSel        ...   2.5e-12
Total number of shell pairs                 ...      8515
Shell pairs after pre-screening             ...      8483
Total number of primitive shell pairs       ...     79096
Primitive shell pairs kept                  ...     62943
          la=0 lb=0:   2343 shell pairs
          la=1 lb=0:   3252 shell pairs
          la=1 lb=1:   1160 shell pairs
          la=2 lb=0:    952 shell pairs
          la=2 lb=1:    671 shell pairs
          la=2 lb=2:    105 shell pairs

Calculating one electron integrals          ... done (  0.0 sec)
Calculating ECP integrals                   ... done (  0.2 sec)
Calculating RI/J V-Matrix + Cholesky decomp.... done (  0.0 sec)
Calculating Nuclear repulsion               ... done (  0.0 sec) ENN=    548.635351262098 Eh

Diagonalization of the overlap matrix:
Smallest eigenvalue                        ... 1.109e-03
Time for diagonalization                   ...    0.011 sec
Threshold for overlap eigenvalues          ... 1.000e-07
Number of eigenvalues below threshold      ... 0
Time for construction of square roots      ...    0.006 sec
Total time needed                          ...    0.020 sec

-------------------
DFT GRID GENERATION
-------------------

General Integration Accuracy     IntAcc      ... 4.388
Radial Grid Type                 RadialGrid  ... OptM3 with GC (2021)
Angular Grid (max. ang.)         AngularGrid ... 4 (Lebedev-302)
Angular grid pruning method      GridPruning ... 4 (adaptive)
Weight generation scheme         WeightScheme... mBecke (2022)
Basis function cutoff            BFCut       ... 1.0000e-11
Integration weight cutoff        WCut        ... 1.0000e-14
Partially contracted basis set               ... off
Rotationally invariant grid construction     ... off
Angular grids for H and He will be reduced by one unit

Total number of grid points                  ...   146485
Total number of batches                      ...     2306
Average number of points per batch           ...       63
Average number of grid points per atom       ...     4308

--------------------
COSX GRID GENERATION
--------------------

GRIDX 1
-------
General Integration Accuracy     IntAcc      ... 3.816
Radial Grid Type                 RadialGrid  ... OptM3 with GC (2021)
Angular Grid (max. ang.)         AngularGrid ... 1 (Lebedev-50)
Angular grid pruning method      GridPruning ... 4 (adaptive)
Weight generation scheme         WeightScheme... mBecke (2022)
Basis function cutoff            BFCut       ... 1.0000e-11
Integration weight cutoff        WCut        ... 1.0000e-14
Partially contracted basis set               ... on
Rotationally invariant grid construction     ... off
Angular grids for H and He will be reduced by one unit

Total number of grid points                  ...    18637
Total number of batches                      ...      165
Average number of points per batch           ...      112
Average number of grid points per atom       ...      548
UseSFitting                                  ... on

GRIDX 2
-------
General Integration Accuracy     IntAcc      ... 4.020
Radial Grid Type                 RadialGrid  ... OptM3 with GC (2021)
Angular Grid (max. ang.)         AngularGrid ... 2 (Lebedev-110)
Angular grid pruning method      GridPruning ... 4 (adaptive)
Weight generation scheme         WeightScheme... mBecke (2022)
Basis function cutoff            BFCut       ... 1.0000e-11
Integration weight cutoff        WCut        ... 1.0000e-14
Partially contracted basis set               ... on
Rotationally invariant grid construction     ... off
Angular grids for H and He will be reduced by one unit

Total number of grid points                  ...    38938
Total number of batches                      ...      321
Average number of points per batch           ...      121
Average number of grid points per atom       ...     1145
UseSFitting                                  ... on

GRIDX 3
-------
General Integration Accuracy     IntAcc      ... 4.338
Radial Grid Type                 RadialGrid  ... OptM3 with GC (2021)
Angular Grid (max. ang.)         AngularGrid ... 3 (Lebedev-194)
Angular grid pruning method      GridPruning ... 4 (adaptive)
Weight generation scheme         WeightScheme... mBecke (2022)
Basis function cutoff            BFCut       ... 1.0000e-11
Integration weight cutoff        WCut        ... 1.0000e-14
Partially contracted basis set               ... on
Rotationally invariant grid construction     ... off
Angular grids for H and He will be reduced by one unit

Total number of grid points                  ...    84712
Total number of batches                      ...      678
Average number of points per batch           ...      124
Average number of grid points per atom       ...     2492
UseSFitting                                  ... on
Initializing property integral containers    ... done (  0.0 sec)

SHARK setup successfully completed in   5.0 seconds

Maximum memory used throughout the entire STARTUP-calculation: 46.9 MB


           ************************************************************
           *        Program running with 40 parallel MPI-processes    *
           *              working on a common directory               *
           ************************************************************
-------------------------------------------------------------------------------
                                 ORCA GUESS
                   Start orbitals & Density for SCF / CASSCF
-------------------------------------------------------------------------------

------------
SCF SETTINGS
------------
Hamiltonian:
 Density Functional     Method          .... DFT(GTOs)
 Exchange Functional    Exchange        .... WB97X-V
 Correlation Functional Correlation     .... WB97X-V
 Gradients option       PostSCFGGA      .... off
 Hybrid DFT is turned on
   Fraction HF Exchange ScalHFX         ....  0.167000
   Scaling of DF-GGA-X  ScalDFX         ....  0.000000
   Scaling of DF-GGA-C  ScalDFC         ....  1.000000
   Scaling of DF-LDA-C  ScalLDAC        ....  1.000000
   Perturbative correction              ....  0.000000
 Long-range corrected/Screened/Range-Separated Hybrid DFT is turned on
   Amount of maximum screened exact exchange              ....  0.833000
   Range separation parameter mu (erf(mu*r12)/r12)        ....  0.300000
   NL short-range parameter             ....  6.000000
   NL long-range parameter              ....  0.010000
 RI-approximation to the Coulomb term is turned on
   Number of AuxJ basis functions       .... 906
   RIJ-COSX (HFX calculated with COS-X)).... on


General Settings:
 Integral files         IntName         .... ./output/bornyl_acetate/bornyl_acetate
 Hartree-Fock type      HFTyp           .... RHF
 Total Charge           Charge          ....    0
 Multiplicity           Mult            ....    1
 Number of Electrons    NEL             ....   80
 Basis Dimension        Dim             ....  282
 Nuclear Repulsion      ENuc            ....    548.6353512621 Eh

Convergence Acceleration:
 AO-DIIS                CNVDIIS         .... on
   Start iteration      DIISMaxIt       ....    12
   Startup error        DIISStart       ....  0.200000
   # of expansion vecs  DIISMaxEq       ....     5
   Bias factor          DIISBfac        ....   1.050
   Max. coefficient     DIISMaxC        ....  10.000
 MO-DIIS                CNVKDIIS        .... off
 Trust-Rad. Augm. Hess. CNVTRAH         .... auto
   Auto Start mean grad. ratio tolernc. ....  1.125000
   Auto Start start iteration           ....    50
   Auto Start num. interpolation iter.  ....    10
   Max. Number of Micro iterations      ....    24
   Max. Number of Macro iterations      .... Maxiter - #DIIS iter
   Number of Davidson start vectors     ....     2
   Converg. threshold    (grad. norm)   ....   1.000e-05
   Grad. Scal. Fac. for Micro threshold ....   0.100
   Minimum threshold for Micro iter.    ....   1.000e-02
   NR start threshold (gradient norm)   ....   1.000e-04
   Initial trust radius                 ....   0.400
   Minimum AH scaling param. (alpha)    ....   1.000
   Maximum AH scaling param. (alpha)    .... 1000.000
   Quad. conv. algorithm                .... NR
   White noise on init. David. guess    .... on
   Maximum white noise                  ....   0.010
   Pseudo random numbers                .... off
   Inactive MOs                         .... canonical
   Orbital update algorithm             .... Taylor
   Preconditioner                       .... Diag
   Full preconditioner red. dimension   ....   250
 SOSCF                  CNVSOSCF        .... on
   Start iteration      SOSCFMaxIt      ....   150
   Startup grad/error   SOSCFStart      ....  0.003300
   Hessian update       SOSCFHessUp     .... L-BFGS
 Level Shifting         CNVShift        .... on
   Level shift para.    LevelShift      ....    0.2500
   Turn off err/grad.   ShiftErr        ....    0.0010
 Zerner damping         CNVZerner       .... off
 Static damping         CNVDamp         .... on
   Fraction old density DampFac         ....    0.7000
   Max. Damping (<1)    DampMax         ....    0.9800
   Min. Damping (>=0)   DampMin         ....    0.0000
   Turn off err/grad.   DampErr         ....    0.1000

SCF Procedure:
 Maximum # iterations   MaxIter         ....   125
 SCF integral mode      SCFMode         .... Direct
   Integral package                     .... SHARK and LIBINT hybrid scheme
 Reset frequency        DirectResetFreq ....    20
 Integral Threshold     Thresh          ....  2.500e-11 Eh
 Primitive CutOff       TCut            ....  2.500e-12 Eh

Convergence Tolerance:
 Convergence Check Mode ConvCheckMode   .... Total+1el-Energy
 Convergence forced     ConvForced      .... 0
 Energy Change          TolE            ....  1.000e-08 Eh
 1-El. energy change                    ....  1.000e-05 Eh
 Orbital Gradient       TolG            ....  1.000e-05
 Orbital Rotation angle TolX            ....  1.000e-05
 DIIS Error             TolErr          ....  5.000e-07

------------------------------
INITIAL GUESS: MODEL POTENTIAL
------------------------------
Loading Hartree-Fock densities                     ... done
Atomic calculation to generate a density for atom 0 (C  with ECP)
  Multiplicity assumed   :    1
  Atomic configuration   : 1s2 2s2 2p2 
  Number of open shells  : 1
  Command: /home/aspe232/Project/Software/ORCA/6_0_1/build/orca ./output/bornyl_acetate/bornyl_acetate_atom6.inp "" > ./output/bornyl_acetate/bornyl_acetate_atom6.out
Returned from the atomic calculation with res=0
Atomic calculation to generate a density for atom 2 (O  with ECP)
  Multiplicity assumed   :    3
  Atomic configuration   : 1s2 2s2 2p4 
  Number of open shells  : 1
  Command: /home/aspe232/Project/Software/ORCA/6_0_1/build/orca ./output/bornyl_acetate/bornyl_acetate_atom8.inp "" > ./output/bornyl_acetate/bornyl_acetate_atom8.out
Returned from the atomic calculation with res=0
Calculating cut-offs                               ... done
Initializing the effective Hamiltonian             ... done
Setting up the integral package (SHARK)            ... done
Starting the Coulomb interaction                   ... done (   0.1 sec)
Making the grid                                    ... done (   0.8 sec)
Mapping shells                                     ... done
Starting the XC term evaluation                    ... done (   0.1 sec)
  promolecular density results
     # of electrons  =    107.990106639
     EX              =    -55.845405020
     EC              =     -4.407393037
     EX+EC           =    -60.252798056
Transforming the Hamiltonian                       ... done (   0.0 sec)
Diagonalizing the Hamiltonian                      ... done (   0.0 sec)
Back transforming the eigenvectors                 ... done (   0.0 sec)
Now organizing SCF variables                       ... done
                      ------------------
                      INITIAL GUESS DONE (   2.1 sec)
                      ------------------
             **** ENERGY FILE WAS UPDATED (./output/bornyl_acetate/bornyl_acetate.en.tmp) ****
Finished Guess after   2.9 sec
Maximum memory used throughout the entire GUESS-calculation: 30.2 MB


           ************************************************************
           *        Program running with 40 parallel MPI-processes    *
           *              working on a common directory               *
           ************************************************************

-------------------------------------------------------------------------------------------
                                      ORCA LEAN-SCF
                              memory conserving SCF solver
-------------------------------------------------------------------------------------------

----------------------------------------D-I-I-S--------------------------------------------
Iteration    Energy (Eh)           Delta-E    RMSDP     MaxDP     DIISErr   Damp  Time(sec)
-------------------------------------------------------------------------------------------
               ***  Starting incremental Fock matrix formation  ***
    1    -111.9417443711979558     0.00e+00  3.37e-03  8.95e-02  2.05e-01  0.700   7.3
    2    -112.1846182085494092    -2.43e-01  2.42e-03  5.79e-02  1.08e-01  0.700   5.3
                               ***Turning on AO-DIIS***
    3    -112.3028601576970686    -1.18e-01  1.28e-03  2.70e-02  5.45e-02  0.700   4.7
    4    -112.3727633992773463    -6.99e-02  2.81e-03  6.54e-02  3.36e-02  0.000   5.1
    5    -112.5217890993164929    -1.49e-01  2.46e-04  5.79e-03  6.18e-03  0.000   5.6
    6    -112.5222991574700018    -5.10e-04  1.16e-04  4.17e-03  3.45e-03  0.000   4.8
                              *** Initializing SOSCF ***
---------------------------------------S-O-S-C-F--------------------------------------
Iteration    Energy (Eh)           Delta-E    RMSDP     MaxDP     MaxGrad    Time(sec)
--------------------------------------------------------------------------------------
    7    -112.5223818113995549    -8.27e-05  6.08e-05  2.60e-03  1.77e-03     4.8
               *** Restarting incremental Fock matrix formation ***
    8    -112.5224480016488542    -6.62e-05  3.26e-05  1.51e-03  2.03e-04     7.1
    9    -112.5224512089679365    -3.21e-06  2.10e-05  1.26e-03  3.63e-04     6.2
   10    -112.5224535432997754    -2.33e-06  6.03e-06  1.03e-04  2.38e-05     6.4
   11    -112.5224536114357079    -6.81e-08  2.42e-06  5.06e-05  1.91e-05     5.8
   12    -112.5224536248595086    -1.34e-08  7.51e-07  1.97e-05  6.06e-06     5.7
   13    -112.5224536228449779     2.01e-09  2.03e-07  7.03e-06  1.24e-06     5.3
                 **** Energy Check signals convergence ****

               *****************************************************
               *                     SUCCESS                       *
               *           SCF CONVERGED AFTER  13 CYCLES          *
               *****************************************************

Recomputing exchange energy using gridx3       ... done (    7.406 sec)
Old exchange energy                            :    -15.512939710 Eh
New exchange energy                            :    -15.512915292 Eh
Exchange energy change after final integration :      0.000024418 Eh
Total energy after final integration           :   -112.522429205 Eh
             **** ENERGY FILE WAS UPDATED (./output/bornyl_acetate/bornyl_acetate.en.tmp) ****

----------------
TOTAL SCF ENERGY
----------------

Total Energy       :       -112.52242920474561 Eh           -3061.89096 eV

Components:
Nuclear Repulsion  :        548.63535126209752 Eh           14929.12689 eV
Electronic Energy  :       -661.15780488494249 Eh          -17991.01852 eV
One Electron Energy:      -1261.20611583912955 Eh          -34319.16316 eV
Two Electron Energy:        600.04831095418706 Eh           16328.14465 eV

Virial components:
Potential Energy   :       -200.03430586799666 Eh           -5443.21019 eV
Kinetic Energy     :         87.51187666325106 Eh            2381.31923 eV
Virial Ratio       :          2.28579609414315

DFT components:
N(Alpha)           :       40.000166808587 electrons
N(Beta)            :       40.000166808587 electrons
N(Total)           :       80.000333617175 electrons
E(X)               :      -16.838071658507 Eh       
E(C)               :       -3.051687872742 Eh       
E(XC)              :      -19.889759531249 Eh       

---------------
SCF CONVERGENCE
---------------

  Last Energy change         ...   -2.0145e-09  Tolerance :   1.0000e-08
  Last MAX-Density change    ...    7.0276e-06  Tolerance :   1.0000e-07
  Last RMS-Density change    ...    2.0292e-07  Tolerance :   5.0000e-09
  Last DIIS Error            ...    1.7738e-03  Tolerance :   5.0000e-07
  Last Orbital Gradient      ...    1.2394e-06  Tolerance :   1.0000e-05
  Last Orbital Rotation      ...    3.6064e-06  Tolerance :   1.0000e-05


----------------
ORBITAL ENERGIES
----------------

  NO   OCC          E(Eh)            E(eV) 
   0   2.0000      -1.208883       -32.8954 
   1   2.0000      -1.119088       -30.4519 
   2   2.0000      -1.027257       -27.9531 
   3   2.0000      -0.910739       -24.7825 
   4   2.0000      -0.896202       -24.3869 
   5   2.0000      -0.890816       -24.2403 
   6   2.0000      -0.873124       -23.7589 
   7   2.0000      -0.808101       -21.9896 
   8   2.0000      -0.802006       -21.8237 
   9   2.0000      -0.768770       -20.9193 
  10   2.0000      -0.748859       -20.3775 
  11   2.0000      -0.692113       -18.8334 
  12   2.0000      -0.665113       -18.0987 
  13   2.0000      -0.631905       -17.1950 
  14   2.0000      -0.615830       -16.7576 
  15   2.0000      -0.597449       -16.2574 
  16   2.0000      -0.597132       -16.2488 
  17   2.0000      -0.579637       -15.7727 
  18   2.0000      -0.571992       -15.5647 
  19   2.0000      -0.565760       -15.3951 
  20   2.0000      -0.545517       -14.8443 
  21   2.0000      -0.527080       -14.3426 
  22   2.0000      -0.521220       -14.1831 
  23   2.0000      -0.512255       -13.9392 
  24   2.0000      -0.503920       -13.7124 
  25   2.0000      -0.500230       -13.6119 
  26   2.0000      -0.495577       -13.4853 
  27   2.0000      -0.487244       -13.2586 
  28   2.0000      -0.477328       -12.9887 
  29   2.0000      -0.474367       -12.9082 
  30   2.0000      -0.454556       -12.3691 
  31   2.0000      -0.445258       -12.1161 
  32   2.0000      -0.437973       -11.9178 
  33   2.0000      -0.431954       -11.7541 
  34   2.0000      -0.424502       -11.5513 
  35   2.0000      -0.417188       -11.3523 
  36   2.0000      -0.407416       -11.0864 
  37   2.0000      -0.395122       -10.7518 
  38   2.0000      -0.383053       -10.4234 
  39   2.0000      -0.376404       -10.2425 
  40   0.0000       0.069330         1.8866 
  41   0.0000       0.083088         2.2609 
  42   0.0000       0.089643         2.4393 
  43   0.0000       0.094615         2.5746 
  44   0.0000       0.104093         2.8325 
  45   0.0000       0.113231         3.0812 
  46   0.0000       0.121125         3.2960 
  47   0.0000       0.131979         3.5913 
  48   0.0000       0.136304         3.7090 
  49   0.0000       0.139343         3.7917 
  50   0.0000       0.150268         4.0890 
*Only the first 10 virtual orbitals were printed.

                    ********************************
                    * MULLIKEN POPULATION ANALYSIS *
                    ********************************

-----------------------
MULLIKEN ATOMIC CHARGES
-----------------------
   0 C :   -0.079555
   1 C :    0.264905
   2 O :   -0.359441
   3 O :   -0.299157
   4 C :    0.119957
   5 C :   -0.029963
   6 C :   -0.031134
   7 C :   -0.060270
   8 C :   -0.025061
   9 C :   -0.143873
  10 C :   -0.168244
  11 C :   -0.027338
  12 C :   -0.038405
  13 C :   -0.027980
  14 H :    0.077784
  15 H :    0.073124
  16 H :    0.058824
  17 H :    0.060707
  18 H :    0.045834
  19 H :    0.054114
  20 H :    0.044030
  21 H :    0.043017
  22 H :    0.039007
  23 H :    0.046707
  24 H :    0.039978
  25 H :    0.031287
  26 H :    0.033731
  27 H :    0.037008
  28 H :    0.039521
  29 H :    0.022323
  30 H :    0.037366
  31 H :    0.063292
  32 H :    0.033714
  33 H :    0.024191
Sum of atomic charges:   -0.0000000

--------------------------------
MULLIKEN REDUCED ORBITAL CHARGES
--------------------------------
  0 C s       :     0.962457  s :     0.962457
      pz      :     1.064963  p :     3.053821
      px      :     1.008189
      py      :     0.980669
      dz2     :     0.012703  d :     0.063277
      dxz     :     0.004300
      dyz     :     0.017623
      dx2y2   :     0.012152
      dxy     :     0.016500

  1 C s       :     1.150943  s :     1.150943
      pz      :     0.713108  p :     2.338717
      px      :     0.769858
      py      :     0.855751
      dz2     :     0.033704  d :     0.245436
      dxz     :     0.037201
      dyz     :     0.038983
      dx2y2   :     0.063174
      dxy     :     0.072374

  2 O s       :     1.795042  s :     1.795042
      pz      :     1.431732  p :     4.530953
      px      :     1.733379
      py      :     1.365842
      dz2     :     0.005649  d :     0.033445
      dxz     :     0.001714
      dyz     :     0.010562
      dx2y2   :     0.007622
      dxy     :     0.007898

  3 O s       :     1.691841  s :     1.691841
      pz      :     1.703499  p :     4.571239
      px      :     1.238762
      py      :     1.628977
      dz2     :     0.005069  d :     0.036078
      dxz     :     0.008510
      dyz     :     0.003475
      dx2y2   :     0.008695
      dxy     :     0.010328

  4 C s       :     1.069217  s :     1.069217
      pz      :     0.974064  p :     2.655696
      px      :     0.800642
      py      :     0.880991
      dz2     :     0.028479  d :     0.155130
      dxz     :     0.037765
      dyz     :     0.020022
      dx2y2   :     0.031131
      dxy     :     0.037733

  5 C s       :     0.990124  s :     0.990124
      pz      :     0.958120  p :     2.949343
      px      :     0.924717
      py      :     1.066507
      dz2     :     0.013078  d :     0.090496
      dxz     :     0.021334
      dyz     :     0.024042
      dx2y2   :     0.018644
      dxy     :     0.013399

  6 C s       :     1.037887  s :     1.037887
      pz      :     0.958460  p :     2.871709
      px      :     0.968834
      py      :     0.944415
      dz2     :     0.019064  d :     0.121538
      dxz     :     0.029997
      dyz     :     0.025935
      dx2y2   :     0.024603
      dxy     :     0.021939

  7 C s       :     0.996068  s :     0.996068
      pz      :     0.987775  p :     2.968729
      px      :     1.012665
      py      :     0.968289
      dz2     :     0.016074  d :     0.095472
      dxz     :     0.016453
      dyz     :     0.025638
      dx2y2   :     0.026076
      dxy     :     0.011231

  8 C s       :     0.989213  s :     0.989213
      pz      :     0.990566  p :     2.941928
      px      :     0.983186
      py      :     0.968176
      dz2     :     0.021192  d :     0.093920
      dxz     :     0.022583
      dyz     :     0.012204
      dx2y2   :     0.014090
      dxy     :     0.023850

  9 C s       :     1.071405  s :     1.071405
      pz      :     0.978002  p :     2.929821
      px      :     0.967908
      py      :     0.983911
      dz2     :     0.031760  d :     0.142648
      dxz     :     0.036566
      dyz     :     0.021479
      dx2y2   :     0.022119
      dxy     :     0.030723

 10 C s       :     1.078066  s :     1.078066
      pz      :     0.989682  p :     2.946942
      px      :     0.993208
      py      :     0.964052
      dz2     :     0.027842  d :     0.143237
      dxz     :     0.027770
      dyz     :     0.027405
      dx2y2   :     0.028611
      dxy     :     0.031608

 11 C s       :     0.943135  s :     0.943135
      pz      :     1.034451  p :     3.012435
      px      :     1.025288
      py      :     0.952696
      dz2     :     0.010326  d :     0.071768
      dxz     :     0.017306
      dyz     :     0.014125
      dx2y2   :     0.012114
      dxy     :     0.017897

 12 C s       :     0.948049  s :     0.948049
      pz      :     1.006206  p :     3.018114
      px      :     0.978346
      py      :     1.033562
      dz2     :     0.013900  d :     0.072242
      dxz     :     0.015740
      dyz     :     0.014381
      dx2y2   :     0.009288
      dxy     :     0.018933

 13 C s       :     0.938147  s :     0.938147
      pz      :     0.962973  p :     3.018361
      px      :     1.021089
      py      :     1.034298
      dz2     :     0.017782  d :     0.071472
      dxz     :     0.020611
      dyz     :     0.007230
      dx2y2   :     0.006543
      dxy     :     0.019306

 14 H s       :     0.878040  s :     0.878040
      pz      :     0.010173  p :     0.044177
      px      :     0.023119
      py      :     0.010885

 15 H s       :     0.881003  s :     0.881003
      pz      :     0.022051  p :     0.045873
      px      :     0.010339
      py      :     0.013483

 16 H s       :     0.896964  s :     0.896964
      pz      :     0.017272  p :     0.044212
      px      :     0.010015
      py      :     0.016925

 17 H s       :     0.899210  s :     0.899210
      pz      :     0.009319  p :     0.040083
      px      :     0.010392
      py      :     0.020372

 18 H s       :     0.911431  s :     0.911431
      pz      :     0.015027  p :     0.042735
      px      :     0.010014
      py      :     0.017694

 19 H s       :     0.902448  s :     0.902448
      pz      :     0.012596  p :     0.043438
      px      :     0.010678
      py      :     0.020163

 20 H s       :     0.915857  s :     0.915857
      pz      :     0.013587  p :     0.040113
      px      :     0.015200
      py      :     0.011325

 21 H s       :     0.913850  s :     0.913850
      pz      :     0.011165  p :     0.043133
      px      :     0.022148
      py      :     0.009821

 22 H s       :     0.918721  s :     0.918721
      pz      :     0.016588  p :     0.042271
      px      :     0.009545
      py      :     0.016139

 23 H s       :     0.911010  s :     0.911010
      pz      :     0.009862  p :     0.042283
      px      :     0.014282
      py      :     0.018140

 24 H s       :     0.916655  s :     0.916655
      pz      :     0.019497  p :     0.043367
      px      :     0.014055
      py      :     0.009815

 25 H s       :     0.924828  s :     0.924828
      pz      :     0.020351  p :     0.043885
      px      :     0.011763
      py      :     0.011770

 26 H s       :     0.923001  s :     0.923001
      pz      :     0.011865  p :     0.043268
      px      :     0.017020
      py      :     0.014382

 27 H s       :     0.915946  s :     0.915946
      pz      :     0.016478  p :     0.047046
      px      :     0.019945
      py      :     0.010623

 28 H s       :     0.917377  s :     0.917377
      pz      :     0.012059  p :     0.043102
      px      :     0.016676
      py      :     0.014367

 29 H s       :     0.931604  s :     0.931604
      pz      :     0.012026  p :     0.046073
      px      :     0.013241
      py      :     0.020807

 30 H s       :     0.918963  s :     0.918963
      pz      :     0.019782  p :     0.043671
      px      :     0.010599
      py      :     0.013290

 31 H s       :     0.892842  s :     0.892842
      pz      :     0.009870  p :     0.043866
      px      :     0.016703
      py      :     0.017293

 32 H s       :     0.922058  s :     0.922058
      pz      :     0.017385  p :     0.044228
      px      :     0.016322
      py      :     0.010520

 33 H s       :     0.931291  s :     0.931291
      pz      :     0.010121  p :     0.044518
      px      :     0.013542
      py      :     0.020855



                     *******************************
                     * LOEWDIN POPULATION ANALYSIS *
                     *******************************

----------------------
LOEWDIN ATOMIC CHARGES
----------------------
   0 C :   -0.091770
   1 C :    0.020247
   2 O :   -0.198228
   3 O :   -0.044004
   4 C :    0.001360
   5 C :   -0.058445
   6 C :   -0.055031
   7 C :   -0.074849
   8 C :   -0.062704
   9 C :   -0.056955
  10 C :   -0.055785
  11 C :   -0.104100
  12 C :   -0.103640
  13 C :   -0.108239
  14 H :    0.076688
  15 H :    0.071267
  16 H :    0.062435
  17 H :    0.053300
  18 H :    0.047907
  19 H :    0.049477
  20 H :    0.042621
  21 H :    0.041836
  22 H :    0.043157
  23 H :    0.046459
  24 H :    0.045451
  25 H :    0.044821
  26 H :    0.046949
  27 H :    0.038696
  28 H :    0.049642
  29 H :    0.041006
  30 H :    0.047508
  31 H :    0.054989
  32 H :    0.046848
  33 H :    0.041089

-------------------------------
LOEWDIN REDUCED ORBITAL CHARGES
-------------------------------
  0 C s       :     0.783240  s :     0.783240
      pz      :     1.068087  p :     3.096452
      px      :     1.023321
      py      :     1.005044
      dz2     :     0.041663  d :     0.212078
      dxz     :     0.012372
      dyz     :     0.060221
      dx2y2   :     0.047238
      dxy     :     0.050584

  1 C s       :     0.785544  s :     0.785544
      pz      :     0.732409  p :     2.523421
      px      :     0.830246
      py      :     0.960767
      dz2     :     0.085971  d :     0.670788
      dxz     :     0.107578
      dyz     :     0.112968
      dx2y2   :     0.176778
      dxy     :     0.187493

  2 O s       :     1.559827  s :     1.559827
      pz      :     1.416804  p :     4.570932
      px      :     1.666816
      py      :     1.487311
      dz2     :     0.009152  d :     0.067468
      dxz     :     0.003847
      dyz     :     0.019801
      dx2y2   :     0.018933
      dxy     :     0.015736

  3 O s       :     1.394921  s :     1.394921
      pz      :     1.628277  p :     4.550190
      px      :     1.326832
      py      :     1.595081
      dz2     :     0.010733  d :     0.098893
      dxz     :     0.024006
      dyz     :     0.008652
      dx2y2   :     0.029139
      dxy     :     0.026362

  4 C s       :     0.758168  s :     0.758168
      pz      :     0.982067  p :     2.776262
      px      :     0.863005
      py      :     0.931191
      dz2     :     0.090237  d :     0.464211
      dxz     :     0.108109
      dyz     :     0.057840
      dx2y2   :     0.088631
      dxy     :     0.119394

  5 C s       :     0.768987  s :     0.768987
      pz      :     0.982277  p :     2.990777
      px      :     0.946746
      py      :     1.061754
      dz2     :     0.043833  d :     0.298681
      dxz     :     0.068071
      dyz     :     0.084779
      dx2y2   :     0.057907
      dxy     :     0.044091

  6 C s       :     0.757494  s :     0.757494
      pz      :     0.970560  p :     2.909836
      px      :     0.978288
      py      :     0.960989
      dz2     :     0.060291  d :     0.387701
      dxz     :     0.098512
      dyz     :     0.082426
      dx2y2   :     0.074216
      dxy     :     0.072256

  7 C s       :     0.766572  s :     0.766572
      pz      :     0.996685  p :     2.996231
      px      :     1.023082
      py      :     0.976464
      dz2     :     0.053650  d :     0.312047
      dxz     :     0.050155
      dyz     :     0.084688
      dx2y2   :     0.085832
      dxy     :     0.037722

  8 C s       :     0.764158  s :     0.764158
      pz      :     1.003715  p :     2.990588
      px      :     0.999383
      py      :     0.987490
      dz2     :     0.070678  d :     0.307958
      dxz     :     0.070305
      dyz     :     0.041314
      dx2y2   :     0.046848
      dxy     :     0.078814

  9 C s       :     0.752379  s :     0.752379
      pz      :     0.954340  p :     2.863658
      px      :     0.952062
      py      :     0.957255
      dz2     :     0.096629  d :     0.440919
      dxz     :     0.112035
      dyz     :     0.068740
      dx2y2   :     0.070351
      dxy     :     0.093163

 10 C s       :     0.750475  s :     0.750475
      pz      :     0.961133  p :     2.868361
      px      :     0.953945
      py      :     0.953283
      dz2     :     0.084925  d :     0.436949
      dxz     :     0.083759
      dyz     :     0.084753
      dx2y2   :     0.088779
      dxy     :     0.094734

 11 C s       :     0.775804  s :     0.775804
      pz      :     1.062476  p :     3.091113
      px      :     1.058348
      py      :     0.970289
[...]
 57:   1317.32   0.003736   18.88  0.000885  ( 0.028863  0.006686  0.002685)
 58:   1322.26   0.000142    0.72  0.000033  (-0.004466 -0.003445 -0.001293)
 59:   1328.48   0.084287  425.95  0.019799  ( 0.138267  0.003155  0.025916)
 60:   1342.22   0.000153    0.77  0.000035  ( 0.004579  0.003784 -0.000422)
 61:   1356.55   0.000292    1.48  0.000067  ( 0.005577  0.000287 -0.006006)
 62:   1365.59   0.000437    2.21  0.000100  (-0.008324 -0.005295 -0.001562)
 63:   1385.75   0.001334    6.74  0.000300  ( 0.017119 -0.000698 -0.002610)
 64:   1403.94   0.000394    1.99  0.000088  ( 0.003387 -0.008719 -0.000248)
 65:   1437.13   0.017542   88.65  0.003809  (-0.058863 -0.014054 -0.012112)
 66:   1440.78   0.008419   42.55  0.001824  ( 0.040305  0.013590 -0.003798)
 67:   1447.69   0.001309    6.62  0.000282  ( 0.000251  0.010565 -0.013059)
 68:   1457.96   0.003954   19.98  0.000846  ( 0.025738 -0.010084 -0.009065)
 69:   1463.80   0.007796   39.40  0.001662  ( 0.027000  0.026812  0.014633)
 70:   1501.43   0.003472   17.54  0.000722  ( 0.001398 -0.025517  0.008277)
 71:   1508.69   0.002402   12.14  0.000497  (-0.006581  0.004121  0.020894)
 72:   1511.51   0.001072    5.42  0.000221  (-0.009323 -0.009326 -0.006892)
 73:   1513.49   0.001117    5.65  0.000230  (-0.010319 -0.010005  0.004881)
 74:   1524.51   0.000950    4.80  0.000195  ( 0.003274  0.013489  0.001355)
 75:   1530.24   0.005470   27.64  0.001116  ( 0.000249  0.014453 -0.030109)
 76:   1532.79   0.002383   12.05  0.000485  ( 0.020673 -0.006077 -0.004578)
 77:   1538.10   0.000012    0.06  0.000002  (-0.000938  0.000659 -0.001036)
 78:   1545.49   0.000373    1.88  0.000075  ( 0.000643  0.006207 -0.006027)
 79:   1555.71   0.002425   12.26  0.000487  (-0.019558 -0.010024 -0.001877)
 80:   1563.50   0.001780    8.99  0.000355  (-0.000686  0.018741  0.001883)
 81:   1872.20   0.057926  292.73  0.009655  ( 0.046400 -0.081766  0.028575)
 82:   3101.33   0.003647   18.43  0.000367  ( 0.004464  0.014772 -0.011349)
 83:   3101.67   0.003970   20.06  0.000399  ( 0.013593  0.003736  0.014165)
 84:   3106.75   0.012097   61.13  0.001215  ( 0.016205 -0.025655 -0.017155)
 85:   3121.44   0.004935   24.94  0.000493  ( 0.012345 -0.000188  0.018464)
 86:   3131.51   0.008668   43.80  0.000864  ( 0.008525  0.027467 -0.006057)
 87:   3134.76   0.000418    2.11  0.000042  (-0.002676 -0.005487 -0.002088)
 88:   3135.15   0.004187   21.16  0.000417  ( 0.011081 -0.001119 -0.017110)
 89:   3154.12   0.009098   45.98  0.000900  (-0.018654  0.002808 -0.023329)
 90:   3169.89   0.000090    0.45  0.000009  ( 0.001978 -0.000770  0.002086)
 91:   3174.49   0.001021    5.16  0.000100  ( 0.004870 -0.002398  0.008423)
 92:   3180.87   0.006541   33.05  0.000642  ( 0.017055 -0.002441  0.018570)
 93:   3181.51   0.001143    5.78  0.000112  ( 0.009377 -0.000259 -0.004913)
 94:   3185.63   0.004387   22.17  0.000430  (-0.013280  0.009247  0.012956)
 95:   3190.91   0.004385   22.16  0.000429  (-0.016468 -0.007851  0.009800)
 96:   3197.27   0.001040    5.26  0.000102  (-0.003282  0.008957  0.003241)
 97:   3199.44   0.003973   20.08  0.000388  ( 0.001045 -0.018467 -0.006739)
 98:   3221.57   0.003678   18.59  0.000356  (-0.008396 -0.016644  0.002956)
 99:   3228.30   0.000126    0.64  0.000012  ( 0.001331 -0.001033 -0.003062)
100:   3244.47   0.001356    6.85  0.000130  ( 0.007725  0.002317 -0.008084)
101:   3263.85   0.000294    1.48  0.000028  (-0.005177 -0.000980 -0.000547)

* The epsilon (eps) is given for a Dirac delta lineshape.
** The dipole moment derivative (T) already includes vibrational overlap.

The first frequency considered to be a vibration is 6
The total number of vibrations considered is 96


--------------------------
THERMOCHEMISTRY AT 298.15K
--------------------------

Temperature         ...   298.15 K
Pressure            ...     1.00 atm
Total Mass          ...   196.29 AMU
Quasi RRHO          ...     True
Cut-Off Frequency   ...     1.00 cm^-1

Throughout the following assumptions are being made:
  (1) The electronic state is orbitally nondegenerate
  (2) There are no thermally accessible electronically excited states
  (3) Hindered rotations indicated by low frequency modes are not
      treated as such but are treated as vibrations and this may
      cause some error
  (4) All equations used are the standard statistical mechanics
      equations for an ideal gas
  (5) All vibrations are strictly harmonic

freq.      51.89  E(vib)   ...       0.52 
freq.      63.41  E(vib)   ...       0.51 
freq.      77.19  E(vib)   ...       0.49 
freq.      88.58  E(vib)   ...       0.47 
freq.     164.04  E(vib)   ...       0.39 
freq.     203.90  E(vib)   ...       0.35 
freq.     227.31  E(vib)   ...       0.33 
freq.     242.58  E(vib)   ...       0.31 
freq.     253.04  E(vib)   ...       0.30 
freq.     263.82  E(vib)   ...       0.29 
freq.     279.19  E(vib)   ...       0.28 
freq.     289.21  E(vib)   ...       0.27 
freq.     311.79  E(vib)   ...       0.25 
freq.     360.10  E(vib)   ...       0.22 
freq.     403.83  E(vib)   ...       0.19 
freq.     408.36  E(vib)   ...       0.19 
freq.     438.14  E(vib)   ...       0.17 
freq.     471.78  E(vib)   ...       0.15 
freq.     509.24  E(vib)   ...       0.14 
freq.     554.08  E(vib)   ...       0.12 
freq.     600.59  E(vib)   ...       0.10 
freq.     621.91  E(vib)   ...       0.09 
freq.     650.39  E(vib)   ...       0.08 
freq.     666.99  E(vib)   ...       0.08 
freq.     685.10  E(vib)   ...       0.07 
freq.     776.59  E(vib)   ...       0.05 
freq.     827.12  E(vib)   ...       0.04 
freq.     879.64  E(vib)   ...       0.04 
freq.     901.39  E(vib)   ...       0.03 
freq.     913.23  E(vib)   ...       0.03 
freq.     944.59  E(vib)   ...       0.03 
freq.     969.80  E(vib)   ...       0.03 
freq.     976.43  E(vib)   ...       0.03 
freq.     985.59  E(vib)   ...       0.02 
freq.     990.88  E(vib)   ...       0.02 
freq.    1007.61  E(vib)   ...       0.02 
freq.    1015.36  E(vib)   ...       0.02 
freq.    1034.57  E(vib)   ...       0.02 
freq.    1054.04  E(vib)   ...       0.02 
freq.    1071.17  E(vib)   ...       0.02 
freq.    1085.82  E(vib)   ...       0.02 
freq.    1094.48  E(vib)   ...       0.02 
freq.    1120.90  E(vib)   ...       0.01 
freq.    1136.64  E(vib)   ...       0.01 
freq.    1167.54  E(vib)   ...       0.01 
freq.    1200.94  E(vib)   ...       0.01 
freq.    1229.05  E(vib)   ...       0.01 
freq.    1238.48  E(vib)   ...       0.01 
freq.    1252.55  E(vib)   ...       0.01 
freq.    1264.53  E(vib)   ...       0.01 
freq.    1282.46  E(vib)   ...       0.01 
freq.    1317.32  E(vib)   ...       0.01 
freq.    1322.26  E(vib)   ...       0.01 
freq.    1328.48  E(vib)   ...       0.01 
freq.    1342.22  E(vib)   ...       0.01 
freq.    1356.55  E(vib)   ...       0.01 
freq.    1365.59  E(vib)   ...       0.01 
freq.    1385.75  E(vib)   ...       0.00 
freq.    1403.94  E(vib)   ...       0.00 
freq.    1437.13  E(vib)   ...       0.00 
freq.    1440.78  E(vib)   ...       0.00 
freq.    1447.69  E(vib)   ...       0.00 
freq.    1457.96  E(vib)   ...       0.00 
freq.    1463.80  E(vib)   ...       0.00 
freq.    1501.43  E(vib)   ...       0.00 
freq.    1508.69  E(vib)   ...       0.00 
freq.    1511.51  E(vib)   ...       0.00 
freq.    1513.49  E(vib)   ...       0.00 
freq.    1524.51  E(vib)   ...       0.00 
freq.    1530.24  E(vib)   ...       0.00 
freq.    1532.79  E(vib)   ...       0.00 
freq.    1538.10  E(vib)   ...       0.00 
freq.    1545.49  E(vib)   ...       0.00 
freq.    1555.71  E(vib)   ...       0.00 
freq.    1563.50  E(vib)   ...       0.00 
freq.    1872.20  E(vib)   ...       0.00 
freq.    3101.33  E(vib)   ...       0.00 
freq.    3101.67  E(vib)   ...       0.00 
freq.    3106.75  E(vib)   ...       0.00 
freq.    3121.44  E(vib)   ...       0.00 
freq.    3131.51  E(vib)   ...       0.00 
freq.    3134.76  E(vib)   ...       0.00 
freq.    3135.15  E(vib)   ...       0.00 
freq.    3154.12  E(vib)   ...       0.00 
freq.    3169.89  E(vib)   ...       0.00 
freq.    3174.49  E(vib)   ...       0.00 
freq.    3180.87  E(vib)   ...       0.00 
freq.    3181.51  E(vib)   ...       0.00 
freq.    3185.63  E(vib)   ...       0.00 
freq.    3190.91  E(vib)   ...       0.00 
freq.    3197.27  E(vib)   ...       0.00 
freq.    3199.44  E(vib)   ...       0.00 
freq.    3221.57  E(vib)   ...       0.00 
freq.    3228.30  E(vib)   ...       0.00 
freq.    3244.47  E(vib)   ...       0.00 
freq.    3263.85  E(vib)   ...       0.00 

------------
INNER ENERGY
------------

The inner energy is: U= E(el) + E(ZPE) + E(vib) + E(rot) + E(trans)
    E(el)   - is the total energy from the electronic structure calculation
              = E(kin-el) + E(nuc-el) + E(el-el) + E(nuc-nuc)
    E(ZPE)  - the the zero temperature vibrational energy from the frequency calculation
    E(vib)  - the the finite temperature correction to E(ZPE) due to population
              of excited vibrational states
    E(rot)  - is the rotational thermal energy
    E(trans)- is the translational thermal energy

Summary of contributions to the inner energy U:
Electronic energy                ...   -112.59412562 Eh
Zero point energy                ...      0.31096977 Eh     195.14 kcal/mol
Thermal vibrational correction   ...      0.01120618 Eh       7.03 kcal/mol
Thermal rotational correction    ...      0.00141627 Eh       0.89 kcal/mol
Thermal translational correction ...      0.00141627 Eh       0.89 kcal/mol
-----------------------------------------------------------------------
Total thermal energy                   -112.26911713 Eh


Summary of corrections to the electronic energy:
(perhaps to be used in another calculation)
Total thermal correction                  0.01403872 Eh       8.81 kcal/mol
Non-thermal (ZPE) correction              0.31096977 Eh     195.14 kcal/mol
-----------------------------------------------------------------------
Total correction                          0.32500849 Eh     203.95 kcal/mol


--------
ENTHALPY
--------

The enthalpy is H = U + kB*T
                kB is Boltzmann's constant
Total thermal energy              ...   -112.26911713 Eh 
Thermal Enthalpy correction       ...      0.00094421 Eh       0.59 kcal/mol
-----------------------------------------------------------------------
Total Enthalpy                    ...   -112.26817292 Eh


Note: Only C1 symmetry has been detected, increase convergence thresholds 
      if your molecule has a higher symmetry. Symmetry factor of 1.0 is   
      used for the rotational entropy correction. 
 

Note: Rotational entropy computed according to Herzberg 
Infrared and Raman Spectra, Chapter V,1, Van Nostrand Reinhold, 1945 
Point Group:  C1, Symmetry Number:   1  
Rotational constants in cm-1:     0.041874     0.017078     0.016495 

Vibrational entropy computed according to the QRRHO of S. Grimme
Chem.Eur.J. 2012 18 9955 using a reference frequency of 100.0 cm-1


-------
ENTROPY
-------

The entropy contributions are T*S = T*(S(el)+S(vib)+S(rot)+S(trans))
     S(el)   - electronic entropy
     S(vib)  - vibrational entropy
     S(rot)  - rotational entropy
     S(trans)- translational entropy
The entropies will be listed as multiplied by the temperature to get
units of energy

Electronic entropy                ...      0.00000000 Eh      0.00 kcal/mol
Vibrational entropy               ...      0.01897137 Eh     11.90 kcal/mol
Rotational entropy                ...      0.01486799 Eh      9.33 kcal/mol
Translational entropy             ...      0.01982641 Eh     12.44 kcal/mol
-----------------------------------------------------------------------
Final entropy term                ...      0.05366576 Eh     33.68 kcal/mol

In case the symmetry of your molecule has not been determined correctly
or in case you have a reason to use a different symmetry number we print 
out the resulting rotational entropy values for sn=1,12:

 non-linear molecules -----------------------------------
|  sn= 1 | S(rot)=       0.01486799 Eh      9.33 kcal/mol|
|  sn= 2 | S(rot)=       0.01421353 Eh      8.92 kcal/mol|
|  sn= 3 | S(rot)=       0.01383070 Eh      8.68 kcal/mol|
|  sn= 4 | S(rot)=       0.01355907 Eh      8.51 kcal/mol|
|  sn= 5 | S(rot)=       0.01334838 Eh      8.38 kcal/mol|
|  sn= 6 | S(rot)=       0.01317624 Eh      8.27 kcal/mol|
|  sn= 7 | S(rot)=       0.01303069 Eh      8.18 kcal/mol|
|  sn= 8 | S(rot)=       0.01290462 Eh      8.10 kcal/mol|
|  sn= 9 | S(rot)=       0.01279341 Eh      8.03 kcal/mol|
|  sn=10 | S(rot)=       0.01269393 Eh      7.97 kcal/mol|
|  sn=11 | S(rot)=       0.01260394 Eh      7.91 kcal/mol|
|  sn=12 | S(rot)=       0.01252178 Eh      7.86 kcal/mol|
 linear molecules ---------------------------------------
|  Dinfh | S(rot)=       0.00920139 Eh      5.77 kcal/mol|
|  Cinfv | S(rot)=       0.00985584 Eh      6.18 kcal/mol|
 --------------------------------------------------------


-------------------
GIBBS FREE ENERGY
-------------------

The Gibbs free energy is G = H - T*S

Total enthalpy                    ...   -112.26817292 Eh 
Total entropy correction          ...     -0.05366576 Eh    -33.68 kcal/mol
-----------------------------------------------------------------------
Final Gibbs free energy         ...   -112.32183868 Eh

For completeness - the Gibbs free energy minus the electronic energy
G-E(el)                           ...      0.27228694 Eh    170.86 kcal/mol


Maximum memory used throughout the entire PROP-calculation: 193.7 MB

--------------------------------
SUGGESTED CITATIONS FOR THIS RUN
--------------------------------

Below you find a list of papers that are relevant to this ORCA run
We neither can nor want to force you to cite these papers, but we appreciate if you do
You receive ORCA, which is the product of decades of hard work by many enthusiastic individuals, for free
The only thing we kindly ask in return is that you cite our papers,
We deeply appreciate it, if you show your appreciation for ORCA by not just citing the generic ORCA reference.

Please note that relegating all ORCA citations to the supporting information does *not* help us.
SI sections are not indexed - citations you put there will not count into any citation statistics
But we need these citations in order to attract the funding resources that allow us to do what we are doing

Therefore, if you are a happy ORCA user, please consider citing a few of the papers listed below in the main body of your paper

In addition to the list printed below, the program has created the file ./output/bornyl_acetate/bornyl_acetate.bibtex that contains the list in bibtex format
You can import this file easily into all common literature databanks and citation aid programs


List of essential papers. We consider these as the minimum necessary citations

  1. Neese,F.
     Software update: the ORCA program system, version 5.0
     WIRES Comput. Molec. Sci., 2022 12(1)e1606
     doi.org/10.1002/wcms.1606
  2. Mueller,M.; Hansen,A.; Grimme,S.
     wB97X-3c: A composite range-separated hybrid DFT method with a molecule-optimized polarized valence double-zeta basis set
     J. Chem. Phys., 2023 158 014103
     doi.org/10.1063/5.0133026

List of papers to cite with high priority. The work reported in these papers was absolutely
necessary for this run to complete.
Our perspective: the developers of density functionals and basis sets usually get cited in chemistry papers
Good! But without the algorithms to do something with them, the functionals or basis sets would not do anything.
Hence, in our opinion, the algorithm design and method developments papers are equally worthy of getting cited

  1. Neese,F.
     An improvement of the resolution of the identity approximation for the formation of the Coulomb matrix
     J. Comp. Chem., 2003 24(14)1740-1747
     doi.org/10.1002/jcc.10318
  2. Neese,F.; Wennmohs,F.; Hansen,A.; Becker,U.
     Efficient, approximate and parallel Hartree-Fock and hybrid DFT calculations. A 'chain-of-spheres' algorithm for the Hartree-Fock exchange
     Chem. Phys., 2009 356(1-3)98-109
     doi.org/10.1016/j.chemphys.2008.10.036
  3. Bykov,D.; Petrenko,T.; Izsak,R.; Kossmann,S.; Becker,U.; Valeev,E.; Neese,F.
     Efficient implementation of the analytic second derivatives of Hartree-Fock and hybrid DFT energies: a detailed analysis of different approximations
     Molec. Phys., 2015 113 1961-1977
     doi.org/10.1080/00268976.2015.1025114
  4. Helmich-Paris,B.; de Souza,B.; Neese,F.; Izsák,R.
     An improved chain of spheres for exchange algorithm
     J. Chem. Phys., 2021 155 104109
     doi.org/doi: 10.1063/5.0058766.
  5. Neese,F.
     The SHARK Integral Generation and Digestion System
     J. Comp. Chem., 2022  1-16
     doi.org/10.1002/jcc.26942
  6. Caldeweyher,E.; Bannwarth,C.; Grimme,S.
     Extension of the D3 dispersion coefficient model
     J. Chem. Phys., 2017 147 034112
     doi.org/10.1063/1.4993215
  7. Caldeweyher,E.; Ehlert,S.; Hansen,A.; Neugebauer,H.; Spicher,S.; Bannwarth,C.; Grimme,S.
     A generally applicable atomic-charge dependent London dispersion correction
     J. Chem. Phys., 2019 150 154122
     doi.org/10.1063/1.5090222
  8. Caldeweyher,E.; Mewes,J.; Ehlert,S.; Grimme,S.
     Extension and evaluation of the D4 London-dispersion model for periodic systems
     Phys. Chem. Chem. Phys., 2020 22(16)8499-8512
     doi.org/10.1039/D0CP00502A
  9. Wittmann,L.; Gordiy,I.; Friede,M.; Helmich-Paris,B.; Grimme,S.; Hansen,A.; Bursch,M.
     Extension of the D3 and D4 London Dispersion Corrections to the full Actinides Series
     Phys. Chem. Chem. Phys., 2024 26(32)21379-21394
     doi.org/https://doi.org/10.1039/D4CP01514B 

List of suggested additional citations. These are papers that are important in the 'surrounding' of 
of this run, or papers that preceded the highly important papers. If you like your results we are grateful for a citation.

  1. Izsak,R.; Neese,F.
     An overlap fitted chain of spheres exchange method
     J. Chem. Phys., 2011 135 144105
     doi.org/10.1063/1.3646921
  2. Izsak,R.; Hansen,A.; Neese,F.
     The resolution of identity and chain of spheres approximations for the LPNO-CCSD singles Fock term
     Molec. Phys., 2012 110 2413-2417
     doi.org/10.1080/00268976.2012.687466
  3. Neese,F.
     The ORCA program system
     WIRES Comput. Molec. Sci., 2012 2(1)73-78
     doi.org/10.1002/wcms.81
  4. Izsak,R.; Neese,F.; Klopper,W.
     Robust fitting techniques in the chain of spheres approximation to the Fock exchange: The role of the complementary space
     J. Chem. Phys., 2013 139 
     doi.org/10.1063/1.4819264
  5. Neese,F.
     Software update: the ORCA program system, version 4.0
     WIRES Comput. Molec. Sci., 2018 8(1)1-6
     doi.org/10.1002/wcms.1327
  6. Neese,F.; Wennmohs,F.; Becker,U.; Riplinger,C.
     The ORCA quantum chemistry program package
     J. Chem. Phys., 2020 152 Art. No. L224108
     doi.org/10.1063/5.0004608

List of optional additional citations

  1. Neese,F.
     Approximate second-order SCF convergence for spin unrestricted wavefunctions
     Chem. Phys. Lett., 2000 325(1-3)93-98
     doi.org/10.1016/s0009-2614(00)00662-x

Timings for individual modules:

Sum of individual times          ...     1885.373 sec (=  31.423 min)
Startup calculation              ...       89.980 sec (=   1.500 min)   4.8 %
SCF iterations                   ...     1175.547 sec (=  19.592 min)  62.4 %
Property integrals               ...      110.152 sec (=   1.836 min)   5.8 %
SCF Response                     ...       67.502 sec (=   1.125 min)   3.6 %
Property calculations            ...      171.296 sec (=   2.855 min)   9.1 %
SCF Gradient evaluation          ...      270.478 sec (=   4.508 min)  14.3 %
Geometry relaxation              ...        0.418 sec (=   0.007 min)   0.0 %
                             ****ORCA TERMINATED NORMALLY****
TOTAL RUN TIME: 0 days 0 hours 31 minutes 34 seconds 339 msec
