
                                 *****************
                                 * O   R   C   A *
                                 *****************

                                            #,                                       
                                            ###                                      
                                            ####                                     
                                            #####                                    
                                            ######                                   
                                           ########,                                 
                                     ,,################,,,,,                         
                               ,,#################################,,                 
                          ,,##########################################,,             
                       ,#########################################, ''#####,          
                    ,#############################################,,   '####,        
                  ,##################################################,,,,####,       
                ,###########''''           ''''###############################       
              ,#####''   ,,,,##########,,,,          '''####'''          '####       
            ,##' ,,,,###########################,,,                        '##       
           ' ,,###''''                  '''############,,,                           
         ,,##''                                '''############,,,,        ,,,,,,###''
      ,#''                                            '''#######################'''  
     '                                                          ''''####''''         
             ,#######,   #######,   ,#######,      ##                                
            ,#'     '#,  ##    ##  ,#'     '#,    #''#        ,####,   ,####,        
            ##       ##  ##   ,#'  ##            #'  '#       #'       #'  '#        
            ##       ##  #######   ##           ,######,      #####,   #    #        
            '#,     ,#'  ##    ##  '#,     ,#' ,#      #,     #,   #   #,  ,#        
             '#######'   ##     ##  '#######'  #'      '#     '####' # '####'        



                #########################################################
                #                        -***-                          #
                #          Department of theory and spectroscopy        #
                #                                                       #
                #                      Frank Neese                      #
                #                                                       #
                #     Directorship, Architecture, Infrastructure        #
                #                    SHARK, DRIVERS                     #
                #        Core code/Algorithms in most modules           #
                #                                                       #
                #        Max Planck Institute fuer Kohlenforschung      #
                #                Kaiser Wilhelm Platz 1                 #
                #                 D-45470 Muelheim/Ruhr                 #
                #                      Germany                          #
                #                                                       #
                #                  All rights reserved                  #
                #                        -***-                          #
                #########################################################


                         Program Version 6.0.1  -  RELEASE   -


 With contributions from (in alphabetic order):
[Max-Planck-Institut fuer Kohlenforschung]                               
  Daniel Aravena         : Magnetic Suceptibility                        
  Michael Atanasov       : Ab Initio Ligand Field Theory (pilot matlab implementation)
  Alexander A. Auer      : GIAO ZORA, VPT2 properties, NMR spectrum      
  Ute Becker             : All parallelization in ORCA, NUMFREQ, NUMCALC 
  Giovanni Bistoni       : ED, misc. LED, open-shell LED, HFLD           
  Martin Brehm           : Molecular dynamics                            
  Dmytro Bykov           : pre 5.0 version of the SCF Hessian            
  Marcos Casanova-Páez   : Triplet and SCS-CIS(D). UHF-(DLPNO)-IP/EA/STEOM-CCSD. UHF-CVS-IP/STEOM-CCSD   
  Vijay G. Chilkuri      : MRCI spin determinant printing, contributions to CSF-ICE 
  Pauline Colinet        : FMM embedding                                 
  Dipayan Datta          : RHF DLPNO-CCSD density                        
  Achintya Kumar Dutta   : EOM-CC, STEOM-CC                              
  Nicolas Foglia         : Exact transition moments, OPA infrastructure, MCD improvements    
  Dmitry Ganyushin       : Spin-Orbit,Spin-Spin,Magnetic field MRCI      
  Miquel Garcia-Rates    : C-PCM and meta-GGA Hessian, CCSD/C-PCM, Gaussian charge scheme 
  Tiago L. C. Gouveia    : GS-ROHF, GS-ROCIS                             
  Yang Guo               : DLPNO-NEVPT2, F12-NEVPT2, CIM, IAO-localization        
  Andreas Hansen         : Spin unrestricted coupled pair/coupled cluster methods 
  Ingolf Harden          : AUTO-CI MPn and infrastructure                
  Benjamin Helmich-Paris : MC-RPA, TRAH-(SCF,CASSCF), AVAS, COSX integrals, SCF dyn. polar. 
  Lee Huntington         : MR-EOM, pCC                                   
  Robert Izsak           : Overlap fitted RIJCOSX, COSX-SCS-MP3, EOM     
  Riya Kayal             : Wick's Theorem for AUTO-CI, AUTO-CI UHF-CCSDT 
  Emily Kempfer          : AUTO-CI, RHF CISDT and CCSDT                  
  Christian Kollmar      : KDIIS, OOCD, Brueckner-CCSD(T), CCSD density, CASPT2, CASPT2-K, improved NEVPT2 
  Axel Koslowski         : Symmetry handling                             
  Simone Kossmann        : meta-GGA functionals, TD-DFT gradient, OOMP2, (MP2 Hessian; deprecated post 5.0) 
  Lucas Lang             : DCDCAS                                        
  Marvin Lechner         : AUTO-CI (C++ implementation), FIC-MRCC        
  Spencer Leger          : CASSCF response                               
  Dagmar Lenk            : GEPOL surface, SMD, ORCA-2-JSON               
  Dimitrios Liakos       : Extrapolation schemes; Compound Job, initial MDCI parallelization 
  Dimitrios Manganas     : Further ROCIS development; embedding schemes. LFT, Crystal Embedding 
  Dimitrios Pantazis     : SARC Basis sets                               
  Anastasios Papadopoulos: AUTO-CI, single reference methods and gradients 
  Taras Petrenko         : pre 6.0 DFT Hessian and TD-DFT gradient, (ASA, deprecated), ECA, 1-Electron XAS/XES, NRVS 
  Peter Pinski           : DLPNO-MP2, DLPNO-MP2 Gradient                 
  Christoph Reimann      : Effective Core Potentials                     
  Marius Retegan         : Local ZFS, SOC                                
  Christoph Riplinger    : Optimizer, TS searches, QM/MM, DLPNO-CCSD(T), (RO)-DLPNO pert. Triples 
  Michael Roemelt        : Original ROCIS implementation                 
  Masaaki Saitow         : Open-shell DLPNO-CCSD energy and density      
  Barbara Sandhoefer     : DKH picture change effects                    
  Kantharuban Sivalingam : CASSCF convergence/infrastructure, NEVPT2 and variants, FIC-MRCI 
  Bernardo de Souza      : ESD, SOC TD-DFT                               
  Georgi L. Stoychev     : AutoAux, RI-MP2 NMR, DLPNO-MP2 response, X2C  
  Van Anh Tran           : RI-MP2 g-tensors                              
  Willem Van den Heuvel  : Paramagnetic NMR                              
  Zikuan Wang            : NOTCH, Electric field optimization            
  Frank Wennmohs         : Technical directorship and infrastructure     
  Hang Xu                : AUTO-CI-Response properties                   
                                                                         
[FACCTs GmbH]                                                            
  Markus Bursch, Miquel Garcia-Rates, Christoph Riplinger, Bernardo de Souza, Georgi L. Stoychev 
                                                                 
  APM, Basis sets (HGBS, AHGBS, def-TZVP (Ac-Lr), def2-XVPD (La-Lu)), CI-OPT, improved COSX, DLPNO-Multilevel,           
  DOCKER, DRACO, updates on ESD, GOAT, IRC, LR-CPCM, MBIS, meta-GGA TD-DFT gradient, ML-optimized integration grids, 
  MM, NACMEs, nearIR, NEB, NEB-TS, NL-DFT gradient (VV10), 2- and 3-layer-ONIOM, interface openCOSMO-RS, QMMM,   
  Crystal-QMMM, SF, symmetry and pop. for TD-DFT, r2SCAN hybrids, SOLVATOR                                   
                                                                         
[Other institutions]                                                     
  V. Asgeirsson          : NEB                                           
  Christoph Bannwarth    : sTDA-DFT, sTD-DFT, PBEh-3c, B97-3c, D3        
  Sebastian Ehlert       : rSCAN, r2SCAN, r2SCAN-3c, D4, dhf basis sets  
  Marvin Friede          : D4 for Fr, Ra, Ac-Lr                          
  Lars Goerigk           : TD-DFT with DH, B97 family of functionals     
  Stefan Grimme          : VdW corrections, initial TS optimization, DFT functionals, gCP, sTDA/sTD-DF 
  Waldemar Hujo          : DFT-NL                                        
  H. Jonsson             : NEB                                           
  Holger Kruse           : gCP                                           
  Marcel Mueller         : wB97X-3c, vDZP basis set                      
  Hagen Neugebauer       : wr2SCAN                                       
  Tobias Risthaus        : range-separated hybrid DFT                    
  Lukas Wittmann         : regularized MP2, r2SCAN double-hybrids, wr2SCAN        
                                                                         
We gratefully acknowledge several colleagues who have allowed us to      
interface, adapt or use parts of their codes:                            
  Ed Valeev, F. Pavosevic, A. Kumar             : LibInt (2-el integral package), F12 methods 
  Garnet Chan, S. Sharma, J. Yang, R. Olivares  : DMRG                   
  Ulf Ekstrom                                   : XCFun DFT Library      
  Mihaly Kallay                                 : mrcc  (arbitrary order and MRCC methods)
  Frank Weinhold                                : gennbo (NPA and NBO analysis)           
  Simon Mueller                                 : openCOSMO-RS                            
  Christopher J. Cramer and Donald G. Truhlar   : smd solvation model                     
  S Lehtola, MJT Oliveira, MAL Marques          : LibXC Library                           
  Liviu Ungur et al                             : ANISO software                          


 Your calculation uses the libint2 library for the computation of 2-el integrals
 For citations please refer to: http://libint.valeyev.net

 Your ORCA version has been built with support for libXC version: 6.2.2
 For citations please refer to: https://libxc.gitlab.io

 This ORCA versions uses:
   CBLAS   interface :  Fast vector & matrix operations
   LAPACKE interface :  Fast linear algebra routines
   SCALAPACK package :  Parallel linear algebra routines
   Shared memory     :  Shared parallel matrices
   BLAS/LAPACK       :  OpenBLAS 0.3.27  USE64BITINT DYNAMIC_ARCH NO_AFFINITY SkylakeX SINGLE_THREADED
        Core in use  :  SkylakeX
   Copyright (c) 2011-2014, The OpenBLAS Project


Your calculation utilizes the atom-pairwise dispersion correction
based on EEQ partial charges (D4)


================================================================================

cite the ECPs for C  [vDZP-ECP] as follows:
   B-Ne (ecp-2-mwb), Al-Ar (ecp-10-mwb), Ga-Kr (ecp-28-mwb), Y-Cd (ecp-28-mwb), In-Xe (ecp-46-mwb):
     A. Bergner, M. Dolg, W. Küchle, H. Stoll, and H. Preuß, Mol. Phys. 80, 1431 (1993)., T. Leininger, A. Berning, A. Nicklass, H. Stoll, H.-J. Werner, and H.-J.Flad, Chem. Phys. 217, 19 (1997).
   Na-Mg, K-Ca, Rb-Sr, Cs-Ba (CRENBL):
     L. Fernandez Pacios and P. A. Christiansen, J. Chem. Phys. 82, 2664 (1985)., M. M. Hurley, L. F. Pacios, P. A. Christiansen, R. B. Ross, and W. C. Ermler, J. Chem. Phys. 84, 6840 (1986)., L. A. LaJohn, P. A. Christiansen, R. B. Ross, T. Atashroo, and W. C. Ermler, J. Chem. Phys. 87, 2812 (1987)., R. B. Ross, J. M. Powers, T. Atashroo, W. C. Ermler, L. A. LaJohn, and P. A. Christiansen, J. Chem. Phys. 93, 6654 (1990). 
   Sc-Zn (ecp-10-mdf):
     M. Dolg, U. Wedig, H. Stoll, and H. Preuss, J. Chem. Phys. 86, 866 (1986). 
   Y-Cd (ecp-28-mwb), Hf-Hg (ecp-60-mwb):
     D. Andrae, U. Häußermann, M. Dolg, H. Stoll, and H. Preuß, Theor. Chim. Acta 77, 123 (1990). 
   La (ecp-46-mwb):
     M. Dolg, H. Stoll, and H. Preuss, J. Chem. Phys. 90, 1730 (1989)., M. Dolg, H. Stoll, and H. Preuss, Theor. Chim. Acta 85, 441 (1993).
   Ce-Lu (SBKJC-ecp):
     T. R. Cundari and W. J. Stevens, J. Chem. Phys. 98, 5555 (1993).
   Tl-Rn (ecp-78-mwb):
     W. Küchle, M. Dolg, H. Stoll, and H. Preuss, Mol. Phys. 74, 1245 (1991).

ECP parameters for C  [vDZP-ECP] have been obtained from:
MM, AH, SG, J. Chem. Phys. 158, 014103 (2023), 10.1063/5.0133026

----- Orbital basis set information -----
Your calculation utilizes the basis: vDZP
   Marcel Mueller, Andreas Hansen, Stefan Grimme 
   J. Chem. Phys. 158, 014103 (2023). DOI: 10.1063/5.0133026

----- AuxJ basis set information -----
Your calculation utilizes the auxiliary basis: def2/J
   F. Weigend, Phys. Chem. Chem. Phys. 8, 1057 (2006).

================================================================================
                                        WARNINGS
                       Please study these warnings very carefully!
================================================================================

WARNING: Frozen-Core approximation turned on, but there are no core electrons.
  ===> : Turning off frozen-core approximation


WARNING: Geometry Optimization
  ===> : Switching off AutoStart
         For restart on a previous wavefunction, please use MOREAD

================================================================================
                                       INPUT FILE
================================================================================
NAME = ./output/alpha_phellandrene/alpha_phellandrene.inp
|  1> ! wB97X-3c OPT FREQ TightSCF
|  2> %pal
|  3>   nprocs 40
|  4> end
|  5> * xyz 0 1
|  6> C      3.879078    -0.213128     0.396356
|  7> C      2.416811    -0.057345     0.101269
|  8> C      1.763240     1.049370     0.483658
|  9> C      0.310024     1.240672     0.136178
| 10> C     -0.458633    -0.104921     0.181232
| 11> C      0.335512    -1.156477    -0.577426
| 12> C      1.673102    -1.155130    -0.553603
| 13> C     -1.918749     0.007467    -0.361465
| 14> C     -2.664815     1.231938     0.199762
| 15> C     -2.735563    -1.256228    -0.030229
| 16> H      4.014649    -0.482649     1.464707
| 17> H      4.419471     0.735009     0.187830
| 18> H      4.325995    -1.010655    -0.234029
| 19> H      2.286938     1.842986     1.003717
| 20> H     -0.124669     1.961467     0.860626
| 21> H      0.245164     1.677013    -0.884373
| 22> H     -0.501285    -0.422077     1.247642
| 23> H     -0.164318    -1.947878    -1.118593
| 24> H      2.214366    -1.956739    -1.040744
| 25> H     -1.882849     0.115819    -1.468664
| 26> H     -3.729518     1.220118    -0.117882
| 27> H     -2.225441     2.173162    -0.191336
| 28> H     -2.624449     1.239132     1.310239
| 29> H     -3.771364    -1.158914    -0.420315
| 30> H     -2.784520    -1.412055     1.068950
| 31> H     -2.298178    -2.159956    -0.498349
| 32> *
| 33> 
| 34>                          ****END OF INPUT****
================================================================================

                       *****************************
                       * Geometry Optimization Run *
                       *****************************

Geometry optimization settings:
Update method            Update   .... BFGS
Choice of coordinates    CoordSys .... (2022) Redundant Internals
Initial Hessian          InHess   .... Almloef's Model
Max. no of cycles        MaxIter  .... 78

Convergence Tolerances:
Energy Change            TolE     ....  5.0000e-06 Eh
Max. Gradient            TolMAXG  ....  3.0000e-04 Eh/bohr
RMS Gradient             TolRMSG  ....  1.0000e-04 Eh/bohr
Max. Displacement        TolMAXD  ....  4.0000e-03 bohr
RMS Displacement         TolRMSD  ....  2.0000e-03 bohr
Strict Convergence                .... False

------------------------------------------------------------------------------
                        ORCA OPTIMIZATION COORDINATE SETUP
------------------------------------------------------------------------------

The optimization will be done in redundant internal coordinates (2022)
Making redundant internal coordinates   ...  (2022 redundants) done
Evaluating the initial hessian          ...  (Almloef) done
Evaluating the coordinates              ...  done
Calculating the B-matrix                .... done
Calculating the G-matrix                .... done
Diagonalizing the G-matrix              .... done
Small eigenvalue found = 1.699e-02
The first mode is                       ....   53
The number of degrees of freedom        ....   72

    -----------------------------------------------------------------
                    Redundant Internal Coordinates


    -----------------------------------------------------------------
         Definition                    Initial Value    Approx d2E/dq
    -----------------------------------------------------------------
      1. B(C   1,C   0)                  1.4999         0.417320   
      2. B(C   2,C   1)                  1.3410         0.748112   
      3. B(C   3,C   2)                  1.5064         0.407441   
      4. B(C   4,C   3)                  1.5503         0.346707   
      5. B(C   5,C   4)                  1.5205         0.386806   
      6. B(C   6,C   5)                  1.3378         0.756860   
      7. B(C   6,C   1)                  1.4789         0.450747   
      8. B(C   7,C   4)                  1.5618         0.332437   
      9. B(C   8,C   7)                  1.5398         0.360392   
     10. B(C   9,C   7)                  1.5407         0.359145   
     11. B(H  10,C   0)                  1.1101         0.334428   
     12. B(H  11,C   0)                  1.1111         0.333281   
     13. B(H  12,C   0)                  1.1105         0.334000   
     14. B(H  13,C   2)                  1.0838         0.368443   
     15. B(H  14,C   3)                  1.1106         0.333912   
     16. B(H  15,C   3)                  1.1118         0.332372   
     17. B(H  16,C   4)                  1.1134         0.330450   
     18. B(H  17,C   5)                  1.0812         0.371923   
     19. B(H  18,C   6)                  1.0830         0.369505   
     20. B(H  19,C   7)                  1.1131         0.330842   
     21. B(H  20,C   8)                  1.1111         0.333194   
     22. B(H  21,C   8)                  1.1099         0.334696   
     23. B(H  22,C   8)                  1.1112         0.333078   
     24. B(H  23,C   9)                  1.1111         0.333254   
     25. B(H  24,C   9)                  1.1112         0.333060   
     26. B(H  25,C   9)                  1.1078         0.337337   
     27. A(C   1,C   0,H  11)          110.4032         0.326101   
     28. A(H  10,C   0,H  11)          109.1717         0.284042   
     29. A(H  10,C   0,H  12)          108.8319         0.284137   
     30. A(C   1,C   0,H  10)          109.4884         0.326286   
     31. A(H  11,C   0,H  12)          108.0943         0.283985   
     32. A(C   1,C   0,H  12)          110.8104         0.326217   
     33. A(C   0,C   1,C   6)          120.0201         0.382529   
     34. A(C   2,C   1,C   6)          119.5911         0.423986   
     35. A(C   0,C   1,C   2)          120.3175         0.418195   
     36. A(C   1,C   2,H  13)          120.3763         0.365802   
     37. A(C   3,C   2,H  13)          118.9380         0.330234   
     38. A(C   1,C   2,C   3)          120.6118         0.416415   
     39. A(H  14,C   3,H  15)          108.7373         0.283853   
     40. A(C   2,C   3,H  15)          108.5334         0.324673   
     41. A(C   2,C   3,C   4)          111.1850         0.364106   
     42. A(C   2,C   3,H  14)          108.0325         0.324920   
     43. A(C   4,C   3,H  14)          110.5061         0.316456   
     44. A(C   4,C   3,H  15)          109.7786         0.316218   
     45. A(C   5,C   4,H  16)          107.5117         0.321612   
     46. A(C   3,C   4,H  16)          107.1017         0.315920   
     47. A(C   5,C   4,C   7)          111.3879         0.358315   
     48. A(C   3,C   4,C   5)          109.0746         0.360889   
     49. A(C   3,C   4,C   7)          113.0155         0.351726   
     50. A(C   7,C   4,H  16)          108.5125         0.313772   
     51. A(C   6,C   5,H  17)          118.1555         0.367122   
     52. A(C   4,C   5,H  17)          120.9635         0.327920   
     53. A(C   4,C   5,C   6)          120.8384         0.413438   
     54. A(C   1,C   6,C   5)          120.7597         0.424869   
     55. A(C   5,C   6,H  18)          119.4034         0.366712   
     56. A(C   1,C   6,H  18)          119.8211         0.335973   
     57. A(C   8,C   7,C   9)          108.4821         0.358714   
     58. A(C   4,C   7,C   9)          111.2180         0.353830   
     59. A(C   4,C   7,C   8)          112.5547         0.354038   
     60. A(C   9,C   7,H  19)          108.1072         0.317799   
     61. A(C   8,C   7,H  19)          107.5044         0.317979   
     62. A(C   4,C   7,H  19)          108.8148         0.313832   
     63. A(H  21,C   8,H  22)          109.4059         0.284051   
     64. A(H  20,C   8,H  22)          108.6964         0.283852   
     65. A(C   7,C   8,H  22)          110.5965         0.318328   
     66. A(H  20,C   8,H  21)          106.7148         0.284066   
     67. A(C   7,C   8,H  21)          110.7397         0.318580   
     68. A(C   7,C   8,H  20)          110.5866         0.318346   
     69. A(H  24,C   9,H  25)          108.7224         0.284395   
     70. A(H  23,C   9,H  25)          106.9280         0.284421   
     71. A(C   7,C   9,H  25)          111.6509         0.318808   
     72. A(H  23,C   9,H  24)          108.5711         0.283858   
     73. A(C   7,C   9,H  24)          110.5498         0.318146   
     74. A(C   7,C   9,H  23)          110.2985         0.318176   
     75. D(C   6,C   1,C   0,H  11)    139.8738         0.012883   
     76. D(C   6,C   1,C   0,H  10)    -99.9070         0.012883   
     77. D(C   2,C   1,C   0,H  10)     77.0087         0.012883   
     78. D(C   2,C   1,C   0,H  12)   -162.9376         0.012883   
     79. D(C   2,C   1,C   0,H  11)    -43.2105         0.012883   
     80. D(C   3,C   2,C   1,C   6)     -5.8636         0.039894   
     81. D(H  13,C   2,C   1,C   6)    177.2948         0.039894   
     82. D(H  13,C   2,C   1,C   0)      0.3659         0.039894   
     83. D(C   3,C   2,C   1,C   0)    177.2075         0.039894   
     84. D(H  15,C   3,C   2,C   1)    -84.9889         0.012301   
     85. D(C   4,C   3,C   2,H  13)   -147.2590         0.012301   
     86. D(H  14,C   3,C   2,C   1)    157.2726         0.012301   
     87. D(H  14,C   3,C   2,H  13)    -25.8410         0.012301   
     88. D(C   4,C   3,C   2,C   1)     35.8545         0.012301   
     89. D(C   5,C   4,C   3,C   2)    -47.5584         0.009700   
     90. D(C   7,C   4,C   3,H  15)    -51.9305         0.009700   
     91. D(C   7,C   4,C   3,H  14)     68.0003         0.009700   
     92. D(C   7,C   4,C   3,C   2)   -172.0389         0.009700   
     93. D(C   5,C   4,C   3,H  15)     72.5499         0.009700   
     94. D(C   5,C   4,C   3,H  14)   -167.5193         0.009700   
     95. D(H  17,C   5,C   4,C   7)    -21.8505         0.011141   
     96. D(H  17,C   5,C   4,C   3)   -147.2812         0.011141   
     97. D(C   6,C   5,C   4,H  16)    -80.6724         0.011141   
     98. D(C   6,C   5,C   4,C   7)    160.5676         0.011141   
     99. D(C   6,C   5,C   4,C   3)     35.1368         0.011141   
    100. D(C   1,C   6,C   5,C   4)     -5.9694         0.040925   
    101. D(H  18,C   6,C   1,C   2)    167.7249         0.013849   
    102. D(H  18,C   6,C   1,C   0)    -15.3369         0.013849   
    103. D(C   5,C   6,C   1,C   2)    -10.8211         0.013849   
    104. D(C   1,C   6,C   5,H  17)    176.3823         0.040925   
    105. D(C   5,C   6,C   1,C   0)    166.1171         0.013849   
    106. D(H  18,C   6,C   5,H  17)     -2.1697         0.040925   
    107. D(H  18,C   6,C   5,C   4)    175.4786         0.040925   
    108. D(C   9,C   7,C   4,C   5)     68.7178         0.008986   
    109. D(C   9,C   7,C   4,C   3)   -168.0733         0.008986   
    110. D(C   8,C   7,C   4,H  16)     72.5279         0.008986   
    111. D(C   8,C   7,C   4,C   5)   -169.3125         0.008986   
    112. D(C   9,C   7,C   4,H  16)    -49.4419         0.008986   
    113. D(C   8,C   7,C   4,C   3)    -46.1035         0.008986   
    114. D(H  21,C   8,C   7,H  19)    -51.7356         0.010419   
    115. D(H  21,C   8,C   7,C   9)   -168.4168         0.010419   
    116. D(H  21,C   8,C   7,C   4)     68.0771         0.010419   
    117. D(H  20,C   8,C   7,H  19)     66.3470         0.010419   
    118. D(H  20,C   8,C   7,C   9)    -50.3342         0.010419   
    119. D(H  20,C   8,C   7,C   4)   -173.8403         0.010419   
    120. D(H  24,C   9,C   7,H  19)    179.1583         0.010352   
    121. D(H  24,C   9,C   7,C   8)    -64.5491         0.010352   
    122. D(H  24,C   9,C   7,C   4)     59.7561         0.010352   
    123. D(H  23,C   9,C   7,H  19)    -60.7553         0.010352   
    124. D(H  23,C   9,C   7,C   8)     55.5374         0.010352   
    125. D(H  23,C   9,C   7,C   4)    179.8425         0.010352   
    -----------------------------------------------------------------

Number of atoms                         .... 26
Number of degrees of freedom            .... 125


         *************************************************************
         *                GEOMETRY OPTIMIZATION CYCLE   1            *
         *************************************************************
---------------------------------
CARTESIAN COORDINATES (ANGSTROEM)
---------------------------------
  C      3.879078   -0.213128    0.396356
  C      2.416811   -0.057345    0.101269
  C      1.763240    1.049370    0.483658
  C      0.310024    1.240672    0.136178
  C     -0.458633   -0.104921    0.181232
  C      0.335512   -1.156477   -0.577426
  C      1.673102   -1.155130   -0.553603
  C     -1.918749    0.007467   -0.361465
  C     -2.664815    1.231938    0.199762
  C     -2.735563   -1.256228   -0.030229
  H      4.014649   -0.482649    1.464707
  H      4.419471    0.735009    0.187830
  H      4.325995   -1.010655   -0.234029
  H      2.286938    1.842986    1.003717
  H     -0.124669    1.961467    0.860626
  H      0.245164    1.677013   -0.884373
  H     -0.501285   -0.422077    1.247642
  H     -0.164318   -1.947878   -1.118593
  H      2.214366   -1.956739   -1.040744
  H     -1.882849    0.115819   -1.468664
  H     -3.729518    1.220118   -0.117882
  H     -2.225441    2.173162   -0.191336
  H     -2.624449    1.239132    1.310239
  H     -3.771364   -1.158914   -0.420315
  H     -2.784520   -1.412055    1.068950
  H     -2.298178   -2.159956   -0.498349

----------------------------
CARTESIAN COORDINATES (A.U.)
----------------------------
  NO LB      ZA    FRAG     MASS         X           Y           Z
   0 C     4.0000*   0    12.011    7.330395   -0.402754    0.749004
   1 C     4.0000*   0    12.011    4.567111   -0.108366    0.191371
   2 C     4.0000*   0    12.011    3.332041    1.983022    0.913981
   3 C     4.0000*   0    12.011    0.585860    2.344530    0.257339
   4 C     4.0000*   0    12.011   -0.866691   -0.198272    0.342479
   5 C     4.0000*   0    12.011    0.634026   -2.185425   -1.091177
   6 C     4.0000*   0    12.011    3.161705   -2.182879   -1.046158
   7 C     4.0000*   0    12.011   -3.625910    0.014111   -0.683070
   8 C     4.0000*   0    12.011   -5.035771    2.328025    0.377495
   9 C     4.0000*   0    12.011   -5.169465   -2.373927   -0.057125
  10 H     1.0000    0     1.008    7.586587   -0.912074    2.767895
  11 H     1.0000    0     1.008    8.351590    1.388966    0.354947
  12 H     1.0000    0     1.008    8.174946   -1.909861   -0.442251
  13 H     1.0000    0     1.008    4.321687    3.482739    1.896750
  14 H     1.0000    0     1.008   -0.235590    3.706635    1.626347
  15 H     1.0000    0     1.008    0.463293    3.169095   -1.671223
  16 H     1.0000    0     1.008   -0.947291   -0.797610    2.357702
  17 H     1.0000    0     1.008   -0.310516   -3.680956   -2.113834
  18 H     1.0000    0     1.008    4.184545   -3.697701   -1.966721
  19 H     1.0000    0     1.008   -3.558069    0.218866   -2.775373
  20 H     1.0000    0     1.008   -7.047768    2.305689   -0.222765
  21 H     1.0000    0     1.008   -4.205474    4.106681   -0.361573
  22 H     1.0000    0     1.008   -4.959490    2.341620    2.475993
  23 H     1.0000    0     1.008   -7.126845   -2.190030   -0.794280
  24 H     1.0000    0     1.008   -5.261980   -2.668397    2.020023
  25 H     1.0000    0     1.008   -4.342927   -4.081725   -0.941743
* core charge reduced due to ECP

--------------------------------
INTERNAL COORDINATES (ANGSTROEM)
--------------------------------
 C      0   0   0     0.000000000000     0.00000000     0.00000000
 C      1   0   0     1.499856479783     0.00000000     0.00000000
 C      2   1   0     1.340967744052   120.31745117     0.00000000
 C      3   2   1     1.506378288565   120.61179952   177.20754001
 C      4   3   2     1.550317376608   111.18498799    35.85454212
 C      5   4   3     1.520525653557   109.07455850   312.44157170
 C      6   5   4     1.337802809774   120.83842490    35.13680763
 C      5   4   3     1.561758569629   113.01549278   187.96108435
 C      8   5   4     1.539779026915   112.55467189   313.89648092
 C      8   5   4     1.540723028749   111.21797320   191.92671833
 H      1   2   3     1.110132841007   109.48841119    77.00872442
 H      1   2   3     1.111067710760   110.40318323   316.78950939
 H      1   2   3     1.110481593203   110.81036610   197.06239468
 H      3   2   1     1.083765340902   120.37631316     0.36592150
 H      4   3   2     1.110553168911   108.03250543   157.27255290
 H      4   3   2     1.111811419028   108.53337204   275.01112254
 H      5   4   3     1.113390052740   107.10167902    68.51340881
 H      6   5   4     1.081206406562   120.96349469   212.71878295
 H      7   6   5     1.082982022223   119.40340364   175.47862968
 H      8   5   4     1.113067199905   108.81479136    72.94736572
 H      9   8   5     1.111139010811   110.58662712   186.15965115
 H      9   8   5     1.109914310051   110.73972114    68.07706579
 H      9   8   5     1.111233699597   110.59651712   306.62107453
 H     10   8   5     1.111089921470   110.29850757   179.84250683
 H     10   8   5     1.111248539175   110.54984690    59.75605467
 H     10   8   5     1.107775370104   111.65093062   298.58283131

---------------------------
INTERNAL COORDINATES (A.U.)
---------------------------
 C      0   0   0     0.000000000000     0.00000000     0.00000000
 C      1   0   0     2.834317986977     0.00000000     0.00000000
 C      2   1   0     2.534061790680   120.31745117     0.00000000
 C      3   2   1     2.846642419473   120.61179952   177.20754001
 C      4   3   2     2.929675262449   111.18498799    35.85454212
 C      5   4   3     2.873377064824   109.07455850   312.44157170
 C      6   5   4     2.528080931662   120.83842490    35.13680763
 C      5   4   3     2.951295983903   113.01549278   187.96108435
 C      8   5   4     2.909760667624   112.55467189   313.89648092
 C      8   5   4     2.911544572561   111.21797320   191.92671833
 H      1   2   3     2.097847041776   109.48841119    77.00872442
 H      1   2   3     2.099613689580   110.40318323   316.78950939
 H      1   2   3     2.098506087914   110.81036610   197.06239468
 H      3   2   1     2.048019687741   120.37631316     0.36592150
 H      4   3   2     2.098641346400   108.03250543   157.27255290
 H      4   3   2     2.101019094530   108.53337204   275.01112254
 H      5   4   3     2.104002279910   107.10167902    68.51340881
 H      6   5   4     2.043184002643   120.96349469   212.71878295
 H      7   6   5     2.046539429961   119.40340364   175.47862968
 H      8   5   4     2.103392176472   108.81479136    72.94736572
 H      9   8   5     2.099748427148   110.58662712   186.15965115
 H      9   8   5     2.097434078117   110.73972114    68.07706579
 H      9   8   5     2.099927363023   110.59651712   306.62107453
 H     10   8   5     2.099655661739   110.29850757   179.84250683
 H     10   8   5     2.099955405761   110.54984690    59.75605467
 H     10   8   5     2.093392067400   111.65093062   298.58283131

---------------------
BASIS SET INFORMATION
---------------------
There are 2 groups of distinct atoms

 Group   1 Type C   : 6s6p2d contracted to 2s2p1d pattern {42/42/2}
 Group   2 Type H   : 8s2p contracted to 2s1p pattern {53/2}

Atom   0C    basis set group =>   1
Atom   1C    basis set group =>   1
Atom   2C    basis set group =>   1
Atom   3C    basis set group =>   1
Atom   4C    basis set group =>   1
Atom   5C    basis set group =>   1
Atom   6C    basis set group =>   1
Atom   7C    basis set group =>   1
Atom   8C    basis set group =>   1
Atom   9C    basis set group =>   1
Atom  10H    basis set group =>   2
Atom  11H    basis set group =>   2
Atom  12H    basis set group =>   2
Atom  13H    basis set group =>   2
Atom  14H    basis set group =>   2
Atom  15H    basis set group =>   2
Atom  16H    basis set group =>   2
Atom  17H    basis set group =>   2
Atom  18H    basis set group =>   2
Atom  19H    basis set group =>   2
Atom  20H    basis set group =>   2
Atom  21H    basis set group =>   2
Atom  22H    basis set group =>   2
Atom  23H    basis set group =>   2
Atom  24H    basis set group =>   2
Atom  25H    basis set group =>   2
---------------------------------
AUXILIARY/J BASIS SET INFORMATION
---------------------------------
There are 2 groups of distinct atoms

 Group   1 Type C   : 12s5p4d2f1g contracted to 6s4p3d1f1g pattern {711111/2111/211/2/1}
 Group   2 Type H   : 5s2p1d contracted to 3s1p1d pattern {311/2/1}

Atom   0C    basis set group =>   1
Atom   1C    basis set group =>   1
Atom   2C    basis set group =>   1
Atom   3C    basis set group =>   1
Atom   4C    basis set group =>   1
Atom   5C    basis set group =>   1
Atom   6C    basis set group =>   1
Atom   7C    basis set group =>   1
Atom   8C    basis set group =>   1
Atom   9C    basis set group =>   1
Atom  10H    basis set group =>   2
Atom  11H    basis set group =>   2
Atom  12H    basis set group =>   2
Atom  13H    basis set group =>   2
Atom  14H    basis set group =>   2
Atom  15H    basis set group =>   2
Atom  16H    basis set group =>   2
Atom  17H    basis set group =>   2
Atom  18H    basis set group =>   2
Atom  19H    basis set group =>   2
Atom  20H    basis set group =>   2
Atom  21H    basis set group =>   2
Atom  22H    basis set group =>   2
Atom  23H    basis set group =>   2
Atom  24H    basis set group =>   2
Atom  25H    basis set group =>   2
-------------------------
ECP PARAMETER INFORMATION
-------------------------

 Group 1, Type C  ECP vDZP-ECP (replacing 2 core electrons, lmax=3)

Atom   0C    ECP group =>   1
Atom   1C    ECP group =>   1
Atom   2C    ECP group =>   1
Atom   3C    ECP group =>   1
Atom   4C    ECP group =>   1
Atom   5C    ECP group =>   1
Atom   6C    ECP group =>   1
Atom   7C    ECP group =>   1
Atom   8C    ECP group =>   1
Atom   9C    ECP group =>   1



           ************************************************************
           *        Program running with 40 parallel MPI-processes    *
           *              working on a common directory               *
           ************************************************************
------------------------------------------------------------------------------
                             ORCA STARTUP CALCULATIONS
                           -- RI-GTO INTEGRALS CHOSEN --
------------------------------------------------------------------------------
------------------------------------------------------------------------------
                   ___                                                        
                  /   \      - P O W E R E D   B Y -                         
                 /     \                                                     
                 |  |  |   _    _      __       _____    __    __             
                 |  |  |  | |  | |    /  \     |  _  \  |  |  /  |          
                  \  \/   | |  | |   /    \    | | | |  |  | /  /          
                 / \  \   | |__| |  /  /\  \   | |_| |  |  |/  /          
                |  |  |   |  __  | /  /__\  \  |    /   |      \           
                |  |  |   | |  | | |   __   |  |    \   |  |\   \          
                \     /   | |  | | |  |  |  |  | |\  \  |  | \   \       
                 \___/    |_|  |_| |__|  |__|  |_| \__\ |__|  \__/        
                                                                              
                      - O R C A' S   B I G   F R I E N D -                    
                                      &                                       
                       - I N T E G R A L  F E E D E R -                       
                                                                              
 v1 FN, 2020, v2 2021, v3 2022-2024                                           
------------------------------------------------------------------------------


----------------------
SHARK INTEGRAL PACKAGE
----------------------

Number of atoms                             ...     26
Number of basis functions                   ...    210
Number of shells                            ...     98
Maximum angular momentum                    ...      2
Integral batch strategy                     ... SHARK/LIBINT Hybrid
RI-J (if used) integral strategy            ... SPLIT-RIJ (Revised 2003 algorithm where possible)
Printlevel                                  ...      1
Contraction scheme used                     ... SEGMENTED contraction
Prescreening option                         ... SCHWARTZ
   Thresh                                   ... 2.500e-11
   Tcut                                     ... 2.500e-12
   Tpresel                                  ... 2.500e-12 
Coulomb Range Separation                    ... NOT USED
Exchange Range Separation                   ... Long Range
   Mu parameter                             ... 3.000e-01
   Scaling (regular/separated)              ... 1.670e-01 8.330e-01
Multipole approximations                    ... NOT USED
Finite Nucleus Model                        ... NOT USED
CABS basis                                  ... NOT available
Auxiliary Coulomb fitting basis             ... AVAILABLE
   # of basis functions in Aux-J            ...    666
   # of shells in Aux-J                     ...    230
   Maximum angular momentum in Aux-J        ...      4
Auxiliary J/K fitting basis                 ... NOT available
Auxiliary Correlation fitting basis         ... NOT available
Auxiliary 'external' fitting basis          ... NOT available

Checking pre-screening integrals            ... done (  0.0 sec) Dimension = 98
Check shell pair data                       ... done (  0.0 sec)
Shell pair information
Shell pair cut-off parameter TPreSel        ...   2.5e-12
Total number of shell pairs                 ...      4851
Shell pairs after pre-screening             ...      4821
Total number of primitive shell pairs       ...     45524
Primitive shell pairs kept                  ...     36432
          la=0 lb=0:   1372 shell pairs
          la=1 lb=0:   1858 shell pairs
          la=1 lb=1:    656 shell pairs
          la=2 lb=0:    520 shell pairs
          la=2 lb=1:    360 shell pairs
          la=2 lb=2:     55 shell pairs

Calculating one electron integrals          ... done (  0.0 sec)
Calculating ECP integrals                   ... done (  0.1 sec)
Calculating RI/J V-Matrix + Cholesky decomp.... done (  0.0 sec)
Calculating Nuclear repulsion               ... done (  0.0 sec) ENN=    282.662106934565 Eh

Diagonalization of the overlap matrix:
Smallest eigenvalue                        ... 8.147e-04
Time for diagonalization                   ...    0.006 sec
Threshold for overlap eigenvalues          ... 1.000e-07
Number of eigenvalues below threshold      ... 0
Time for construction of square roots      ...    0.004 sec
Total time needed                          ...    0.014 sec

-------------------
DFT GRID GENERATION
-------------------

General Integration Accuracy     IntAcc      ... 4.388
Radial Grid Type                 RadialGrid  ... OptM3 with GC (2021)
Angular Grid (max. ang.)         AngularGrid ... 4 (Lebedev-302)
Angular grid pruning method      GridPruning ... 4 (adaptive)
Weight generation scheme         WeightScheme... mBecke (2022)
Basis function cutoff            BFCut       ... 1.0000e-11
Integration weight cutoff        WCut        ... 1.0000e-14
Partially contracted basis set               ... off
Rotationally invariant grid construction     ... off
Angular grids for H and He will be reduced by one unit

Total number of grid points                  ...   110775
Total number of batches                      ...     1744
Average number of points per batch           ...       63
Average number of grid points per atom       ...     4261

--------------------
COSX GRID GENERATION
--------------------

GRIDX 1
-------
General Integration Accuracy     IntAcc      ... 3.816
Radial Grid Type                 RadialGrid  ... OptM3 with GC (2021)
Angular Grid (max. ang.)         AngularGrid ... 1 (Lebedev-50)
Angular grid pruning method      GridPruning ... 4 (adaptive)
Weight generation scheme         WeightScheme... mBecke (2022)
Basis function cutoff            BFCut       ... 1.0000e-11
Integration weight cutoff        WCut        ... 1.0000e-14
Partially contracted basis set               ... on
Rotationally invariant grid construction     ... off
Angular grids for H and He will be reduced by one unit

Total number of grid points                  ...    14202
Total number of batches                      ...      126
Average number of points per batch           ...      112
Average number of grid points per atom       ...      546
UseSFitting                                  ... on

GRIDX 2
-------
General Integration Accuracy     IntAcc      ... 4.020
Radial Grid Type                 RadialGrid  ... OptM3 with GC (2021)
Angular Grid (max. ang.)         AngularGrid ... 2 (Lebedev-110)
Angular grid pruning method      GridPruning ... 4 (adaptive)
Weight generation scheme         WeightScheme... mBecke (2022)
Basis function cutoff            BFCut       ... 1.0000e-11
Integration weight cutoff        WCut        ... 1.0000e-14
Partially contracted basis set               ... on
Rotationally invariant grid construction     ... off
Angular grids for H and He will be reduced by one unit

Total number of grid points                  ...    29629
Total number of batches                      ...      246
Average number of points per batch           ...      120
Average number of grid points per atom       ...     1140
UseSFitting                                  ... on

GRIDX 3
-------
General Integration Accuracy     IntAcc      ... 4.338
Radial Grid Type                 RadialGrid  ... OptM3 with GC (2021)
Angular Grid (max. ang.)         AngularGrid ... 3 (Lebedev-194)
Angular grid pruning method      GridPruning ... 4 (adaptive)
Weight generation scheme         WeightScheme... mBecke (2022)
Basis function cutoff            BFCut       ... 1.0000e-11
Integration weight cutoff        WCut        ... 1.0000e-14
Partially contracted basis set               ... on
Rotationally invariant grid construction     ... off
Angular grids for H and He will be reduced by one unit

Total number of grid points                  ...    64524
Total number of batches                      ...      516
Average number of points per batch           ...      125
Average number of grid points per atom       ...     2482
UseSFitting                                  ... on
Initializing property integral containers    ... done (  0.0 sec)

SHARK setup successfully completed in   3.5 seconds

Maximum memory used throughout the entire STARTUP-calculation: 31.6 MB


           ************************************************************
           *        Program running with 40 parallel MPI-processes    *
           *              working on a common directory               *
           ************************************************************
-------------------------------------------------------------------------------
                                 ORCA GUESS
                   Start orbitals & Density for SCF / CASSCF
-------------------------------------------------------------------------------

------------
SCF SETTINGS
------------
Hamiltonian:
 Density Functional     Method          .... DFT(GTOs)
 Exchange Functional    Exchange        .... WB97X-V
 Correlation Functional Correlation     .... WB97X-V
 Gradients option       PostSCFGGA      .... off
 Hybrid DFT is turned on
   Fraction HF Exchange ScalHFX         ....  0.167000
   Scaling of DF-GGA-X  ScalDFX         ....  0.000000
   Scaling of DF-GGA-C  ScalDFC         ....  1.000000
   Scaling of DF-LDA-C  ScalLDAC        ....  1.000000
   Perturbative correction              ....  0.000000
 Long-range corrected/Screened/Range-Separated Hybrid DFT is turned on
   Amount of maximum screened exact exchange              ....  0.833000
   Range separation parameter mu (erf(mu*r12)/r12)        ....  0.300000
   NL short-range parameter             ....  6.000000
   NL long-range parameter              ....  0.010000
 RI-approximation to the Coulomb term is turned on
   Number of AuxJ basis functions       .... 666
   RIJ-COSX (HFX calculated with COS-X)).... on


General Settings:
 Integral files         IntName         .... ./output/alpha_phellandrene/alpha_phellandrene
 Hartree-Fock type      HFTyp           .... RHF
 Total Charge           Charge          ....    0
 Multiplicity           Mult            ....    1
 Number of Electrons    NEL             ....   56
 Basis Dimension        Dim             ....  210
 Nuclear Repulsion      ENuc            ....    282.6621069346 Eh

Convergence Acceleration:
 AO-DIIS                CNVDIIS         .... on
   Start iteration      DIISMaxIt       ....    12
   Startup error        DIISStart       ....  0.200000
   # of expansion vecs  DIISMaxEq       ....     5
   Bias factor          DIISBfac        ....   1.050
   Max. coefficient     DIISMaxC        ....  10.000
 MO-DIIS                CNVKDIIS        .... off
 Trust-Rad. Augm. Hess. CNVTRAH         .... auto
   Auto Start mean grad. ratio tolernc. ....  1.125000
   Auto Start start iteration           ....    50
   Auto Start num. interpolation iter.  ....    10
   Max. Number of Micro iterations      ....    24
   Max. Number of Macro iterations      .... Maxiter - #DIIS iter
   Number of Davidson start vectors     ....     2
   Converg. threshold    (grad. norm)   ....   1.000e-05
   Grad. Scal. Fac. for Micro threshold ....   0.100
   Minimum threshold for Micro iter.    ....   1.000e-02
   NR start threshold (gradient norm)   ....   1.000e-04
   Initial trust radius                 ....   0.400
   Minimum AH scaling param. (alpha)    ....   1.000
   Maximum AH scaling param. (alpha)    .... 1000.000
   Quad. conv. algorithm                .... NR
   White noise on init. David. guess    .... on
   Maximum white noise                  ....   0.010
   Pseudo random numbers                .... off
   Inactive MOs                         .... canonical
   Orbital update algorithm             .... Taylor
   Preconditioner                       .... Diag
   Full preconditioner red. dimension   ....   250
 SOSCF                  CNVSOSCF        .... on
   Start iteration      SOSCFMaxIt      ....   150
   Startup grad/error   SOSCFStart      ....  0.003300
   Hessian update       SOSCFHessUp     .... L-BFGS
 Level Shifting         CNVShift        .... on
   Level shift para.    LevelShift      ....    0.2500
   Turn off err/grad.   ShiftErr        ....    0.0010
 Zerner damping         CNVZerner       .... off
 Static damping         CNVDamp         .... on
   Fraction old density DampFac         ....    0.7000
   Max. Damping (<1)    DampMax         ....    0.9800
   Min. Damping (>=0)   DampMin         ....    0.0000
   Turn off err/grad.   DampErr         ....    0.1000

SCF Procedure:
 Maximum # iterations   MaxIter         ....   125
 SCF integral mode      SCFMode         .... Direct
   Integral package                     .... SHARK and LIBINT hybrid scheme
 Reset frequency        DirectResetFreq ....    20
 Integral Threshold     Thresh          ....  2.500e-11 Eh
 Primitive CutOff       TCut            ....  2.500e-12 Eh

Convergence Tolerance:
 Convergence Check Mode ConvCheckMode   .... Total+1el-Energy
 Convergence forced     ConvForced      .... 0
 Energy Change          TolE            ....  1.000e-08 Eh
 1-El. energy change                    ....  1.000e-05 Eh
 Orbital Gradient       TolG            ....  1.000e-05
 Orbital Rotation angle TolX            ....  1.000e-05
 DIIS Error             TolErr          ....  5.000e-07

------------------------------
INITIAL GUESS: MODEL POTENTIAL
------------------------------
Loading Hartree-Fock densities                     ... done
Atomic calculation to generate a density for atom 0 (C  with ECP)
  Multiplicity assumed   :    1
  Atomic configuration   : 1s2 2s2 2p2 
  Number of open shells  : 1
  Command: /home/aspe232/Project/Software/ORCA/6_0_1/build/orca ./output/alpha_phellandrene/alpha_phellandrene_atom6.inp "" > ./output/alpha_phellandrene/alpha_phellandrene_atom6.out
Returned from the atomic calculation with res=0
Calculating cut-offs                               ... done
Initializing the effective Hamiltonian             ... done
Setting up the integral package (SHARK)            ... done
Starting the Coulomb interaction                   ... done (   0.0 sec)
Making the grid                                    ... done (   0.8 sec)
Mapping shells                                     ... done
Starting the XC term evaluation                    ... done (   0.0 sec)
  promolecular density results
     # of electrons  =     75.995669984
     EX              =    -36.896307868
     EC              =     -3.022333849
     EX+EC           =    -39.918641718
Transforming the Hamiltonian                       ... done (   0.0 sec)
Diagonalizing the Hamiltonian                      ... done (   0.0 sec)
Back transforming the eigenvectors                 ... done (   0.0 sec)
Now organizing SCF variables                       ... done
                      ------------------
                      INITIAL GUESS DONE (   1.6 sec)
                      ------------------
             **** ENERGY FILE WAS UPDATED (./output/alpha_phellandrene/alpha_phellandrene.en.tmp) ****
Finished Guess after   2.1 sec
Maximum memory used throughout the entire GUESS-calculation: 19.7 MB


           ************************************************************
           *        Program running with 40 parallel MPI-processes    *
           *              working on a common directory               *
           ************************************************************

-------------------------------------------------------------------------------------------
                                      ORCA LEAN-SCF
                              memory conserving SCF solver
-------------------------------------------------------------------------------------------

----------------------------------------D-I-I-S--------------------------------------------
Iteration    Energy (Eh)           Delta-E    RMSDP     MaxDP     DIISErr   Damp  Time(sec)
-------------------------------------------------------------------------------------------
               ***  Starting incremental Fock matrix formation  ***
    1    -66.1228174179139501     0.00e+00  4.11e-03  7.37e-02  1.81e-01  0.700   4.4
    2    -66.3006280359516609    -1.78e-01  3.03e-03  5.29e-02  1.12e-01  0.700   3.4
                               ***Turning on AO-DIIS***
    3    -66.3949291849207270    -9.43e-02  1.57e-03  2.90e-02  6.01e-02  0.700   3.0
    4    -66.4504815115417955    -5.56e-02  3.36e-03  5.92e-02  3.83e-02  0.000   3.1
    5    -66.5666851850952526    -1.16e-01  2.36e-04  3.53e-03  4.01e-03  0.000   3.3
                              *** Initializing SOSCF ***
---------------------------------------S-O-S-C-F--------------------------------------
Iteration    Energy (Eh)           Delta-E    RMSDP     MaxDP     MaxGrad    Time(sec)
--------------------------------------------------------------------------------------
    6    -66.5669635616041546    -2.78e-04  1.09e-04  1.62e-03  1.11e-03     3.0
               *** Restarting incremental Fock matrix formation ***
    7    -66.5669872021434230    -2.36e-05  6.00e-05  7.97e-04  5.61e-04     4.5
    8    -66.5669964053001877    -9.20e-06  3.63e-05  5.84e-04  2.04e-04     3.9
    9    -66.5669987923475333    -2.39e-06  9.46e-06  1.21e-04  5.55e-05     3.6
   10    -66.5669989373373596    -1.45e-07  3.84e-06  6.14e-05  2.28e-05     3.5
   11    -66.5669989549252819    -1.76e-08  1.08e-06  1.84e-05  1.10e-05     3.9
   12    -66.5669989721833417    -1.73e-08  3.35e-07  6.41e-06  2.17e-06     3.2
                  *** Gradient check signals convergence ***

               *****************************************************
               *                     SUCCESS                       *
               *           SCF CONVERGED AFTER  12 CYCLES          *
               *****************************************************

Recomputing exchange energy using gridx3       ... done (    3.520 sec)
Old exchange energy                            :    -10.579309827 Eh
New exchange energy                            :    -10.579263479 Eh
Exchange energy change after final integration :      0.000046348 Eh
Total energy after final integration           :    -66.566952624 Eh
             **** ENERGY FILE WAS UPDATED (./output/alpha_phellandrene/alpha_phellandrene.en.tmp) ****

----------------
TOTAL SCF ENERGY
----------------

Total Energy       :        -66.56695262376064 Eh           -1811.37887 eV

Components:
Nuclear Repulsion  :        282.66210693456475 Eh            7691.62696 eV
Electronic Energy  :       -349.22910590674809 Eh           -9503.00710 eV
One Electron Energy:       -657.78988401633273 Eh          -17899.37273 eV
Two Electron Energy:        308.56077810958465 Eh            8396.36564 eV

Virial components:
Potential Energy   :       -118.46416719180965 Eh           -3223.57387 eV
Kinetic Energy     :         51.89721456804900 Eh            1412.19500 eV
Virial Ratio       :          2.28266908306758

DFT components:
N(Alpha)           :       28.000044613029 electrons
N(Beta)            :       28.000044613029 electrons
N(Total)           :       56.000089226059 electrons
E(X)               :      -10.704635690556 Eh       
E(C)               :       -2.076834981808 Eh       
E(XC)              :      -12.781470672364 Eh       

---------------
SCF CONVERGENCE
---------------

  Last Energy change         ...    1.7258e-08  Tolerance :   1.0000e-08
  Last MAX-Density change    ...    6.4102e-06  Tolerance :   1.0000e-07
  Last RMS-Density change    ...    3.3521e-07  Tolerance :   5.0000e-09
  Last DIIS Error            ...    1.1077e-03  Tolerance :   5.0000e-07
  Last Orbital Gradient      ...    2.1702e-06  Tolerance :   1.0000e-05
  Last Orbital Rotation      ...    6.0309e-06  Tolerance :   1.0000e-05


----------------
ORBITAL ENERGIES
----------------

  NO   OCC          E(Eh)            E(eV) 
   0   2.0000      -0.988799       -26.9066 
   1   2.0000      -0.939889       -25.5757 
   2   2.0000      -0.885656       -24.0999 
   3   2.0000      -0.875785       -23.8313 
   4   2.0000      -0.811347       -22.0779 
   5   2.0000      -0.806958       -21.9584 
   6   2.0000      -0.738908       -20.1067 
   7   2.0000      -0.709862       -19.3163 
   8   2.0000      -0.683304       -18.5937 
   9   2.0000      -0.623574       -16.9683 
  10   2.0000      -0.593476       -16.1493 
  11   2.0000      -0.562388       -15.3034 
  12   2.0000      -0.552661       -15.0387 
  13   2.0000      -0.545348       -14.8397 
  14   2.0000      -0.531629       -14.4664 
  15   2.0000      -0.520799       -14.1716 
  16   2.0000      -0.517717       -14.0878 
  17   2.0000      -0.504191       -13.7197 
  18   2.0000      -0.494589       -13.4584 
  19   2.0000      -0.471924       -12.8417 
  20   2.0000      -0.470336       -12.7985 
  21   2.0000      -0.454933       -12.3793 
  22   2.0000      -0.445340       -12.1183 
  23   2.0000      -0.428931       -11.6718 
  24   2.0000      -0.418268       -11.3817 
  25   2.0000      -0.405346       -11.0300 
  26   2.0000      -0.393476       -10.7070 
  27   2.0000      -0.302704        -8.2370 
  28   0.0000       0.050792         1.3821 
  29   0.0000       0.089758         2.4424 
  30   0.0000       0.096146         2.6163 
  31   0.0000       0.099362         2.7038 
  32   0.0000       0.105465         2.8698 
  33   0.0000       0.117290         3.1916 
  34   0.0000       0.122390         3.3304 
  35   0.0000       0.126655         3.4465 
  36   0.0000       0.144226         3.9246 
  37   0.0000       0.150770         4.1026 
  38   0.0000       0.163275         4.4429 
*Only the first 10 virtual orbitals were printed.

                    ********************************
                    * MULLIKEN POPULATION ANALYSIS *
                    ********************************

-----------------------
MULLIKEN ATOMIC CHARGES
-----------------------
   0 C :   -0.093777
   1 C :   -0.094703
   2 C :   -0.000755
   3 C :   -0.068572
   4 C :   -0.097868
   5 C :    0.044612
   6 C :   -0.032120
   7 C :   -0.103342
   8 C :   -0.075588
   9 C :   -0.068377
  10 H :    0.058306
  11 H :    0.048539
  12 H :    0.035838
  13 H :    0.012208
  14 H :    0.052800
  15 H :    0.052045
  16 H :    0.054400
  17 H :    0.007269
  18 H :    0.013967
  19 H :    0.042795
  20 H :    0.036420
  21 H :    0.037344
  22 H :    0.035785
  23 H :    0.037074
  24 H :    0.036627
  25 H :    0.029073
Sum of atomic charges:    0.0000000

--------------------------------
MULLIKEN REDUCED ORBITAL CHARGES
--------------------------------
  0 C s       :     0.957513  s :     0.957513
      pz      :     1.046014  p :     3.062071
      px      :     0.965306
      py      :     1.050751
      dz2     :     0.015853  d :     0.074193
      dxz     :     0.014159
      dyz     :     0.010346
      dx2y2   :     0.014033
      dxy     :     0.019802

  1 C s       :     1.059186  s :     1.059186
      pz      :     0.975464  p :     2.913894
      px      :     0.926496
      py      :     1.011934
      dz2     :     0.013746  d :     0.121623
      dxz     :     0.021903
      dyz     :     0.018671
      dx2y2   :     0.034548
      dxy     :     0.032755

  2 C s       :     1.020536  s :     1.020536
      pz      :     0.970262  p :     2.887973
      px      :     0.923065
      py      :     0.994646
      dz2     :     0.007090  d :     0.092246
      dxz     :     0.017346
      dyz     :     0.015366
      dx2y2   :     0.025003
      dxy     :     0.027440

  3 C s       :     0.991212  s :     0.991212
      pz      :     1.050488  p :     2.976838
      px      :     0.958698
      py      :     0.967652
      dz2     :     0.017144  d :     0.100523
      dxz     :     0.016051
      dyz     :     0.022552
      dx2y2   :     0.022412
      dxy     :     0.022363

  4 C s       :     1.046066  s :     1.046066
      pz      :     1.038671  p :     2.930411
      px      :     0.933106
      py      :     0.958634
      dz2     :     0.028494  d :     0.121391
      dxz     :     0.017194
      dyz     :     0.020405
      dx2y2   :     0.026378
      dxy     :     0.028921

  5 C s       :     1.014959  s :     1.014959
      pz      :     0.943624  p :     2.847863
      px      :     0.963820
      py      :     0.940418
      dz2     :     0.008366  d :     0.092566
      dxz     :     0.025952
      dyz     :     0.009138
      dx2y2   :     0.019582
      dxy     :     0.029529

  6 C s       :     1.003921  s :     1.003921
      pz      :     0.973724  p :     2.934253
      px      :     0.990873
      py      :     0.969656
      dz2     :     0.008327  d :     0.093946
      dxz     :     0.023108
      dyz     :     0.010422
      dx2y2   :     0.019526
      dxy     :     0.032563

  7 C s       :     1.061039  s :     1.061039
      pz      :     1.037843  p :     2.919633
      px      :     0.919230
      py      :     0.962559
      dz2     :     0.032845  d :     0.122670
      dxz     :     0.015620
      dyz     :     0.015977
      dx2y2   :     0.028587
      dxy     :     0.029641

  8 C s       :     0.963161  s :     0.963161
      pz      :     1.027502  p :     3.038382
      px      :     1.025927
      py      :     0.984953
      dz2     :     0.023241  d :     0.074045
      dxz     :     0.006541
      dyz     :     0.009826
      dx2y2   :     0.021351
      dxy     :     0.013086

  9 C s       :     0.963724  s :     0.963724
      pz      :     1.035484  p :     3.030776
      px      :     1.013808
      py      :     0.981485
      dz2     :     0.019736  d :     0.073877
      dxz     :     0.008101
      dyz     :     0.012191
      dx2y2   :     0.020225
      dxy     :     0.013624

 10 H s       :     0.897711  s :     0.897711
      pz      :     0.022639  p :     0.043983
      px      :     0.010441
      py      :     0.010902

 11 H s       :     0.907574  s :     0.907574
      pz      :     0.010753  p :     0.043888
      px      :     0.013467
      py      :     0.019667

 12 H s       :     0.920025  s :     0.920025
      pz      :     0.014460  p :     0.044137
      px      :     0.012601
      py      :     0.017076

 13 H s       :     0.938368  s :     0.938368
      pz      :     0.016872  p :     0.049424
      px      :     0.013729
      py      :     0.018823

 14 H s       :     0.903756  s :     0.903756
      pz      :     0.015478  p :     0.043444
      px      :     0.012747
      py      :     0.015219

 15 H s       :     0.906291  s :     0.906291
      pz      :     0.021724  p :     0.041665
      px      :     0.009291
      py      :     0.010650

 16 H s       :     0.906550  s :     0.906550
      pz      :     0.021846  p :     0.039049
      px      :     0.007661
      py      :     0.009543

 17 H s       :     0.942049  s :     0.942049
      pz      :     0.016972  p :     0.050682
      px      :     0.014158
      py      :     0.019551

 18 H s       :     0.936241  s :     0.936241
      pz      :     0.016541  p :     0.049792
      px      :     0.013300
      py      :     0.019951

 19 H s       :     0.917972  s :     0.917972
      pz      :     0.022107  p :     0.039233
      px      :     0.008273
      py      :     0.008853

 20 H s       :     0.920093  s :     0.920093
      pz      :     0.010927  p :     0.043487
      px      :     0.022442
      py      :     0.010118

 21 H s       :     0.918455  s :     0.918455
      pz      :     0.011604  p :     0.044201
      px      :     0.012595
      py      :     0.020002

 22 H s       :     0.921426  s :     0.921426
      pz      :     0.023529  p :     0.042789
      px      :     0.009661
      py      :     0.009599

 23 H s       :     0.919575  s :     0.919575
      pz      :     0.011511  p :     0.043352
      px      :     0.021790
      py      :     0.010051

 24 H s       :     0.920590  s :     0.920590
      pz      :     0.023225  p :     0.042783
      px      :     0.009754
      py      :     0.009804

 25 H s       :     0.926191  s :     0.926191
      pz      :     0.012448  p :     0.044736
      px      :     0.012791
      py      :     0.019498



                     *******************************
                     * LOEWDIN POPULATION ANALYSIS *
                     *******************************

----------------------
LOEWDIN ATOMIC CHARGES
----------------------
   0 C :   -0.117193
   1 C :   -0.061147
   2 C :   -0.039427
   3 C :   -0.082449
   4 C :   -0.060169
   5 C :   -0.023159
   6 C :   -0.050473
   7 C :   -0.077021
   8 C :   -0.118672
   9 C :   -0.117242
  10 H :    0.054281
  11 H :    0.055016
  12 H :    0.050118
  13 H :    0.036054
  14 H :    0.051591
  15 H :    0.051509
  16 H :    0.052588
  17 H :    0.035163
  18 H :    0.040920
  19 H :    0.046457
  20 H :    0.047709
  21 H :    0.045197
  22 H :    0.045454
  23 H :    0.047619
  24 H :    0.046025
  25 H :    0.041250

-------------------------------
LOEWDIN REDUCED ORBITAL CHARGES
-------------------------------
  0 C s       :     0.776758  s :     0.776758
      pz      :     1.061912  p :     3.102016
      px      :     0.978686
      py      :     1.061418
      dz2     :     0.052181  d :     0.238419
      dxz     :     0.044003
      dyz     :     0.032383
      dx2y2   :     0.041770
      dxy     :     0.068082

  1 C s       :     0.789080  s :     0.789080
      pz      :     0.906073  p :     2.889878
      px      :     0.970392
      py      :     1.013413
      dz2     :     0.042758  d :     0.382189
      dxz     :     0.064957
      dyz     :     0.059315
      dx2y2   :     0.108378
      dxy     :     0.106781

  2 C s       :     0.804243  s :     0.804243
      pz      :     0.929529  p :     2.935716
      px      :     0.978922
      py      :     1.027264
      dz2     :     0.022917  d :     0.299468
      dxz     :     0.054026
      dyz     :     0.047541
      dx2y2   :     0.079647
      dxy     :     0.095336

  3 C s       :     0.762380  s :     0.762380
      pz      :     1.052951  p :     3.004090
      px      :     0.967368
      py      :     0.983771
      dz2     :     0.053098  d :     0.315979
      dxz     :     0.048350
      dyz     :     0.074566
      dx2y2   :     0.067580
      dxy     :     0.072385

  4 C s       :     0.758941  s :     0.758941
      pz      :     1.026511  p :     2.930060
      px      :     0.942516
      py      :     0.961032
      dz2     :     0.087881  d :     0.371169
      dxz     :     0.051634
      dyz     :     0.063253
      dx2y2   :     0.082471
      dxy     :     0.085930

  5 C s       :     0.808048  s :     0.808048
      pz      :     0.912349  p :     2.916311
      px      :     1.045008
      py      :     0.958955
      dz2     :     0.031290  d :     0.298800
      dxz     :     0.073778
      dyz     :     0.029769
      dx2y2   :     0.067540
      dxy     :     0.096422

  6 C s       :     0.802781  s :     0.802781
      pz      :     0.925993  p :     2.946541
      px      :     1.047745
      py      :     0.972802
      dz2     :     0.027744  d :     0.301151
      dxz     :     0.068220
      dyz     :     0.032548
      dx2y2   :     0.067432
      dxy     :     0.105207

  7 C s       :     0.762928  s :     0.762928
      pz      :     1.033040  p :     2.934487
      px      :     0.946628
      py      :     0.954819
      dz2     :     0.103284  d :     0.379605
      dxz     :     0.048729
      dyz     :     0.049913
      dx2y2   :     0.089311
      dxy     :     0.088367

  8 C s       :     0.779315  s :     0.779315
      pz      :     1.049630  p :     3.095730
      px      :     1.039523
      py      :     1.006578
      dz2     :     0.077041  d :     0.243626
      dxz     :     0.020940
      dyz     :     0.032343
      dx2y2   :     0.071447
      dxy     :     0.041856

  9 C s       :     0.779987  s :     0.779987
      pz      :     1.057830  p :     3.094313
      px      :     1.033274
      py      :     1.003209
      dz2     :     0.064530  d :     0.242943
      dxz     :     0.026315
      dyz     :     0.040749
      dx2y2   :     0.067968
      dxy     :     0.043381

 10 H s       :     0.798286  s :     0.798286
      pz      :     0.064736  p :     0.147433
      px      :     0.040526
      py      :     0.042171

 11 H s       :     0.800698  s :     0.800698
      pz      :     0.041155  p :     0.144286
      px      :     0.044081
      py      :     0.059050

 12 H s       :     0.805185  s :     0.805185
      pz      :     0.048647  p :     0.144697
      px      :     0.041699
      py      :     0.054350

 13 H s       :     0.810355  s :     0.810355
      pz      :     0.052226  p :     0.153590
      px      :     0.045664
      py      :     0.055701

 14 H s       :     0.801502  s :     0.801502
      pz      :     0.050841  p :     0.146907
      px      :     0.044848
      py      :     0.051218

 15 H s       :     0.801073  s :     0.801073
      pz      :     0.065634  p :     0.147418
      px      :     0.038926
      py      :     0.042859

 16 H s       :     0.798157  s :     0.798157
      pz      :     0.071213  p :     0.149254
      px      :     0.036061
      py      :     0.041980

 17 H s       :     0.807598  s :     0.807598
      pz      :     0.052563  p :     0.157239
      px      :     0.044735
      py      :     0.059941

 18 H s       :     0.807192  s :     0.807192
      pz      :     0.050851  p :     0.151888
      px      :     0.043175
      py      :     0.057862

 19 H s       :     0.805789  s :     0.805789
      pz      :     0.071529  p :     0.147755
      px      :     0.036793
      py      :     0.039433

 20 H s       :     0.806806  s :     0.806806
      pz      :     0.041772  p :     0.145485
      px      :     0.064748
      py      :     0.038964

 21 H s       :     0.806763  s :     0.806763
      pz      :     0.042908  p :     0.148040
      px      :     0.045733
      py      :     0.059400

 22 H s       :     0.809508  s :     0.809508
      pz      :     0.067209  p :     0.145037
      px      :     0.039194
      py      :     0.038635

 23 H s       :     0.806725  s :     0.806725
      pz      :     0.043156  p :     0.145656
      px      :     0.063592
      py      :     0.038909

 24 H s       :     0.808673  s :     0.808673
      pz      :     0.066624  p :     0.145302
      px      :     0.039539
      py      :     0.039139

 25 H s       :     0.808917  s :     0.808917
      pz      :     0.045218  p :     0.149832
      px      :     0.046451
      py      :     0.058164



                      *****************************
                      * MAYER POPULATION ANALYSIS *
                      *****************************

  NA   - Mulliken gross atomic population
  ZA   - Total nuclear charge
  QA   - Mulliken gross atomic charge
  VA   - Mayer's total valence
  BVA  - Mayer's bonded valence
  FA   - Mayer's free valence

  ATOM       NA         ZA         QA         VA         BVA        FA
  0 C      4.0938     4.0000    -0.0938     3.9728     3.9728     0.0000
  1 C      4.0947     4.0000    -0.0947     4.1419     4.1419     0.0000
  2 C      4.0008     4.0000    -0.0008     3.9968     3.9968     0.0000
  3 C      4.0686     4.0000    -0.0686     3.9916     3.9916     0.0000
  4 C      4.0979     4.0000    -0.0979     3.9809     3.9809     0.0000
  5 C      3.9554     4.0000     0.0446     3.9840     3.9840     0.0000
  6 C      4.0321     4.0000    -0.0321     4.0726     4.0726     0.0000
  7 C      4.1033     4.0000    -0.1033     4.0209     4.0209     0.0000
  8 C      4.0756     4.0000    -0.0756     3.9687     3.9687     0.0000
  9 C      4.0684     4.0000    -0.0684     3.9612     3.9612     0.0000
 10 H      0.9417     1.0000     0.0583     1.0186     1.0186     0.0000
 11 H      0.9515     1.0000     0.0485     1.0269     1.0269    -0.0000
 12 H      0.9642     1.0000     0.0358     1.0310     1.0310     0.0000
 13 H      0.9878     1.0000     0.0122     1.0438     1.0438     0.0000
 14 H      0.9472     1.0000     0.0528     0.9994     0.9994     0.0000
 15 H      0.9480     1.0000     0.0520     1.0227     1.0227     0.0000
 16 H      0.9456     1.0000     0.0544     1.0149     1.0149     0.0000
 17 H      0.9927     1.0000     0.0073     1.0410     1.0410     0.0000
 18 H      0.9860     1.0000     0.0140     1.0408     1.0408     0.0000
 19 H      0.9572     1.0000     0.0428     1.0141     1.0141     0.0000
 20 H      0.9636     1.0000     0.0364     1.0272     1.0272     0.0000
 21 H      0.9627     1.0000     0.0373     1.0224     1.0224    -0.0000
 22 H      0.9642     1.0000     0.0358     1.0274     1.0274     0.0000
 23 H      0.9629     1.0000     0.0371     1.0248     1.0248    -0.0000
 24 H      0.9634     1.0000     0.0366     1.0282     1.0282     0.0000
 25 H      0.9709     1.0000     0.0291     1.0285     1.0285     0.0000

  Mayer bond orders larger than 0.100000
B(  0-C ,  1-C ) :   1.0161 B(  0-C , 10-H ) :   0.9799 B(  0-C , 11-H ) :   0.9897 
B(  0-C , 12-H ) :   0.9930 B(  1-C ,  2-C ) :   1.8529 B(  1-C ,  6-C ) :   1.1224 
B(  2-C ,  3-C ) :   1.0261 B(  2-C , 13-H ) :   0.9901 B(  3-C ,  4-C ) :   0.9818 
B(  3-C , 14-H ) :   0.9979 B(  3-C , 15-H ) :   0.9720 B(  4-C ,  5-C ) :   1.0151 
B(  4-C ,  7-C ) :   0.9809 B(  4-C , 16-H ) :   0.9717 B(  5-C ,  6-C ) :   1.8637 
B(  5-C , 17-H ) :   0.9941 B(  6-C , 18-H ) :   0.9881 B(  7-C ,  8-C ) :   0.9977 
B(  7-C ,  9-C ) :   0.9983 B(  7-C , 19-H ) :   0.9935 B(  8-C , 20-H ) :   0.9984 
B(  8-C , 21-H ) :   0.9984 B(  8-C , 22-H ) :   0.9915 B(  9-C , 23-H ) :   0.9976 
B(  9-C , 24-H ) :   0.9924 B(  9-C , 25-H ) :   1.0000 

-------
TIMINGS
-------

Total SCF time: 0 days 0 hours 0 min 50 sec 

Total time                  ....      50.608 sec
Sum of individual times     ....      48.651 sec  ( 96.1%)

SCF preparation             ....       2.298 sec  (  4.5%)
Fock matrix formation       ....      45.158 sec  ( 89.2%)
  Startup                   ....       0.168 sec  (  0.4% of F)
  Split-RI-J                ....       1.418 sec  (  3.1% of F)
  Chain of spheres X        ....      20.415 sec  ( 45.2% of F)
  XC integration            ....      22.577 sec  ( 50.0% of F)
    XC Preparation          ....       0.000 sec  (  0.0% of XC)
    Basis function eval.    ....       0.519 sec  (  2.3% of XC)
    Density eval.           ....       0.219 sec  (  1.0% of XC)
    XC-Functional eval.     ....       0.166 sec  (  0.7% of XC)
    XC-Potential eval.      ....       0.288 sec  (  1.3% of XC)
Diagonalization             ....       0.000 sec  (  0.0%)
Density matrix formation    ....       0.316 sec  (  0.6%)
Total Energy calculation    ....       0.166 sec  (  0.3%)
Population analysis         ....       0.085 sec  (  0.2%)
Orbital Transformation      ....       0.055 sec  (  0.1%)
Orbital Orthonormalization  ....       0.000 sec  (  0.0%)
DIIS solution               ....       0.375 sec  (  0.7%)
SOSCF solution              ....       0.197 sec  (  0.4%)
Finished LeanSCF after  50.7 sec

Maximum memory used throughout the entire LEANSCF-calculation: 38.6 MB


           ************************************************************
           *        Program running with 40 parallel MPI-processes    *
           *              working on a common directory               *
           ************************************************************

------------------------------------------------------------------------------
                         ORCA PROPERTY INTEGRAL CALCULATIONS
------------------------------------------------------------------------------

GBWName                                   ... ./output/alpha_phellandrene/alpha_phellandrene.gbw
Number of atoms                           ...     26
Number of basis functions                 ...    210
Max core memory                           ...   1024 MB

Dipole integrals                          ... YES
Quadrupole integrals                      ...  NO
Linear momentum integrals                 ...  NO
Angular momentum integrals                ...  NO
Higher moments length integrals           ...  NO
Higher moments velocity integrals         ...  NO
Kinetic energy integrals                  ...  NO
GIAO right hand sides                     ...  NO
GIAO dipole derivative integrals          ...  NO
SOC integrals                             ...  NO
EPR diamagnetic integrals (GIAO)          ...  NO
EPR gauge integrals                       ...  NO
Field gradient integrals                  ...  NO (   0 nuclei)
Spin-dipole/Fermi contact integrals       ...  NO (   0 nuclei)
Contact density integrals                 ...  NO (   0 nuclei)
Nucleus-orbit integrals                   ...  NO (   0 nuclei)
Geometric perturbations                   ...  NO (  26 nuclei)

Choice of electric origin   ... Center of mass
Position of electric origin ... (  0.3968, -0.0632,  0.0123) 
Choice of magnetic origin   ... GIAO
Position of magnetic origin ... (  0.0000,  0.0000,  0.0000) 

Calculating integrals                     ... Electric Dipole (Length)     done (  0.0 sec)

Property integrals calculated in   0.0 sec

Maximum memory used throughout the entire PROPINT-calculation: 16.6 MB


-------------------------------------------------------------------------------
                          DFT DISPERSION CORRECTION                            
                                                                               
                                DFTD4 V3.4.0                                   
-------------------------------------------------------------------------------
The wB97X-3c composite method is recognized
Using three-body term ABC
Active option DFTDOPT                   ...         5   

-------------------------   ----------------
Dispersion correction           -0.029975219
-------------------------   ----------------


-------------------------   --------------------
FINAL SINGLE POINT ENERGY       -66.596927842394
-------------------------   --------------------



           ************************************************************
           *        Program running with 40 parallel MPI-processes    *
           *              working on a common directory               *
           ************************************************************
------------------------------------------------------------------------------
                         ORCA SCF GRADIENT CALCULATION
------------------------------------------------------------------------------

Nuc. rep. gradient        (SHARK) ... done (  0.0 sec)
HCore & Overlap gradient  (SHARK) ... done (  0.1 sec)
ECP gradient              (SHARK) ... done (  0.4 sec)
Split-RIJ-J gradient      (SHARK) ... done (  0.4 sec)
COSX-gradient                     ... done (  5.6 sec)
XC gradient                       ... done (  1.7 sec)
[...]
 20:    604.71   0.000009    0.04  0.000004  (-0.000291 -0.001820  0.001016)
 21:    608.53   0.001189    6.01  0.000609  (-0.001857 -0.013487  0.020595)
 22:    700.89   0.000884    4.47  0.000393  (-0.007535  0.000634 -0.018336)
 23:    759.65   0.004837   24.44  0.001987  ( 0.000140 -0.027577  0.035022)
 24:    826.51   0.000365    1.84  0.000138  ( 0.001328  0.009977 -0.006034)
 25:    838.79   0.003236   16.35  0.001204  ( 0.010437  0.012472 -0.030648)
 26:    905.02   0.000186    0.94  0.000064  ( 0.002381  0.001027  0.007578)
 27:    950.83   0.000280    1.41  0.000092  (-0.005429  0.007888 -0.000219)
 28:    968.03   0.002850   14.40  0.000919  (-0.028548 -0.007735 -0.006628)
 29:    976.29   0.000036    0.18  0.000012  ( 0.001982 -0.002642  0.000825)
 30:    993.78   0.000301    1.52  0.000094  ( 0.002783  0.009154  0.001707)
 31:   1009.01   0.000642    3.25  0.000199  (-0.012928 -0.004487 -0.003381)
 32:   1012.20   0.000199    1.00  0.000061  (-0.003710 -0.004131 -0.005518)
 33:   1068.67   0.000600    3.03  0.000175  (-0.000699 -0.012515 -0.004256)
 34:   1082.06   0.000580    2.93  0.000167  ( 0.002307 -0.012149 -0.003780)
 35:   1091.31   0.000764    3.86  0.000218  (-0.004060 -0.007636  0.011982)
 36:   1146.31   0.000499    2.52  0.000136  ( 0.010668 -0.004604  0.000865)
 37:   1171.47   0.000188    0.95  0.000050  (-0.002987  0.004399  0.004673)
 38:   1194.19   0.000328    1.66  0.000086  ( 0.007360 -0.002977  0.004754)
 39:   1217.42   0.000753    3.80  0.000193  ( 0.013790  0.001605  0.000435)
 40:   1225.93   0.001695    8.57  0.000431  ( 0.020629 -0.001622  0.001814)
 41:   1239.83   0.000050    0.25  0.000012  ( 0.001002 -0.000523 -0.003345)
 42:   1266.30   0.001091    5.51  0.000269  ( 0.007105 -0.013393 -0.006249)
 43:   1304.87   0.000554    2.80  0.000132  (-0.011359 -0.001547 -0.001003)
 44:   1358.17   0.000411    2.08  0.000094  ( 0.009317  0.001267  0.002464)
 45:   1375.80   0.000385    1.95  0.000087  ( 0.009226 -0.001399  0.000589)
 46:   1389.85   0.000664    3.35  0.000149  (-0.011067 -0.004936  0.001467)
 47:   1410.15   0.000131    0.66  0.000029  ( 0.000972  0.005022 -0.001662)
 48:   1428.12   0.000055    0.28  0.000012  ( 0.002067 -0.002767 -0.000097)
 49:   1442.08   0.003320   16.78  0.000718  (-0.002242 -0.026414 -0.003964)
 50:   1449.23   0.000310    1.57  0.000067  ( 0.003669 -0.003487  0.006421)
 51:   1454.19   0.003367   17.02  0.000723  ( 0.024921  0.003173 -0.009562)
 52:   1477.63   0.000797    4.03  0.000168  ( 0.010463  0.002634  0.007202)
 53:   1506.41   0.001389    7.02  0.000288  ( 0.005096 -0.015552  0.004457)
 54:   1510.44   0.001875    9.47  0.000387  ( 0.003092  0.007928 -0.017745)
 55:   1515.74   0.000208    1.05  0.000043  (-0.001010 -0.004325  0.004800)
 56:   1523.99   0.000932    4.71  0.000191  (-0.000097 -0.012951 -0.004796)
 57:   1525.97   0.001754    8.86  0.000359  ( 0.004633  0.016554  0.007950)
 58:   1536.55   0.001144    5.78  0.000232  (-0.010568  0.004236  0.010136)
 59:   1545.76   0.003623   18.31  0.000731  ( 0.013732 -0.002937  0.023114)
 60:   1728.96   0.000133    0.67  0.000024  ( 0.003133 -0.003009 -0.002264)
 61:   1793.50   0.000751    3.79  0.000131  (-0.010057  0.005422  0.000263)
 62:   3021.54   0.003062   15.47  0.000316  (-0.006867 -0.002244  0.016249)
 63:   3051.42   0.006996   35.35  0.000715  (-0.008068  0.019773 -0.016106)
 64:   3078.11   0.005436   27.47  0.000551  ( 0.002132  0.004230 -0.022994)
 65:   3094.24   0.005443   27.50  0.000549  ( 0.009917 -0.019906 -0.007369)
 66:   3099.20   0.008200   41.44  0.000826  ( 0.028305 -0.004898  0.000748)
 67:   3100.20   0.005241   26.49  0.000528  (-0.016302 -0.012486  0.010292)
 68:   3169.92   0.003473   17.55  0.000342  ( 0.010343 -0.008826 -0.012530)
 69:   3178.05   0.000982    4.96  0.000096  ( 0.009006 -0.002063  0.003325)
 70:   3178.07   0.002523   12.75  0.000248  (-0.001123  0.005935 -0.014535)
 71:   3183.76   0.007395   37.37  0.000725  ( 0.015251  0.000289  0.022185)
 72:   3201.34   0.003310   16.73  0.000323  (-0.002334 -0.017511  0.003246)
 73:   3202.38   0.004132   20.88  0.000403  (-0.018241  0.003950  0.007368)
 74:   3208.59   0.001902    9.61  0.000185  (-0.004567 -0.011542 -0.005561)
 75:   3230.47   0.001496    7.56  0.000145  ( 0.002610 -0.010468 -0.005305)
 76:   3231.77   0.003265   16.50  0.000315  (-0.013640 -0.010177 -0.005066)
 77:   3259.16   0.003230   16.32  0.000309  (-0.000503  0.015685  0.007935)

* The epsilon (eps) is given for a Dirac delta lineshape.
** The dipole moment derivative (T) already includes vibrational overlap.

The first frequency considered to be a vibration is 6
The total number of vibrations considered is 72


--------------------------
THERMOCHEMISTRY AT 298.15K
--------------------------

Temperature         ...   298.15 K
Pressure            ...     1.00 atm
Total Mass          ...   136.24 AMU
Quasi RRHO          ...     True
Cut-Off Frequency   ...     1.00 cm^-1

Throughout the following assumptions are being made:
  (1) The electronic state is orbitally nondegenerate
  (2) There are no thermally accessible electronically excited states
  (3) Hindered rotations indicated by low frequency modes are not
      treated as such but are treated as vibrations and this may
      cause some error
  (4) All equations used are the standard statistical mechanics
      equations for an ideal gas
  (5) All vibrations are strictly harmonic

freq.      71.49  E(vib)   ...       0.50 
freq.      75.89  E(vib)   ...       0.49 
freq.     177.84  E(vib)   ...       0.37 
freq.     184.80  E(vib)   ...       0.37 
freq.     215.18  E(vib)   ...       0.34 
freq.     238.06  E(vib)   ...       0.32 
freq.     267.12  E(vib)   ...       0.29 
freq.     289.68  E(vib)   ...       0.27 
freq.     332.28  E(vib)   ...       0.24 
freq.     343.60  E(vib)   ...       0.23 
freq.     385.25  E(vib)   ...       0.20 
freq.     434.46  E(vib)   ...       0.17 
freq.     451.38  E(vib)   ...       0.16 
freq.     502.96  E(vib)   ...       0.14 
freq.     604.71  E(vib)   ...       0.10 
freq.     608.53  E(vib)   ...       0.10 
freq.     700.89  E(vib)   ...       0.07 
freq.     759.65  E(vib)   ...       0.06 
freq.     826.51  E(vib)   ...       0.04 
freq.     838.79  E(vib)   ...       0.04 
freq.     905.02  E(vib)   ...       0.03 
freq.     950.83  E(vib)   ...       0.03 
freq.     968.03  E(vib)   ...       0.03 
freq.     976.29  E(vib)   ...       0.03 
freq.     993.78  E(vib)   ...       0.02 
freq.    1009.01  E(vib)   ...       0.02 
freq.    1012.20  E(vib)   ...       0.02 
freq.    1068.67  E(vib)   ...       0.02 
freq.    1082.06  E(vib)   ...       0.02 
freq.    1091.31  E(vib)   ...       0.02 
freq.    1146.31  E(vib)   ...       0.01 
freq.    1171.47  E(vib)   ...       0.01 
freq.    1194.19  E(vib)   ...       0.01 
freq.    1217.42  E(vib)   ...       0.01 
freq.    1225.93  E(vib)   ...       0.01 
freq.    1239.83  E(vib)   ...       0.01 
freq.    1266.30  E(vib)   ...       0.01 
freq.    1304.87  E(vib)   ...       0.01 
freq.    1358.17  E(vib)   ...       0.01 
freq.    1375.80  E(vib)   ...       0.01 
freq.    1389.85  E(vib)   ...       0.00 
freq.    1410.15  E(vib)   ...       0.00 
freq.    1428.12  E(vib)   ...       0.00 
freq.    1442.08  E(vib)   ...       0.00 
freq.    1449.23  E(vib)   ...       0.00 
freq.    1454.19  E(vib)   ...       0.00 
freq.    1477.63  E(vib)   ...       0.00 
freq.    1506.41  E(vib)   ...       0.00 
freq.    1510.44  E(vib)   ...       0.00 
freq.    1515.74  E(vib)   ...       0.00 
freq.    1523.99  E(vib)   ...       0.00 
freq.    1525.97  E(vib)   ...       0.00 
freq.    1536.55  E(vib)   ...       0.00 
freq.    1545.76  E(vib)   ...       0.00 
freq.    1728.96  E(vib)   ...       0.00 
freq.    1793.50  E(vib)   ...       0.00 
freq.    3021.54  E(vib)   ...       0.00 
freq.    3051.42  E(vib)   ...       0.00 
freq.    3078.11  E(vib)   ...       0.00 
freq.    3094.24  E(vib)   ...       0.00 
freq.    3099.20  E(vib)   ...       0.00 
freq.    3100.20  E(vib)   ...       0.00 
freq.    3169.92  E(vib)   ...       0.00 
freq.    3178.05  E(vib)   ...       0.00 
freq.    3178.07  E(vib)   ...       0.00 
freq.    3183.76  E(vib)   ...       0.00 
freq.    3201.34  E(vib)   ...       0.00 
freq.    3202.38  E(vib)   ...       0.00 
freq.    3208.59  E(vib)   ...       0.00 
freq.    3230.47  E(vib)   ...       0.00 
freq.    3231.77  E(vib)   ...       0.00 
freq.    3259.16  E(vib)   ...       0.00 

------------
INNER ENERGY
------------

The inner energy is: U= E(el) + E(ZPE) + E(vib) + E(rot) + E(trans)
    E(el)   - is the total energy from the electronic structure calculation
              = E(kin-el) + E(nuc-el) + E(el-el) + E(nuc-nuc)
    E(ZPE)  - the the zero temperature vibrational energy from the frequency calculation
    E(vib)  - the the finite temperature correction to E(ZPE) due to population
              of excited vibrational states
    E(rot)  - is the rotational thermal energy
    E(trans)- is the translational thermal energy

Summary of contributions to the inner energy U:
Electronic energy                ...    -66.60677581 Eh
Zero point energy                ...      0.24055931 Eh     150.95 kcal/mol
Thermal vibrational correction   ...      0.00777258 Eh       4.88 kcal/mol
Thermal rotational correction    ...      0.00141627 Eh       0.89 kcal/mol
Thermal translational correction ...      0.00141627 Eh       0.89 kcal/mol
-----------------------------------------------------------------------
Total thermal energy                    -66.35561137 Eh


Summary of corrections to the electronic energy:
(perhaps to be used in another calculation)
Total thermal correction                  0.01060512 Eh       6.65 kcal/mol
Non-thermal (ZPE) correction              0.24055931 Eh     150.95 kcal/mol
-----------------------------------------------------------------------
Total correction                          0.25116444 Eh     157.61 kcal/mol


--------
ENTHALPY
--------

The enthalpy is H = U + kB*T
                kB is Boltzmann's constant
Total thermal energy              ...    -66.35561137 Eh 
Thermal Enthalpy correction       ...      0.00094421 Eh       0.59 kcal/mol
-----------------------------------------------------------------------
Total Enthalpy                    ...    -66.35466717 Eh


Note: Only C1 symmetry has been detected, increase convergence thresholds 
      if your molecule has a higher symmetry. Symmetry factor of 1.0 is   
      used for the rotational entropy correction. 
 

Note: Rotational entropy computed according to Herzberg 
Infrared and Raman Spectra, Chapter V,1, Van Nostrand Reinhold, 1945 
Point Group:  C1, Symmetry Number:   1  
Rotational constants in cm-1:     0.104309     0.025104     0.021162 

Vibrational entropy computed according to the QRRHO of S. Grimme
Chem.Eur.J. 2012 18 9955 using a reference frequency of 100.0 cm-1


-------
ENTROPY
-------

The entropy contributions are T*S = T*(S(el)+S(vib)+S(rot)+S(trans))
     S(el)   - electronic entropy
     S(vib)  - vibrational entropy
     S(rot)  - rotational entropy
     S(trans)- translational entropy
The entropies will be listed as multiplied by the temperature to get
units of energy

Electronic entropy                ...      0.00000000 Eh      0.00 kcal/mol
Vibrational entropy               ...      0.01297390 Eh      8.14 kcal/mol
Rotational entropy                ...      0.01413763 Eh      8.87 kcal/mol
Translational entropy             ...      0.01930920 Eh     12.12 kcal/mol
-----------------------------------------------------------------------
Final entropy term                ...      0.04642073 Eh     29.13 kcal/mol

In case the symmetry of your molecule has not been determined correctly
or in case you have a reason to use a different symmetry number we print 
out the resulting rotational entropy values for sn=1,12:

 non-linear molecules -----------------------------------
|  sn= 1 | S(rot)=       0.01413763 Eh      8.87 kcal/mol|
|  sn= 2 | S(rot)=       0.01348317 Eh      8.46 kcal/mol|
|  sn= 3 | S(rot)=       0.01310034 Eh      8.22 kcal/mol|
|  sn= 4 | S(rot)=       0.01282872 Eh      8.05 kcal/mol|
|  sn= 5 | S(rot)=       0.01261803 Eh      7.92 kcal/mol|
|  sn= 6 | S(rot)=       0.01244588 Eh      7.81 kcal/mol|
|  sn= 7 | S(rot)=       0.01230034 Eh      7.72 kcal/mol|
|  sn= 8 | S(rot)=       0.01217426 Eh      7.64 kcal/mol|
|  sn= 9 | S(rot)=       0.01206305 Eh      7.57 kcal/mol|
|  sn=10 | S(rot)=       0.01196357 Eh      7.51 kcal/mol|
|  sn=11 | S(rot)=       0.01187358 Eh      7.45 kcal/mol|
|  sn=12 | S(rot)=       0.01179143 Eh      7.40 kcal/mol|
 linear molecules ---------------------------------------
|  Dinfh | S(rot)=       0.00896615 Eh      5.63 kcal/mol|
|  Cinfv | S(rot)=       0.00962061 Eh      6.04 kcal/mol|
 --------------------------------------------------------


-------------------
GIBBS FREE ENERGY
-------------------

The Gibbs free energy is G = H - T*S

Total enthalpy                    ...    -66.35466717 Eh 
Total entropy correction          ...     -0.04642073 Eh    -29.13 kcal/mol
-----------------------------------------------------------------------
Final Gibbs free energy         ...    -66.40108790 Eh

For completeness - the Gibbs free energy minus the electronic energy
G-E(el)                           ...      0.20568791 Eh    129.07 kcal/mol


Maximum memory used throughout the entire PROP-calculation: 113.2 MB

--------------------------------
SUGGESTED CITATIONS FOR THIS RUN
--------------------------------

Below you find a list of papers that are relevant to this ORCA run
We neither can nor want to force you to cite these papers, but we appreciate if you do
You receive ORCA, which is the product of decades of hard work by many enthusiastic individuals, for free
The only thing we kindly ask in return is that you cite our papers,
We deeply appreciate it, if you show your appreciation for ORCA by not just citing the generic ORCA reference.

Please note that relegating all ORCA citations to the supporting information does *not* help us.
SI sections are not indexed - citations you put there will not count into any citation statistics
But we need these citations in order to attract the funding resources that allow us to do what we are doing

Therefore, if you are a happy ORCA user, please consider citing a few of the papers listed below in the main body of your paper

In addition to the list printed below, the program has created the file ./output/alpha_phellandrene/alpha_phellandrene.bibtex that contains the list in bibtex format
You can import this file easily into all common literature databanks and citation aid programs


List of essential papers. We consider these as the minimum necessary citations

  1. Neese,F.
     Software update: the ORCA program system, version 5.0
     WIRES Comput. Molec. Sci., 2022 12(1)e1606
     doi.org/10.1002/wcms.1606
  2. Mueller,M.; Hansen,A.; Grimme,S.
     wB97X-3c: A composite range-separated hybrid DFT method with a molecule-optimized polarized valence double-zeta basis set
     J. Chem. Phys., 2023 158 014103
     doi.org/10.1063/5.0133026

List of papers to cite with high priority. The work reported in these papers was absolutely
necessary for this run to complete.
Our perspective: the developers of density functionals and basis sets usually get cited in chemistry papers
Good! But without the algorithms to do something with them, the functionals or basis sets would not do anything.
Hence, in our opinion, the algorithm design and method developments papers are equally worthy of getting cited

  1. Neese,F.
     An improvement of the resolution of the identity approximation for the formation of the Coulomb matrix
     J. Comp. Chem., 2003 24(14)1740-1747
     doi.org/10.1002/jcc.10318
  2. Neese,F.; Wennmohs,F.; Hansen,A.; Becker,U.
     Efficient, approximate and parallel Hartree-Fock and hybrid DFT calculations. A 'chain-of-spheres' algorithm for the Hartree-Fock exchange
     Chem. Phys., 2009 356(1-3)98-109
     doi.org/10.1016/j.chemphys.2008.10.036
  3. Bykov,D.; Petrenko,T.; Izsak,R.; Kossmann,S.; Becker,U.; Valeev,E.; Neese,F.
     Efficient implementation of the analytic second derivatives of Hartree-Fock and hybrid DFT energies: a detailed analysis of different approximations
     Molec. Phys., 2015 113 1961-1977
     doi.org/10.1080/00268976.2015.1025114
  4. Helmich-Paris,B.; de Souza,B.; Neese,F.; Izsák,R.
     An improved chain of spheres for exchange algorithm
     J. Chem. Phys., 2021 155 104109
     doi.org/doi: 10.1063/5.0058766.
  5. Neese,F.
     The SHARK Integral Generation and Digestion System
     J. Comp. Chem., 2022  1-16
     doi.org/10.1002/jcc.26942
  6. Caldeweyher,E.; Bannwarth,C.; Grimme,S.
     Extension of the D3 dispersion coefficient model
     J. Chem. Phys., 2017 147 034112
     doi.org/10.1063/1.4993215
  7. Caldeweyher,E.; Ehlert,S.; Hansen,A.; Neugebauer,H.; Spicher,S.; Bannwarth,C.; Grimme,S.
     A generally applicable atomic-charge dependent London dispersion correction
     J. Chem. Phys., 2019 150 154122
     doi.org/10.1063/1.5090222
  8. Caldeweyher,E.; Mewes,J.; Ehlert,S.; Grimme,S.
     Extension and evaluation of the D4 London-dispersion model for periodic systems
     Phys. Chem. Chem. Phys., 2020 22(16)8499-8512
     doi.org/10.1039/D0CP00502A
  9. Wittmann,L.; Gordiy,I.; Friede,M.; Helmich-Paris,B.; Grimme,S.; Hansen,A.; Bursch,M.
     Extension of the D3 and D4 London Dispersion Corrections to the full Actinides Series
     Phys. Chem. Chem. Phys., 2024 26(32)21379-21394
     doi.org/https://doi.org/10.1039/D4CP01514B 

List of suggested additional citations. These are papers that are important in the 'surrounding' of 
of this run, or papers that preceded the highly important papers. If you like your results we are grateful for a citation.

  1. Izsak,R.; Neese,F.
     An overlap fitted chain of spheres exchange method
     J. Chem. Phys., 2011 135 144105
     doi.org/10.1063/1.3646921
  2. Izsak,R.; Hansen,A.; Neese,F.
     The resolution of identity and chain of spheres approximations for the LPNO-CCSD singles Fock term
     Molec. Phys., 2012 110 2413-2417
     doi.org/10.1080/00268976.2012.687466
  3. Neese,F.
     The ORCA program system
     WIRES Comput. Molec. Sci., 2012 2(1)73-78
     doi.org/10.1002/wcms.81
  4. Izsak,R.; Neese,F.; Klopper,W.
     Robust fitting techniques in the chain of spheres approximation to the Fock exchange: The role of the complementary space
     J. Chem. Phys., 2013 139 
     doi.org/10.1063/1.4819264
  5. Neese,F.
     Software update: the ORCA program system, version 4.0
     WIRES Comput. Molec. Sci., 2018 8(1)1-6
     doi.org/10.1002/wcms.1327
  6. Neese,F.; Wennmohs,F.; Becker,U.; Riplinger,C.
     The ORCA quantum chemistry program package
     J. Chem. Phys., 2020 152 Art. No. L224108
     doi.org/10.1063/5.0004608

List of optional additional citations

  1. Neese,F.
     Approximate second-order SCF convergence for spin unrestricted wavefunctions
     Chem. Phys. Lett., 2000 325(1-3)93-98
     doi.org/10.1016/s0009-2614(00)00662-x

Timings for individual modules:

Sum of individual times          ...      672.692 sec (=  11.212 min)
Startup calculation              ...       36.819 sec (=   0.614 min)   5.5 %
SCF iterations                   ...      401.536 sec (=   6.692 min)  59.7 %
Property integrals               ...       47.868 sec (=   0.798 min)   7.1 %
SCF Response                     ...       34.681 sec (=   0.578 min)   5.2 %
Property calculations            ...       71.715 sec (=   1.195 min)  10.7 %
SCF Gradient evaluation          ...       79.798 sec (=   1.330 min)  11.9 %
Geometry relaxation              ...        0.276 sec (=   0.005 min)   0.0 %
                             ****ORCA TERMINATED NORMALLY****
TOTAL RUN TIME: 0 days 0 hours 11 minutes 17 seconds 647 msec
