
                                 *****************
                                 * O   R   C   A *
                                 *****************

                                            #,                                       
                                            ###                                      
                                            ####                                     
                                            #####                                    
                                            ######                                   
                                           ########,                                 
                                     ,,################,,,,,                         
                               ,,#################################,,                 
                          ,,##########################################,,             
                       ,#########################################, ''#####,          
                    ,#############################################,,   '####,        
                  ,##################################################,,,,####,       
                ,###########''''           ''''###############################       
              ,#####''   ,,,,##########,,,,          '''####'''          '####       
            ,##' ,,,,###########################,,,                        '##       
           ' ,,###''''                  '''############,,,                           
         ,,##''                                '''############,,,,        ,,,,,,###''
      ,#''                                            '''#######################'''  
     '                                                          ''''####''''         
             ,#######,   #######,   ,#######,      ##                                
            ,#'     '#,  ##    ##  ,#'     '#,    #''#        ,####,   ,####,        
            ##       ##  ##   ,#'  ##            #'  '#       #'       #'  '#        
            ##       ##  #######   ##           ,######,      #####,   #    #        
            '#,     ,#'  ##    ##  '#,     ,#' ,#      #,     #,   #   #,  ,#        
             '#######'   ##     ##  '#######'  #'      '#     '####' # '####'        



                #########################################################
                #                        -***-                          #
                #          Department of theory and spectroscopy        #
                #                                                       #
                #                      Frank Neese                      #
                #                                                       #
                #     Directorship, Architecture, Infrastructure        #
                #                    SHARK, DRIVERS                     #
                #        Core code/Algorithms in most modules           #
                #                                                       #
                #        Max Planck Institute fuer Kohlenforschung      #
                #                Kaiser Wilhelm Platz 1                 #
                #                 D-45470 Muelheim/Ruhr                 #
                #                      Germany                          #
                #                                                       #
                #                  All rights reserved                  #
                #                        -***-                          #
                #########################################################


                         Program Version 6.0.1  -  RELEASE   -


 With contributions from (in alphabetic order):
[Max-Planck-Institut fuer Kohlenforschung]                               
  Daniel Aravena         : Magnetic Suceptibility                        
  Michael Atanasov       : Ab Initio Ligand Field Theory (pilot matlab implementation)
  Alexander A. Auer      : GIAO ZORA, VPT2 properties, NMR spectrum      
  Ute Becker             : All parallelization in ORCA, NUMFREQ, NUMCALC 
  Giovanni Bistoni       : ED, misc. LED, open-shell LED, HFLD           
  Martin Brehm           : Molecular dynamics                            
  Dmytro Bykov           : pre 5.0 version of the SCF Hessian            
  Marcos Casanova-Páez   : Triplet and SCS-CIS(D). UHF-(DLPNO)-IP/EA/STEOM-CCSD. UHF-CVS-IP/STEOM-CCSD   
  Vijay G. Chilkuri      : MRCI spin determinant printing, contributions to CSF-ICE 
  Pauline Colinet        : FMM embedding                                 
  Dipayan Datta          : RHF DLPNO-CCSD density                        
  Achintya Kumar Dutta   : EOM-CC, STEOM-CC                              
  Nicolas Foglia         : Exact transition moments, OPA infrastructure, MCD improvements    
  Dmitry Ganyushin       : Spin-Orbit,Spin-Spin,Magnetic field MRCI      
  Miquel Garcia-Rates    : C-PCM and meta-GGA Hessian, CCSD/C-PCM, Gaussian charge scheme 
  Tiago L. C. Gouveia    : GS-ROHF, GS-ROCIS                             
  Yang Guo               : DLPNO-NEVPT2, F12-NEVPT2, CIM, IAO-localization        
  Andreas Hansen         : Spin unrestricted coupled pair/coupled cluster methods 
  Ingolf Harden          : AUTO-CI MPn and infrastructure                
  Benjamin Helmich-Paris : MC-RPA, TRAH-(SCF,CASSCF), AVAS, COSX integrals, SCF dyn. polar. 
  Lee Huntington         : MR-EOM, pCC                                   
  Robert Izsak           : Overlap fitted RIJCOSX, COSX-SCS-MP3, EOM     
  Riya Kayal             : Wick's Theorem for AUTO-CI, AUTO-CI UHF-CCSDT 
  Emily Kempfer          : AUTO-CI, RHF CISDT and CCSDT                  
  Christian Kollmar      : KDIIS, OOCD, Brueckner-CCSD(T), CCSD density, CASPT2, CASPT2-K, improved NEVPT2 
  Axel Koslowski         : Symmetry handling                             
  Simone Kossmann        : meta-GGA functionals, TD-DFT gradient, OOMP2, (MP2 Hessian; deprecated post 5.0) 
  Lucas Lang             : DCDCAS                                        
  Marvin Lechner         : AUTO-CI (C++ implementation), FIC-MRCC        
  Spencer Leger          : CASSCF response                               
  Dagmar Lenk            : GEPOL surface, SMD, ORCA-2-JSON               
  Dimitrios Liakos       : Extrapolation schemes; Compound Job, initial MDCI parallelization 
  Dimitrios Manganas     : Further ROCIS development; embedding schemes. LFT, Crystal Embedding 
  Dimitrios Pantazis     : SARC Basis sets                               
  Anastasios Papadopoulos: AUTO-CI, single reference methods and gradients 
  Taras Petrenko         : pre 6.0 DFT Hessian and TD-DFT gradient, (ASA, deprecated), ECA, 1-Electron XAS/XES, NRVS 
  Peter Pinski           : DLPNO-MP2, DLPNO-MP2 Gradient                 
  Christoph Reimann      : Effective Core Potentials                     
  Marius Retegan         : Local ZFS, SOC                                
  Christoph Riplinger    : Optimizer, TS searches, QM/MM, DLPNO-CCSD(T), (RO)-DLPNO pert. Triples 
  Michael Roemelt        : Original ROCIS implementation                 
  Masaaki Saitow         : Open-shell DLPNO-CCSD energy and density      
  Barbara Sandhoefer     : DKH picture change effects                    
  Kantharuban Sivalingam : CASSCF convergence/infrastructure, NEVPT2 and variants, FIC-MRCI 
  Bernardo de Souza      : ESD, SOC TD-DFT                               
  Georgi L. Stoychev     : AutoAux, RI-MP2 NMR, DLPNO-MP2 response, X2C  
  Van Anh Tran           : RI-MP2 g-tensors                              
  Willem Van den Heuvel  : Paramagnetic NMR                              
  Zikuan Wang            : NOTCH, Electric field optimization            
  Frank Wennmohs         : Technical directorship and infrastructure     
  Hang Xu                : AUTO-CI-Response properties                   
                                                                         
[FACCTs GmbH]                                                            
  Markus Bursch, Miquel Garcia-Rates, Christoph Riplinger, Bernardo de Souza, Georgi L. Stoychev 
                                                                 
  APM, Basis sets (HGBS, AHGBS, def-TZVP (Ac-Lr), def2-XVPD (La-Lu)), CI-OPT, improved COSX, DLPNO-Multilevel,           
  DOCKER, DRACO, updates on ESD, GOAT, IRC, LR-CPCM, MBIS, meta-GGA TD-DFT gradient, ML-optimized integration grids, 
  MM, NACMEs, nearIR, NEB, NEB-TS, NL-DFT gradient (VV10), 2- and 3-layer-ONIOM, interface openCOSMO-RS, QMMM,   
  Crystal-QMMM, SF, symmetry and pop. for TD-DFT, r2SCAN hybrids, SOLVATOR                                   
                                                                         
[Other institutions]                                                     
  V. Asgeirsson          : NEB                                           
  Christoph Bannwarth    : sTDA-DFT, sTD-DFT, PBEh-3c, B97-3c, D3        
  Sebastian Ehlert       : rSCAN, r2SCAN, r2SCAN-3c, D4, dhf basis sets  
  Marvin Friede          : D4 for Fr, Ra, Ac-Lr                          
  Lars Goerigk           : TD-DFT with DH, B97 family of functionals     
  Stefan Grimme          : VdW corrections, initial TS optimization, DFT functionals, gCP, sTDA/sTD-DF 
  Waldemar Hujo          : DFT-NL                                        
  H. Jonsson             : NEB                                           
  Holger Kruse           : gCP                                           
  Marcel Mueller         : wB97X-3c, vDZP basis set                      
  Hagen Neugebauer       : wr2SCAN                                       
  Tobias Risthaus        : range-separated hybrid DFT                    
  Lukas Wittmann         : regularized MP2, r2SCAN double-hybrids, wr2SCAN        
                                                                         
We gratefully acknowledge several colleagues who have allowed us to      
interface, adapt or use parts of their codes:                            
  Ed Valeev, F. Pavosevic, A. Kumar             : LibInt (2-el integral package), F12 methods 
  Garnet Chan, S. Sharma, J. Yang, R. Olivares  : DMRG                   
  Ulf Ekstrom                                   : XCFun DFT Library      
  Mihaly Kallay                                 : mrcc  (arbitrary order and MRCC methods)
  Frank Weinhold                                : gennbo (NPA and NBO analysis)           
  Simon Mueller                                 : openCOSMO-RS                            
  Christopher J. Cramer and Donald G. Truhlar   : smd solvation model                     
  S Lehtola, MJT Oliveira, MAL Marques          : LibXC Library                           
  Liviu Ungur et al                             : ANISO software                          


 Your calculation uses the libint2 library for the computation of 2-el integrals
 For citations please refer to: http://libint.valeyev.net

 Your ORCA version has been built with support for libXC version: 6.2.2
 For citations please refer to: https://libxc.gitlab.io

 This ORCA versions uses:
   CBLAS   interface :  Fast vector & matrix operations
   LAPACKE interface :  Fast linear algebra routines
   SCALAPACK package :  Parallel linear algebra routines
   Shared memory     :  Shared parallel matrices
   BLAS/LAPACK       :  OpenBLAS 0.3.27  USE64BITINT DYNAMIC_ARCH NO_AFFINITY SkylakeX SINGLE_THREADED
        Core in use  :  SkylakeX
   Copyright (c) 2011-2014, The OpenBLAS Project


Your calculation utilizes the atom-pairwise dispersion correction
based on EEQ partial charges (D4)


================================================================================

cite the ECPs for C  [vDZP-ECP] as follows:
   B-Ne (ecp-2-mwb), Al-Ar (ecp-10-mwb), Ga-Kr (ecp-28-mwb), Y-Cd (ecp-28-mwb), In-Xe (ecp-46-mwb):
     A. Bergner, M. Dolg, W. Küchle, H. Stoll, and H. Preuß, Mol. Phys. 80, 1431 (1993)., T. Leininger, A. Berning, A. Nicklass, H. Stoll, H.-J. Werner, and H.-J.Flad, Chem. Phys. 217, 19 (1997).
   Na-Mg, K-Ca, Rb-Sr, Cs-Ba (CRENBL):
     L. Fernandez Pacios and P. A. Christiansen, J. Chem. Phys. 82, 2664 (1985)., M. M. Hurley, L. F. Pacios, P. A. Christiansen, R. B. Ross, and W. C. Ermler, J. Chem. Phys. 84, 6840 (1986)., L. A. LaJohn, P. A. Christiansen, R. B. Ross, T. Atashroo, and W. C. Ermler, J. Chem. Phys. 87, 2812 (1987)., R. B. Ross, J. M. Powers, T. Atashroo, W. C. Ermler, L. A. LaJohn, and P. A. Christiansen, J. Chem. Phys. 93, 6654 (1990). 
   Sc-Zn (ecp-10-mdf):
     M. Dolg, U. Wedig, H. Stoll, and H. Preuss, J. Chem. Phys. 86, 866 (1986). 
   Y-Cd (ecp-28-mwb), Hf-Hg (ecp-60-mwb):
     D. Andrae, U. Häußermann, M. Dolg, H. Stoll, and H. Preuß, Theor. Chim. Acta 77, 123 (1990). 
   La (ecp-46-mwb):
     M. Dolg, H. Stoll, and H. Preuss, J. Chem. Phys. 90, 1730 (1989)., M. Dolg, H. Stoll, and H. Preuss, Theor. Chim. Acta 85, 441 (1993).
   Ce-Lu (SBKJC-ecp):
     T. R. Cundari and W. J. Stevens, J. Chem. Phys. 98, 5555 (1993).
   Tl-Rn (ecp-78-mwb):
     W. Küchle, M. Dolg, H. Stoll, and H. Preuss, Mol. Phys. 74, 1245 (1991).

ECP parameters for C  [vDZP-ECP] have been obtained from:
MM, AH, SG, J. Chem. Phys. 158, 014103 (2023), 10.1063/5.0133026

----- Orbital basis set information -----
Your calculation utilizes the basis: vDZP
   Marcel Mueller, Andreas Hansen, Stefan Grimme 
   J. Chem. Phys. 158, 014103 (2023). DOI: 10.1063/5.0133026

----- AuxJ basis set information -----
Your calculation utilizes the auxiliary basis: def2/J
   F. Weigend, Phys. Chem. Chem. Phys. 8, 1057 (2006).

================================================================================
                                        WARNINGS
                       Please study these warnings very carefully!
================================================================================

WARNING: Frozen-Core approximation turned on, but there are no core electrons.
  ===> : Turning off frozen-core approximation


WARNING: Geometry Optimization
  ===> : Switching off AutoStart
         For restart on a previous wavefunction, please use MOREAD

================================================================================
                                       INPUT FILE
================================================================================
NAME = ./output/alpha_himachalene/alpha_himachalene.inp
|  1> ! wB97X-3c OPT FREQ TightSCF
|  2> %pal
|  3>   nprocs 40
|  4> end
|  5> * xyz 0 1
|  6> C      3.657178    -1.477317    -0.911349
|  7> C      2.456276    -0.642858    -0.556616
|  8> C      1.257626    -0.977964    -1.077855
|  9> C     -0.052719    -0.272867    -0.747322
| 10> C      0.271256     1.212712    -0.352731
| 11> C      1.390879     1.321584     0.700646
| 12> C      2.675983     0.627270     0.236266
| 13> C     -0.881355     2.163169    -0.033050
| 14> C     -0.699790     3.481820    -0.247189
| 15> C     -2.189928     1.710184     0.567815
| 16> C     -2.856230     0.647624    -0.295333
| 17> C     -2.498077    -0.779159     0.126361
| 18> C     -0.976371    -1.170621     0.191193
| 19> C     -0.912524    -2.657517    -0.273592
| 20> C     -0.494755    -1.176261     1.661592
| 21> H      3.522627    -2.509530    -0.524430
| 22> H      4.583257    -1.053609    -0.468127
| 23> H      3.781858    -1.513447    -2.014509
| 24> H      1.207895    -1.839736    -1.739201
| 25> H     -0.582770    -0.215814    -1.723705
| 26> H      0.719070     1.629135    -1.287522
| 27> H      1.081933     0.922191     1.680507
| 28> H      1.633536     2.391874     0.880938
| 29> H      3.246933     1.331551    -0.407272
| 30> H      3.303524     0.403151     1.125851
| 31> H      0.231623     3.860572    -0.657841
| 32> H     -1.473300     4.208369    -0.017415
| 33> H     -2.049217     1.372837     1.611648
| 34> H     -2.897422     2.566812     0.637900
| 35> H     -3.959058     0.754812    -0.191590
| 36> H     -2.636812     0.809222    -1.373588
| 37> H     -2.987273    -0.988416     1.104154
| 38> H     -3.032751    -1.429947    -0.602455
| 39> H      0.080776    -3.113152    -0.070417
| 40> H     -1.125019    -2.738526    -1.361845
| 41> H     -1.661409    -3.276946     0.268086
| 42> H     -1.028351    -1.956773     2.246967
| 43> H     -0.698296    -0.222119     2.174666
| 44> H      0.591197    -1.402310     1.720362
| 45> *
| 46> 
| 47>                          ****END OF INPUT****
================================================================================

                       *****************************
                       * Geometry Optimization Run *
                       *****************************

Geometry optimization settings:
Update method            Update   .... BFGS
Choice of coordinates    CoordSys .... (2022) Redundant Internals
Initial Hessian          InHess   .... Almloef's Model
Max. no of cycles        MaxIter  .... 117

Convergence Tolerances:
Energy Change            TolE     ....  5.0000e-06 Eh
Max. Gradient            TolMAXG  ....  3.0000e-04 Eh/bohr
RMS Gradient             TolRMSG  ....  1.0000e-04 Eh/bohr
Max. Displacement        TolMAXD  ....  4.0000e-03 bohr
RMS Displacement         TolRMSD  ....  2.0000e-03 bohr
Strict Convergence                .... False

------------------------------------------------------------------------------
                        ORCA OPTIMIZATION COORDINATE SETUP
------------------------------------------------------------------------------

The optimization will be done in redundant internal coordinates (2022)
Making redundant internal coordinates   ...  (2022 redundants) done
Evaluating the initial hessian          ...  (Almloef) done
Evaluating the coordinates              ...  done
Calculating the B-matrix                .... done
Calculating the G-matrix                .... done
Diagonalizing the G-matrix              .... done
Small eigenvalue found = 2.058e-02
Small eigenvalue found = 2.197e-02
Small eigenvalue found = 2.863e-02
The first mode is                       ....   94
The number of degrees of freedom        ....  111

    -----------------------------------------------------------------
                    Redundant Internal Coordinates


    -----------------------------------------------------------------
         Definition                    Initial Value    Approx d2E/dq
    -----------------------------------------------------------------
      1. B(C   1,C   0)                  1.5048         0.409860   
      2. B(C   2,C   1)                  1.3494         0.725423   
      3. B(C   3,C   2)                  1.5243         0.381513   
      4. B(C   4,C   3)                  1.5709         0.321503   
      5. B(C   5,C   4)                  1.5411         0.358638   
      6. B(C   6,C   5)                  1.5327         0.369868   
      7. B(C   6,C   1)                  1.5133         0.397172   
      8. B(C   7,C   4)                  1.5278         0.376650   
      9. B(C   8,C   7)                  1.3482         0.728479   
     10. B(C   9,C   7)                  1.5095         0.402791   
     11. B(C  10,C   9)                  1.5225         0.384006   
     12. B(C  11,C  10)                  1.5303         0.373167   
     13. B(C  12,C  11)                  1.5726         0.319470   
     14. B(C  12,C   3)                  1.5937         0.295621   
     15. B(C  13,C  12)                  1.5592         0.335633   
     16. B(C  14,C  12)                  1.5473         0.350604   
     17. B(H  15,C   0)                  1.1105         0.333942   
     18. B(H  16,C   0)                  1.1107         0.333764   
     19. B(H  17,C   0)                  1.1108         0.333645   
     20. B(H  18,C   2)                  1.0874         0.363517   
     21. B(H  19,C   3)                  1.1124         0.331600   
     22. B(H  20,C   4)                  1.1170         0.326048   
     23. B(H  21,C   5)                  1.1023         0.344177   
     24. B(H  22,C   5)                  1.1122         0.331942   
     25. B(H  23,C   6)                  1.1118         0.332365   
     26. B(H  24,C   6)                  1.1115         0.332771   
     27. B(H  25,C   8)                  1.0861         0.365293   
     28. B(H  26,C   8)                  1.0858         0.365683   
     29. B(H  27,C   9)                  1.1060         0.339570   
     30. B(H  28,C   9)                  1.1132         0.330650   
     31. B(H  29,C  10)                  1.1129         0.331081   
     32. B(H  30,C  10)                  1.1122         0.331951   
     33. B(H  31,C  11)                  1.1132         0.330699   
     34. B(H  32,C  11)                  1.1138         0.329940   
     35. B(H  33,C  13)                  1.1115         0.332700   
     36. B(H  34,C  13)                  1.1118         0.332434   
     37. B(H  35,C  13)                  1.1126         0.331379   
     38. B(H  36,C  14)                  1.1120         0.332118   
     39. B(H  37,C  14)                  1.1023         0.344193   
     40. B(H  38,C  14)                  1.1108         0.333627   
     41. A(H  15,C   0,H  17)          109.2317         0.284026   
     42. A(C   1,C   0,H  17)          109.9830         0.325194   
     43. A(H  16,C   0,H  17)          108.3693         0.284002   
     44. A(C   1,C   0,H  16)          111.0880         0.325213   
     45. A(H  15,C   0,H  16)          108.4557         0.284042   
     46. A(C   1,C   0,H  15)          109.6705         0.325241   
     47. A(C   0,C   1,C   6)          118.2340         0.373080   
     48. A(C   2,C   1,C   6)          122.6695         0.412267   
     49. A(C   0,C   1,C   2)          118.6953         0.414576   
     50. A(C   1,C   2,C   3)          124.4021         0.409338   
     51. A(C   1,C   2,H  18)          118.1880         0.363043   
     52. A(C   3,C   2,H  18)          117.3324         0.325947   
     53. A(C   2,C   3,C   4)          108.3391         0.355452   
     54. A(C   2,C   3,H  19)          104.0638         0.321070   
     55. A(C  12,C   3,H  19)          105.6408         0.308052   
     56. A(C   4,C   3,H  19)          105.6784         0.312252   
     57. A(C   2,C   3,C  12)          111.4287         0.350438   
     58. A(C   4,C   3,C  12)          120.2871         0.340505   
     59. A(C   3,C   4,C   5)          112.8513         0.351749   
     60. A(C   5,C   4,H  20)          104.7388         0.316972   
     61. A(C   7,C   4,H  20)          104.2194         0.319514   
     62. A(C   3,C   4,H  20)          103.0042         0.311401   
     63. A(C   3,C   4,C   7)          119.0329         0.354679   
     64. A(C   5,C   4,C   7)          111.1697         0.361334   
     65. A(H  21,C   5,H  22)          105.4104         0.285136   
     66. A(C   6,C   5,H  22)          107.5850         0.319501   
     67. A(C   4,C   5,H  22)          109.7126         0.317898   
     68. A(C   6,C   5,H  21)          109.8881         0.321397   
     69. A(C   4,C   5,H  21)          112.2331         0.319781   
     70. A(C   4,C   5,C   6)          111.7184         0.360217   
     71. A(H  23,C   6,H  24)          107.5208         0.283702   
     72. A(C   5,C   6,H  24)          108.7983         0.319631   
     73. A(C   1,C   6,H  24)          109.3943         0.323379   
     74. A(C   5,C   6,H  23)          108.6016         0.319568   
     75. A(C   1,C   6,H  23)          107.6346         0.323315   
     76. A(C   1,C   6,C   5)          114.6586         0.366554   
     77. A(C   8,C   7,C   9)          118.2604         0.413605   
     78. A(C   4,C   7,C   9)          123.4094         0.368586   
     79. A(C   4,C   7,C   8)          118.2712         0.408713   
     80. A(H  25,C   8,H  26)          117.2315         0.292201   
     81. A(C   7,C   8,H  26)          121.6623         0.363673   
     82. A(C   7,C   8,H  25)          121.1062         0.363607   
     83. A(C   7,C   9,C  10)          111.2936         0.369812   
     84. A(H  27,C   9,H  28)          104.8419         0.284366   
     85. A(C   7,C   9,H  28)          110.1867         0.323786   
     86. A(C  10,C   9,H  27)          112.2021         0.322665   
     87. A(C   7,C   9,H  27)          110.9117         0.325205   
     88. A(C  10,C   9,H  28)          107.1333         0.321261   
     89. A(C   9,C  10,C  11)          113.0818         0.364999   
     90. A(H  29,C  10,H  30)          105.7770         0.283422   
     91. A(C  11,C  10,H  30)          110.8831         0.319966   
     92. A(C  11,C  10,H  29)          107.2201         0.319829   
     93. A(C   9,C  10,H  29)          108.2774         0.321330   
     94. A(C   9,C  10,H  30)          111.2168         0.321468   
     95. A(C  12,C  11,H  31)          110.0129         0.311795   
     96. A(C  10,C  11,H  31)          108.3283         0.319769   
     97. A(C  10,C  11,C  12)          118.0291         0.353741   
     98. A(H  31,C  11,H  32)          104.7124         0.283105   
     99. A(C  12,C  11,H  32)          110.2452         0.311679   
    100. A(C  10,C  11,H  32)          104.6020         0.319649   
    101. A(C  13,C  12,C  14)          105.4898         0.352962   
    102. A(C  11,C  12,C  14)          109.9550         0.350030   
    103. A(C   3,C  12,C  14)          112.4132         0.345486   
    104. A(C  11,C  12,C  13)          105.3507         0.347464   
    105. A(C   3,C  12,C  13)          109.7505         0.342965   
    106. A(C   3,C  12,C  11)          113.3475         0.340144   
    107. A(H  34,C  13,H  35)          107.8989         0.283526   
    108. A(H  33,C  13,H  35)          106.5158         0.283561   
    109. A(C  12,C  13,H  35)          110.9918         0.314402   
    110. A(H  33,C  13,H  34)          108.6541         0.283701   
    111. A(C  12,C  13,H  34)          110.6991         0.314565   
    112. A(C  12,C  13,H  33)          111.9020         0.314605   
    113. A(H  37,C  14,H  38)          109.3931         0.285363   
    114. A(H  36,C  14,H  38)          107.3632         0.283782   
    115. A(C  12,C  14,H  38)          110.8137         0.316988   
    116. A(H  36,C  14,H  37)          105.8979         0.285161   
    117. A(C  12,C  14,H  37)          112.4391         0.318603   
    118. A(C  12,C  14,H  36)          110.6986         0.316755   
    119. D(C   2,C   1,C   0,H  16)    176.3839         0.012442   
    120. D(C   6,C   1,C   0,H  15)    123.3362         0.012442   
    121. D(C   6,C   1,C   0,H  16)      3.4571         0.012442   
    122. D(C   2,C   1,C   0,H  17)     56.4087         0.012442   
    123. D(C   2,C   1,C   0,H  15)    -63.7370         0.012442   
    124. D(C   3,C   2,C   1,C   0)    176.5031         0.037295   
    125. D(C   3,C   2,C   1,C   6)    -10.9014         0.037295   
    126. D(H  18,C   2,C   1,C   6)    172.3920         0.037295   
    127. D(H  18,C   2,C   1,C   0)     -0.2035         0.037295   
    128. D(H  19,C   3,C   2,C   1)    139.9063         0.010856   
    129. D(C  12,C   3,C   2,H  18)     70.0228         0.010856   
    130. D(C  12,C   3,C   2,C   1)   -106.7096         0.010856   
    131. D(C   4,C   3,C   2,H  18)   -155.4804         0.010856   
    132. D(C   4,C   3,C   2,C   1)     27.7872         0.010856   
    133. D(C   5,C   4,C   3,C   2)    -49.6935         0.008464   
    134. D(C   7,C   4,C   3,H  19)     66.2622         0.008464   
    135. D(C   7,C   4,C   3,C  12)    -52.9613         0.008464   
    136. D(C   7,C   4,C   3,C   2)    177.2970         0.008464   
    137. D(C   5,C   4,C   3,H  19)   -160.7283         0.008464   
    138. D(C   5,C   4,C   3,C  12)     80.0482         0.008464   
    139. D(H  21,C   5,C   4,H  20)   -178.9755         0.010325   
    140. D(H  21,C   5,C   4,C   7)     69.0464         0.010325   
    141. D(H  21,C   5,C   4,C   3)    -67.6690         0.010325   
    142. D(C   6,C   5,C   4,H  20)    -55.0296         0.010325   
    143. D(C   6,C   5,C   4,C   7)   -167.0078         0.010325   
    144. D(C   6,C   5,C   4,C   3)     56.2769         0.010325   
    145. D(H  23,C   6,C   1,C   2)   -106.3901         0.011715   
    146. D(H  23,C   6,C   1,C   0)     66.2378         0.011715   
    147. D(C   5,C   6,C   1,C   2)     14.5561         0.011715   
    148. D(H  24,C   6,C   1,C   0)    -50.3014         0.011715   
    149. D(C   5,C   6,C   1,C   0)   -172.8160         0.011715   
    150. D(H  23,C   6,C   5,H  21)   -150.9940         0.010937   
    151. D(H  23,C   6,C   5,C   4)     83.7510         0.010937   
    152. D(C   1,C   6,C   5,H  22)   -157.1336         0.010937   
    153. D(H  23,C   6,C   5,H  22)    -36.7207         0.010937   
    154. D(C   1,C   6,C   5,H  21)     88.5931         0.010937   
    155. D(C   1,C   6,C   5,C   4)    -36.6619         0.010937   
    156. D(C   9,C   7,C   4,C   5)   -103.3757         0.010598   
    157. D(C   9,C   7,C   4,C   3)     30.3535         0.010598   
    158. D(C   8,C   7,C   4,H  20)    -38.5288         0.010598   
    159. D(C   8,C   7,C   4,C   5)     73.7790         0.010598   
    160. D(C   8,C   7,C   4,C   3)   -152.4919         0.010598   
    161. D(H  26,C   8,C   7,C   9)     -1.2427         0.037639   
    162. D(H  26,C   8,C   7,C   4)   -178.5462         0.037639   
    163. D(H  25,C   8,C   7,C   9)    178.7067         0.037639   
    164. D(H  25,C   8,C   7,C   4)      1.4031         0.037639   
    165. D(H  28,C   9,C   7,C   4)   -175.7855         0.012033   
    166. D(H  27,C   9,C   7,C   8)   -108.5760         0.012033   
    167. D(H  27,C   9,C   7,C   4)     68.5789         0.012033   
    168. D(C  10,C   9,C   7,C   8)    125.7563         0.012033   
    169. D(C  10,C   9,C   7,C   4)    -57.0888         0.012033   
    170. D(H  29,C  10,C   9,H  28)    -27.8680         0.011740   
    171. D(H  29,C  10,C   9,H  27)     86.6722         0.011740   
    172. D(H  29,C  10,C   9,C   7)   -148.3799         0.011740   
    173. D(C  11,C  10,C   9,H  28)   -146.5309         0.011740   
    174. D(C  11,C  10,C   9,H  27)    -31.9907         0.011740   
    175. D(C  11,C  10,C   9,C   7)     92.9573         0.011740   
    176. D(H  31,C  11,C  10,H  29)    -49.2089         0.011121   
    177. D(H  31,C  11,C  10,C   9)     70.0653         0.011121   
    178. D(C  12,C  11,C  10,H  30)     69.9849         0.011121   
    179. D(C  12,C  11,C  10,H  29)   -174.9963         0.011121   
    180. D(H  31,C  11,C  10,H  30)   -164.2278         0.011121   
    181. D(C  12,C  11,C  10,C   9)    -55.7221         0.011121   
    182. D(C  13,C  12,C  11,H  31)     90.6307         0.008370   
    183. D(C  13,C  12,C  11,C  10)   -144.4069         0.008370   
    184. D(C   3,C  12,C  11,H  32)     95.6548         0.008370   
    185. D(C   3,C  12,C  11,H  31)   -149.3577         0.008370   
    186. D(C   3,C  12,C  11,C  10)    -24.3952         0.008370   
    187. D(C  13,C  12,C   3,H  19)     71.7168         0.007312   
    188. D(C  13,C  12,C   3,C   4)   -169.0409         0.007312   
    189. D(C  13,C  12,C   3,C   2)    -40.6768         0.007312   
    190. D(C  11,C  12,C   3,H  19)    -45.7569         0.007312   
    191. D(C  11,C  12,C   3,C   4)     73.4854         0.007312   
    192. D(C  13,C  12,C  11,H  32)    -24.3569         0.008370   
    193. D(C  11,C  12,C   3,C   2)   -158.1505         0.007312   
    194. D(H  34,C  13,C  12,C  14)   -173.1579         0.009143   
    195. D(H  34,C  13,C  12,C  11)     70.5258         0.009143   
    196. D(H  34,C  13,C  12,C   3)    -51.8332         0.009143   
    197. D(H  33,C  13,C  12,C  14)    -51.7965         0.009143   
    198. D(H  33,C  13,C  12,C  11)   -168.1128         0.009143   
    199. D(H  33,C  13,C  12,C   3)     69.5282         0.009143   
    200. D(H  37,C  14,C  12,C  13)   -167.5754         0.009901   
    201. D(H  37,C  14,C  12,C  11)    -54.4420         0.009901   
    202. D(H  37,C  14,C  12,C   3)     72.8461         0.009901   
    203. D(H  36,C  14,C  12,C  13)    -49.3560         0.009901   
    204. D(H  36,C  14,C  12,C  11)     63.7774         0.009901   
    205. D(H  36,C  14,C  12,C   3)   -168.9346         0.009901   
    -----------------------------------------------------------------

Number of atoms                         .... 39
Number of degrees of freedom            .... 205


         *************************************************************
         *                GEOMETRY OPTIMIZATION CYCLE   1            *
         *************************************************************
---------------------------------
CARTESIAN COORDINATES (ANGSTROEM)
---------------------------------
  C      3.657178   -1.477317   -0.911349
  C      2.456276   -0.642858   -0.556616
  C      1.257626   -0.977964   -1.077855
  C     -0.052719   -0.272867   -0.747322
  C      0.271256    1.212712   -0.352731
  C      1.390879    1.321584    0.700646
  C      2.675983    0.627270    0.236266
  C     -0.881355    2.163169   -0.033050
  C     -0.699790    3.481820   -0.247189
  C     -2.189928    1.710184    0.567815
  C     -2.856230    0.647624   -0.295333
  C     -2.498077   -0.779159    0.126361
  C     -0.976371   -1.170621    0.191193
  C     -0.912524   -2.657517   -0.273592
  C     -0.494755   -1.176261    1.661592
  H      3.522627   -2.509530   -0.524430
  H      4.583257   -1.053609   -0.468127
  H      3.781858   -1.513447   -2.014509
  H      1.207895   -1.839736   -1.739201
  H     -0.582770   -0.215814   -1.723705
  H      0.719070    1.629135   -1.287522
  H      1.081933    0.922191    1.680507
  H      1.633536    2.391874    0.880938
  H      3.246933    1.331551   -0.407272
  H      3.303524    0.403151    1.125851
  H      0.231623    3.860572   -0.657841
  H     -1.473300    4.208369   -0.017415
  H     -2.049217    1.372837    1.611648
  H     -2.897422    2.566812    0.637900
  H     -3.959058    0.754812   -0.191590
  H     -2.636812    0.809222   -1.373588
  H     -2.987273   -0.988416    1.104154
  H     -3.032751   -1.429947   -0.602455
  H      0.080776   -3.113152   -0.070417
  H     -1.125019   -2.738526   -1.361845
  H     -1.661409   -3.276946    0.268086
  H     -1.028351   -1.956773    2.246967
  H     -0.698296   -0.222119    2.174666
  H      0.591197   -1.402310    1.720362

----------------------------
CARTESIAN COORDINATES (A.U.)
----------------------------
  NO LB      ZA    FRAG     MASS         X           Y           Z
   0 C     4.0000*   0    12.011    6.911065   -2.791725   -1.722200
   1 C     4.0000*   0    12.011    4.641689   -1.214826   -1.051852
   2 C     4.0000*   0    12.011    2.376569   -1.848084   -2.036851
   3 C     4.0000*   0    12.011   -0.099624   -0.515644   -1.412234
   4 C     4.0000*   0    12.011    0.512600    2.291694   -0.666565
   5 C     4.0000*   0    12.011    2.628380    2.497432    1.324029
   6 C     4.0000*   0    12.011    5.056875    1.185369    0.446478
   7 C     4.0000*   0    12.011   -1.665520    4.087797   -0.062455
   8 C     4.0000*   0    12.011   -1.322411    6.579686   -0.467120
   9 C     4.0000*   0    12.011   -4.138364    3.231779    1.073015
  10 C     4.0000*   0    12.011   -5.397492    1.223832   -0.558098
  11 C     4.0000*   0    12.011   -4.720681   -1.472397    0.238788
  12 C     4.0000*   0    12.011   -1.845074   -2.212153    0.361302
  13 C     4.0000*   0    12.011   -1.724420   -5.021979   -0.517014
  14 C     4.0000*   0    12.011   -0.934951   -2.222811    3.139954
  15 H     1.0000    0     1.008    6.656800   -4.742324   -0.991029
  16 H     1.0000    0     1.008    8.661101   -1.991032   -0.884632
  17 H     1.0000    0     1.008    7.146676   -2.860000   -3.806870
  18 H     1.0000    0     1.008    2.282591   -3.476597   -3.286614
  19 H     1.0000    0     1.008   -1.101276   -0.407829   -3.257330
  20 H     1.0000    0     1.008    1.358845    3.078619   -2.433064
  21 H     1.0000    0     1.008    2.044557    1.742688    3.175698
  22 H     1.0000    0     1.008    3.086936    4.519987    1.664732
  23 H     1.0000    0     1.008    6.135814    2.516267   -0.769633
  24 H     1.0000    0     1.008    6.242756    0.761845    2.127550
  25 H     1.0000    0     1.008    0.437704    7.295424   -1.243139
  26 H     1.0000    0     1.008   -2.784134    7.952665   -0.032910
  27 H     1.0000    0     1.008   -3.872459    2.594286    3.045573
  28 H     1.0000    0     1.008   -5.475334    4.850572    1.205456
  29 H     1.0000    0     1.008   -7.481535    1.426388   -0.362053
  30 H     1.0000    0     1.008   -4.982853    1.529208   -2.595705
  31 H     1.0000    0     1.008   -5.645128   -1.867836    2.086549
  32 H     1.0000    0     1.008   -5.731069   -2.702208   -1.138475
  33 H     1.0000    0     1.008    0.152645   -5.883005   -0.133069
  34 H     1.0000    0     1.008   -2.125978   -5.175064   -2.573514
  35 H     1.0000    0     1.008   -3.139608   -6.192530    0.506609
  36 H     1.0000    0     1.008   -1.943302   -3.697765    4.246152
  37 H     1.0000    0     1.008   -1.319588   -0.419744    4.109523
  38 H     1.0000    0     1.008    1.117200   -2.649982    3.251013
* core charge reduced due to ECP

--------------------------------
INTERNAL COORDINATES (ANGSTROEM)
--------------------------------
 C      0   0   0     0.000000000000     0.00000000     0.00000000
 C      1   0   0     1.504766738592     0.00000000     0.00000000
 C      2   1   0     1.349350936138   118.69531779     0.00000000
 C      3   2   1     1.524276176591   124.40206980   176.50311864
 C      4   3   2     1.570861809055   108.33910845    27.78723469
 C      5   4   3     1.541107354678   112.85128809   310.30651235
 C      2   1   3     1.513326854370   118.23398259   187.07317046
 C      5   4   3     1.527768492911   119.03287191   177.29700034
 C      8   5   4     1.348206890780   118.27121773   207.50813914
 C      8   5   4     1.509502386477   123.40939624    30.35346696
 C     10   8   5     1.522503392019   111.29360419   302.91124011
 C     11  10   8     1.530297072510   113.08184197    92.95726069
 C     12  11  10     1.572588578142   118.02906770   304.27792729
 C     13  12  11     1.559154017552   105.35074403   215.59308045
 C     13  12  11     1.547274700968   109.95495702   102.37008924
 H      1   2   3     1.110528685596   109.67045115   296.26301932
 H      1   2   3     1.110673905694   111.08799124   176.38390856
 H      1   2   3     1.110771112741   109.98302597    56.40866884
 H      3   2   1     1.087429392678   118.18800866   359.79653166
 H      4   3   2     1.112444546977   104.06375093   139.90625709
 H      5   4   3     1.117040602309   103.00416818    62.68182629
 H      6   5   4     1.102311198658   112.23311499   292.33101248
 H      6   5   4     1.112163795946   109.71261775   175.49704292
 H      7   2   1     1.111816885510   107.63461716    66.23776972
 H      7   2   1     1.111484819989   109.39433077   309.69861229
 H      9   8   5     1.086102352072   121.10618649     1.40313095
 H      9   8   5     1.085811797954   121.66234338   181.45378930
 H     10   8   5     1.105979166087   110.91171657    68.57894712
 H     10   8   5     1.113225582551   110.18672836   184.21448887
 H     11  10   8     1.112870825827   108.27735838   211.62012503
 H     11  10   8     1.112156471614   111.21677885   327.42954949
 H     12  11  10     1.113184786688   108.32832639    70.06526532
 H     12  11  10     1.113810607364   104.60202882   181.33574193
 H     14  13  12     1.111543172283   111.90198018   191.88721452
 H     14  13  12     1.111760394651   110.69905148    70.52581196
 H     14  13  12     1.112625761409   110.99179490   310.73190643
 H     15  13  12     1.112019587950   110.69856877    63.77735373
 H     15  13  12     1.102297974379   112.43910192   305.55799204
 H     15  13  12     1.110785222086   110.81367251   182.78483401

---------------------------
INTERNAL COORDINATES (A.U.)
---------------------------
 C      0   0   0     0.000000000000     0.00000000     0.00000000
 C      1   0   0     2.843597031374     0.00000000     0.00000000
 C      2   1   0     2.549903727851   118.69531779     0.00000000
 C      3   2   1     2.880464526218   124.40206980   176.50311864
 C      4   3   2     2.968498613350   108.33910845    27.78723469
 C      5   4   3     2.912270843313   112.85128809   310.30651235
 C      2   1   3     2.859773305868   118.23398259   187.07317046
 C      5   4   3     2.887064047635   119.03287191   177.29700034
 C      8   5   4     2.547741795440   118.27121773   207.50813914
 C      8   5   4     2.852546108942   123.40939624    30.35346696
 C     10   8   5     2.877114448881   111.29360419   302.91124011
 C     11  10   8     2.891842370586   113.08184197    92.95726069
 C     12  11  10     2.971761734022   118.02906770   304.27792729
 C     13  12  11     2.946374093777   105.35074403   215.59308045
 C     13  12  11     2.923925438775   109.95495702   102.37008924
 H      1   2   3     2.098595079639   109.67045115   296.26301932
 H      1   2   3     2.098869505854   111.08799124   176.38390856
 H      1   2   3     2.099053200552   109.98302597    56.40866884
 H      3   2   1     2.054943742139   118.18800866   359.79653166
 H      4   3   2     2.102215532961   104.06375093   139.90625709
 H      5   4   3     2.110900818834   103.00416818    62.68182629
 H      6   5   4     2.083066279817   112.23311499   292.33101248
 H      6   5   4     2.101684990400   109.71261775   175.49704292
 H      7   2   1     2.101029424683   107.63461716    66.23776972
 H      7   2   1     2.100401911791   109.39433077   309.69861229
 H      9   8   5     2.052435998824   121.10618649     1.40313095
 H      9   8   5     2.051886931114   121.66234338   181.45378930
 H     10   8   5     2.089997733727   110.91171657    68.57894712
 H     10   8   5     2.103691476295   110.18672836   184.21448887
 H     11  10   8     2.103021083244   108.27735838   211.62012503
 H     11  10   8     2.101671149419   111.21677885   327.42954949
 H     12  11  10     2.103614383288   108.32832639    70.06526532
 H     12  11  10     2.104797012974   104.60202882   181.33574193
 H     14  13  12     2.100512181646   111.90198018   191.88721452
 H     14  13  12     2.100922672431   110.69905148    70.52581196
 H     14  13  12     2.102557978608   110.99179490   310.73190643
 H     15  13  12     2.101412476782   110.69856877    63.77735373
 H     15  13  12     2.083041289553   112.43910192   305.55799204
 H     15  13  12     2.099079863350   110.81367251   182.78483401

---------------------
BASIS SET INFORMATION
---------------------
There are 2 groups of distinct atoms

 Group   1 Type C   : 6s6p2d contracted to 2s2p1d pattern {42/42/2}
 Group   2 Type H   : 8s2p contracted to 2s1p pattern {53/2}

Atom   0C    basis set group =>   1
Atom   1C    basis set group =>   1
Atom   2C    basis set group =>   1
Atom   3C    basis set group =>   1
Atom   4C    basis set group =>   1
Atom   5C    basis set group =>   1
Atom   6C    basis set group =>   1
Atom   7C    basis set group =>   1
Atom   8C    basis set group =>   1
Atom   9C    basis set group =>   1
Atom  10C    basis set group =>   1
Atom  11C    basis set group =>   1
Atom  12C    basis set group =>   1
Atom  13C    basis set group =>   1
Atom  14C    basis set group =>   1
Atom  15H    basis set group =>   2
Atom  16H    basis set group =>   2
Atom  17H    basis set group =>   2
Atom  18H    basis set group =>   2
Atom  19H    basis set group =>   2
Atom  20H    basis set group =>   2
Atom  21H    basis set group =>   2
Atom  22H    basis set group =>   2
Atom  23H    basis set group =>   2
Atom  24H    basis set group =>   2
Atom  25H    basis set group =>   2
Atom  26H    basis set group =>   2
Atom  27H    basis set group =>   2
Atom  28H    basis set group =>   2
Atom  29H    basis set group =>   2
Atom  30H    basis set group =>   2
Atom  31H    basis set group =>   2
Atom  32H    basis set group =>   2
Atom  33H    basis set group =>   2
Atom  34H    basis set group =>   2
Atom  35H    basis set group =>   2
Atom  36H    basis set group =>   2
Atom  37H    basis set group =>   2
Atom  38H    basis set group =>   2
---------------------------------
AUXILIARY/J BASIS SET INFORMATION
---------------------------------
There are 2 groups of distinct atoms

 Group   1 Type C   : 12s5p4d2f1g contracted to 6s4p3d1f1g pattern {711111/2111/211/2/1}
 Group   2 Type H   : 5s2p1d contracted to 3s1p1d pattern {311/2/1}

Atom   0C    basis set group =>   1
Atom   1C    basis set group =>   1
Atom   2C    basis set group =>   1
Atom   3C    basis set group =>   1
Atom   4C    basis set group =>   1
Atom   5C    basis set group =>   1
Atom   6C    basis set group =>   1
Atom   7C    basis set group =>   1
Atom   8C    basis set group =>   1
Atom   9C    basis set group =>   1
Atom  10C    basis set group =>   1
Atom  11C    basis set group =>   1
Atom  12C    basis set group =>   1
Atom  13C    basis set group =>   1
Atom  14C    basis set group =>   1
Atom  15H    basis set group =>   2
Atom  16H    basis set group =>   2
Atom  17H    basis set group =>   2
Atom  18H    basis set group =>   2
Atom  19H    basis set group =>   2
Atom  20H    basis set group =>   2
Atom  21H    basis set group =>   2
Atom  22H    basis set group =>   2
Atom  23H    basis set group =>   2
Atom  24H    basis set group =>   2
Atom  25H    basis set group =>   2
Atom  26H    basis set group =>   2
Atom  27H    basis set group =>   2
Atom  28H    basis set group =>   2
Atom  29H    basis set group =>   2
Atom  30H    basis set group =>   2
Atom  31H    basis set group =>   2
Atom  32H    basis set group =>   2
Atom  33H    basis set group =>   2
Atom  34H    basis set group =>   2
Atom  35H    basis set group =>   2
Atom  36H    basis set group =>   2
Atom  37H    basis set group =>   2
Atom  38H    basis set group =>   2
-------------------------
ECP PARAMETER INFORMATION
-------------------------

 Group 1, Type C  ECP vDZP-ECP (replacing 2 core electrons, lmax=3)

Atom   0C    ECP group =>   1
Atom   1C    ECP group =>   1
Atom   2C    ECP group =>   1
Atom   3C    ECP group =>   1
Atom   4C    ECP group =>   1
Atom   5C    ECP group =>   1
Atom   6C    ECP group =>   1
Atom   7C    ECP group =>   1
Atom   8C    ECP group =>   1
Atom   9C    ECP group =>   1
Atom  10C    ECP group =>   1
Atom  11C    ECP group =>   1
Atom  12C    ECP group =>   1
Atom  13C    ECP group =>   1
Atom  14C    ECP group =>   1



           ************************************************************
           *        Program running with 40 parallel MPI-processes    *
           *              working on a common directory               *
           ************************************************************
------------------------------------------------------------------------------
                             ORCA STARTUP CALCULATIONS
                           -- RI-GTO INTEGRALS CHOSEN --
------------------------------------------------------------------------------
------------------------------------------------------------------------------
                   ___                                                        
                  /   \      - P O W E R E D   B Y -                         
                 /     \                                                     
                 |  |  |   _    _      __       _____    __    __             
                 |  |  |  | |  | |    /  \     |  _  \  |  |  /  |          
                  \  \/   | |  | |   /    \    | | | |  |  | /  /          
                 / \  \   | |__| |  /  /\  \   | |_| |  |  |/  /          
                |  |  |   |  __  | /  /__\  \  |    /   |      \           
                |  |  |   | |  | | |   __   |  |    \   |  |\   \          
                \     /   | |  | | |  |  |  |  | |\  \  |  | \   \       
                 \___/    |_|  |_| |__|  |__|  |_| \__\ |__|  \__/        
                                                                              
                      - O R C A' S   B I G   F R I E N D -                    
                                      &                                       
                       - I N T E G R A L  F E E D E R -                       
                                                                              
 v1 FN, 2020, v2 2021, v3 2022-2024                                           
------------------------------------------------------------------------------


----------------------
SHARK INTEGRAL PACKAGE
----------------------

Number of atoms                             ...     39
Number of basis functions                   ...    315
Number of shells                            ...    147
Maximum angular momentum                    ...      2
Integral batch strategy                     ... SHARK/LIBINT Hybrid
RI-J (if used) integral strategy            ... SPLIT-RIJ (Revised 2003 algorithm where possible)
Printlevel                                  ...      1
Contraction scheme used                     ... SEGMENTED contraction
Prescreening option                         ... SCHWARTZ
   Thresh                                   ... 2.500e-11
   Tcut                                     ... 2.500e-12
   Tpresel                                  ... 2.500e-12 
Coulomb Range Separation                    ... NOT USED
Exchange Range Separation                   ... Long Range
   Mu parameter                             ... 3.000e-01
   Scaling (regular/separated)              ... 1.670e-01 8.330e-01
Multipole approximations                    ... NOT USED
Finite Nucleus Model                        ... NOT USED
CABS basis                                  ... NOT available
Auxiliary Coulomb fitting basis             ... AVAILABLE
   # of basis functions in Aux-J            ...    999
   # of shells in Aux-J                     ...    345
   Maximum angular momentum in Aux-J        ...      4
Auxiliary J/K fitting basis                 ... NOT available
Auxiliary Correlation fitting basis         ... NOT available
Auxiliary 'external' fitting basis          ... NOT available

Checking pre-screening integrals            ... done (  0.0 sec) Dimension = 147
Check shell pair data                       ... done (  0.0 sec)
Shell pair information
Shell pair cut-off parameter TPreSel        ...   2.5e-12
Total number of shell pairs                 ...     10878
Shell pairs after pre-screening             ...     10826
Total number of primitive shell pairs       ...    102036
Primitive shell pairs kept                  ...     79164
          la=0 lb=0:   3072 shell pairs
          la=1 lb=0:   4190 shell pairs
          la=1 lb=1:   1464 shell pairs
          la=2 lb=0:   1170 shell pairs
          la=2 lb=1:    810 shell pairs
          la=2 lb=2:    120 shell pairs

Calculating one electron integrals          ... done (  0.0 sec)
Calculating ECP integrals                   ... done (  0.2 sec)
Calculating RI/J V-Matrix + Cholesky decomp.... done (  0.0 sec)
Calculating Nuclear repulsion               ... done (  0.0 sec) ENN=    578.645156169488 Eh

Diagonalization of the overlap matrix:
Smallest eigenvalue                        ... 8.988e-04
Time for diagonalization                   ...    0.014 sec
Threshold for overlap eigenvalues          ... 1.000e-07
Number of eigenvalues below threshold      ... 0
Time for construction of square roots      ...    0.009 sec
Total time needed                          ...    0.027 sec

-------------------
DFT GRID GENERATION
-------------------

General Integration Accuracy     IntAcc      ... 4.388
Radial Grid Type                 RadialGrid  ... OptM3 with GC (2021)
Angular Grid (max. ang.)         AngularGrid ... 4 (Lebedev-302)
Angular grid pruning method      GridPruning ... 4 (adaptive)
Weight generation scheme         WeightScheme... mBecke (2022)
Basis function cutoff            BFCut       ... 1.0000e-11
Integration weight cutoff        WCut        ... 1.0000e-14
Partially contracted basis set               ... off
Rotationally invariant grid construction     ... off
Angular grids for H and He will be reduced by one unit

Total number of grid points                  ...   164578
Total number of batches                      ...     2586
Average number of points per batch           ...       63
Average number of grid points per atom       ...     4220

--------------------
COSX GRID GENERATION
--------------------

GRIDX 1
-------
General Integration Accuracy     IntAcc      ... 3.816
Radial Grid Type                 RadialGrid  ... OptM3 with GC (2021)
Angular Grid (max. ang.)         AngularGrid ... 1 (Lebedev-50)
Angular grid pruning method      GridPruning ... 4 (adaptive)
Weight generation scheme         WeightScheme... mBecke (2022)
Basis function cutoff            BFCut       ... 1.0000e-11
Integration weight cutoff        WCut        ... 1.0000e-14
Partially contracted basis set               ... on
Rotationally invariant grid construction     ... off
Angular grids for H and He will be reduced by one unit

Total number of grid points                  ...    20979
Total number of batches                      ...      191
Average number of points per batch           ...      109
Average number of grid points per atom       ...      538
UseSFitting                                  ... on

GRIDX 2
-------
General Integration Accuracy     IntAcc      ... 4.020
Radial Grid Type                 RadialGrid  ... OptM3 with GC (2021)
Angular Grid (max. ang.)         AngularGrid ... 2 (Lebedev-110)
Angular grid pruning method      GridPruning ... 4 (adaptive)
Weight generation scheme         WeightScheme... mBecke (2022)
Basis function cutoff            BFCut       ... 1.0000e-11
Integration weight cutoff        WCut        ... 1.0000e-14
Partially contracted basis set               ... on
Rotationally invariant grid construction     ... off
Angular grids for H and He will be reduced by one unit

Total number of grid points                  ...    43361
Total number of batches                      ...      357
Average number of points per batch           ...      121
Average number of grid points per atom       ...     1112
UseSFitting                                  ... on

GRIDX 3
-------
General Integration Accuracy     IntAcc      ... 4.338
Radial Grid Type                 RadialGrid  ... OptM3 with GC (2021)
Angular Grid (max. ang.)         AngularGrid ... 3 (Lebedev-194)
Angular grid pruning method      GridPruning ... 4 (adaptive)
Weight generation scheme         WeightScheme... mBecke (2022)
Basis function cutoff            BFCut       ... 1.0000e-11
Integration weight cutoff        WCut        ... 1.0000e-14
Partially contracted basis set               ... on
Rotationally invariant grid construction     ... off
Angular grids for H and He will be reduced by one unit

Total number of grid points                  ...    94104
Total number of batches                      ...      755
Average number of points per batch           ...      124
Average number of grid points per atom       ...     2413
UseSFitting                                  ... on
Initializing property integral containers    ... done (  0.0 sec)

SHARK setup successfully completed in   5.1 seconds

Maximum memory used throughout the entire STARTUP-calculation: 52.1 MB


           ************************************************************
           *        Program running with 40 parallel MPI-processes    *
           *              working on a common directory               *
           ************************************************************
-------------------------------------------------------------------------------
                                 ORCA GUESS
                   Start orbitals & Density for SCF / CASSCF
-------------------------------------------------------------------------------

------------
SCF SETTINGS
------------
Hamiltonian:
 Density Functional     Method          .... DFT(GTOs)
 Exchange Functional    Exchange        .... WB97X-V
 Correlation Functional Correlation     .... WB97X-V
 Gradients option       PostSCFGGA      .... off
 Hybrid DFT is turned on
   Fraction HF Exchange ScalHFX         ....  0.167000
   Scaling of DF-GGA-X  ScalDFX         ....  0.000000
   Scaling of DF-GGA-C  ScalDFC         ....  1.000000
   Scaling of DF-LDA-C  ScalLDAC        ....  1.000000
   Perturbative correction              ....  0.000000
 Long-range corrected/Screened/Range-Separated Hybrid DFT is turned on
   Amount of maximum screened exact exchange              ....  0.833000
   Range separation parameter mu (erf(mu*r12)/r12)        ....  0.300000
   NL short-range parameter             ....  6.000000
   NL long-range parameter              ....  0.010000
 RI-approximation to the Coulomb term is turned on
   Number of AuxJ basis functions       .... 999
   RIJ-COSX (HFX calculated with COS-X)).... on


General Settings:
 Integral files         IntName         .... ./output/alpha_himachalene/alpha_himachalene
 Hartree-Fock type      HFTyp           .... RHF
 Total Charge           Charge          ....    0
 Multiplicity           Mult            ....    1
 Number of Electrons    NEL             ....   84
 Basis Dimension        Dim             ....  315
 Nuclear Repulsion      ENuc            ....    578.6451561695 Eh

Convergence Acceleration:
 AO-DIIS                CNVDIIS         .... on
   Start iteration      DIISMaxIt       ....    12
   Startup error        DIISStart       ....  0.200000
   # of expansion vecs  DIISMaxEq       ....     5
   Bias factor          DIISBfac        ....   1.050
   Max. coefficient     DIISMaxC        ....  10.000
 MO-DIIS                CNVKDIIS        .... off
 Trust-Rad. Augm. Hess. CNVTRAH         .... auto
   Auto Start mean grad. ratio tolernc. ....  1.125000
   Auto Start start iteration           ....    50
   Auto Start num. interpolation iter.  ....    10
   Max. Number of Micro iterations      ....    24
   Max. Number of Macro iterations      .... Maxiter - #DIIS iter
   Number of Davidson start vectors     ....     2
   Converg. threshold    (grad. norm)   ....   1.000e-05
   Grad. Scal. Fac. for Micro threshold ....   0.100
   Minimum threshold for Micro iter.    ....   1.000e-02
   NR start threshold (gradient norm)   ....   1.000e-04
   Initial trust radius                 ....   0.400
   Minimum AH scaling param. (alpha)    ....   1.000
   Maximum AH scaling param. (alpha)    .... 1000.000
   Quad. conv. algorithm                .... NR
   White noise on init. David. guess    .... on
   Maximum white noise                  ....   0.010
   Pseudo random numbers                .... off
   Inactive MOs                         .... canonical
   Orbital update algorithm             .... Taylor
   Preconditioner                       .... Diag
   Full preconditioner red. dimension   ....   250
 SOSCF                  CNVSOSCF        .... on
   Start iteration      SOSCFMaxIt      ....   150
   Startup grad/error   SOSCFStart      ....  0.003300
   Hessian update       SOSCFHessUp     .... L-BFGS
 Level Shifting         CNVShift        .... on
   Level shift para.    LevelShift      ....    0.2500
   Turn off err/grad.   ShiftErr        ....    0.0010
 Zerner damping         CNVZerner       .... off
 Static damping         CNVDamp         .... on
   Fraction old density DampFac         ....    0.7000
   Max. Damping (<1)    DampMax         ....    0.9800
   Min. Damping (>=0)   DampMin         ....    0.0000
   Turn off err/grad.   DampErr         ....    0.1000

SCF Procedure:
 Maximum # iterations   MaxIter         ....   125
 SCF integral mode      SCFMode         .... Direct
   Integral package                     .... SHARK and LIBINT hybrid scheme
 Reset frequency        DirectResetFreq ....    20
 Integral Threshold     Thresh          ....  2.500e-11 Eh
 Primitive CutOff       TCut            ....  2.500e-12 Eh

Convergence Tolerance:
 Convergence Check Mode ConvCheckMode   .... Total+1el-Energy
 Convergence forced     ConvForced      .... 0
 Energy Change          TolE            ....  1.000e-08 Eh
 1-El. energy change                    ....  1.000e-05 Eh
 Orbital Gradient       TolG            ....  1.000e-05
 Orbital Rotation angle TolX            ....  1.000e-05
 DIIS Error             TolErr          ....  5.000e-07

------------------------------
INITIAL GUESS: MODEL POTENTIAL
------------------------------
Loading Hartree-Fock densities                     ... done
Atomic calculation to generate a density for atom 0 (C  with ECP)
  Multiplicity assumed   :    1
  Atomic configuration   : 1s2 2s2 2p2 
  Number of open shells  : 1
  Command: /home/aspe232/Project/Software/ORCA/6_0_1/build/orca ./output/alpha_himachalene/alpha_himachalene_atom6.inp "" > ./output/alpha_himachalene/alpha_himachalene_atom6.out
Returned from the atomic calculation with res=0
Calculating cut-offs                               ... done
Initializing the effective Hamiltonian             ... done
Setting up the integral package (SHARK)            ... done
Starting the Coulomb interaction                   ... done (   0.1 sec)
Making the grid                                    ... done (   1.1 sec)
Mapping shells                                     ... done
Starting the XC term evaluation                    ... done (   0.1 sec)
  promolecular density results
     # of electrons  =    113.990633906
     EX              =    -55.369988764
     EC              =     -4.564907250
     EX+EC           =    -59.934896014
Transforming the Hamiltonian                       ... done (   0.0 sec)
Diagonalizing the Hamiltonian                      ... done (   0.0 sec)
Back transforming the eigenvectors                 ... done (   0.0 sec)
Now organizing SCF variables                       ... done
                      ------------------
                      INITIAL GUESS DONE (   1.8 sec)
                      ------------------
             **** ENERGY FILE WAS UPDATED (./output/alpha_himachalene/alpha_himachalene.en.tmp) ****
Finished Guess after   2.9 sec
Maximum memory used throughout the entire GUESS-calculation: 34.9 MB


           ************************************************************
           *        Program running with 40 parallel MPI-processes    *
           *              working on a common directory               *
           ************************************************************

-------------------------------------------------------------------------------------------
                                      ORCA LEAN-SCF
                              memory conserving SCF solver
-------------------------------------------------------------------------------------------

----------------------------------------D-I-I-S--------------------------------------------
Iteration    Energy (Eh)           Delta-E    RMSDP     MaxDP     DIISErr   Damp  Time(sec)
-------------------------------------------------------------------------------------------
               ***  Starting incremental Fock matrix formation  ***
    1    -99.1862561059580230     0.00e+00  3.46e-03  8.05e-02  1.97e-01  0.700   8.7
    2    -99.4553950251456627    -2.69e-01  2.53e-03  5.84e-02  1.17e-01  0.700   6.3
                               ***Turning on AO-DIIS***
    3    -99.5948702677325173    -1.39e-01  1.33e-03  3.01e-02  6.01e-02  0.700   5.6
    4    -99.6771304024396159    -8.23e-02  2.89e-03  6.28e-02  3.74e-02  0.000   5.8
    5    -99.8501136552387152    -1.73e-01  2.19e-04  7.14e-03  6.65e-03  0.000   6.4
                              *** Initializing SOSCF ***
---------------------------------------S-O-S-C-F--------------------------------------
Iteration    Energy (Eh)           Delta-E    RMSDP     MaxDP     MaxGrad    Time(sec)
--------------------------------------------------------------------------------------
    6    -99.8506260674046189    -5.12e-04  1.03e-04  1.79e-03  2.02e-03     5.9
               *** Restarting incremental Fock matrix formation ***
    7    -99.8507525850592401    -1.27e-04  5.98e-05  1.12e-03  2.77e-04     8.4
    8    -99.8507677150228119    -1.51e-05  3.90e-05  9.32e-04  3.25e-04     7.4
    9    -99.8507710662441923    -3.35e-06  1.41e-05  2.47e-04  9.99e-05     7.5
   10    -99.8507717489468405    -6.83e-07  2.54e-06  7.01e-05  1.37e-05     7.3
   11    -99.8507717563916231    -7.44e-09  7.59e-07  2.49e-05  1.05e-05     6.7
                 **** Energy Check signals convergence ****

               *****************************************************
               *                     SUCCESS                       *
               *           SCF CONVERGED AFTER  11 CYCLES          *
               *****************************************************

Recomputing exchange energy using gridx3       ... done (   10.001 sec)
Old exchange energy                            :    -15.881459878 Eh
New exchange energy                            :    -15.881426621 Eh
Exchange energy change after final integration :      0.000033257 Eh
Total energy after final integration           :    -99.850738499 Eh
             **** ENERGY FILE WAS UPDATED (./output/alpha_himachalene/alpha_himachalene.en.tmp) ****

----------------
TOTAL SCF ENERGY
----------------

Total Energy       :        -99.85073849908150 Eh           -2717.07673 eV

Components:
Nuclear Repulsion  :        578.64515616948836 Eh           15745.73520 eV
Electronic Energy  :       -678.49592792587998 Eh          -18462.81283 eV
One Electron Energy:      -1296.23320143561568 Eh          -35272.29862 eV
Two Electron Energy:        617.73727350973570 Eh           16809.48579 eV

Virial components:
Potential Energy   :       -177.63938600649726 Eh           -4833.81344 eV
Kinetic Energy     :         77.78864750741575 Eh            2116.73671 eV
Virial Ratio       :          2.28361581925644

DFT components:
N(Alpha)           :       41.999960002618 electrons
N(Beta)            :       41.999960002618 electrons
N(Total)           :       83.999920005235 electrons
E(X)               :      -16.063728328678 Eh       
E(C)               :       -3.139123054938 Eh       
E(XC)              :      -19.202851383616 Eh       

---------------
SCF CONVERGENCE
---------------

  Last Energy change         ...    7.4448e-09  Tolerance :   1.0000e-08
  Last MAX-Density change    ...    2.4950e-05  Tolerance :   1.0000e-07
  Last RMS-Density change    ...    7.5856e-07  Tolerance :   5.0000e-09
  Last DIIS Error            ...    2.0225e-03  Tolerance :   5.0000e-07
  Last Orbital Gradient      ...    1.0507e-05  Tolerance :   1.0000e-05
  Last Orbital Rotation      ...    2.4639e-05  Tolerance :   1.0000e-05


----------------
ORBITAL ENERGIES
----------------

  NO   OCC          E(Eh)            E(eV) 
   0   2.0000      -0.992357       -27.0034 
   1   2.0000      -0.952832       -25.9279 
   2   2.0000      -0.939601       -25.5678 
   3   2.0000      -0.902930       -24.5700 
   4   2.0000      -0.874763       -23.8035 
   5   2.0000      -0.857600       -23.3365 
   6   2.0000      -0.810844       -22.0642 
   7   2.0000      -0.809972       -22.0405 
   8   2.0000      -0.791929       -21.5495 
   9   2.0000      -0.753050       -20.4915 
  10   2.0000      -0.724225       -19.7072 
  11   2.0000      -0.718504       -19.5515 
  12   2.0000      -0.655942       -17.8491 
  13   2.0000      -0.646349       -17.5880 
  14   2.0000      -0.616162       -16.7666 
  15   2.0000      -0.590573       -16.0703 
  16   2.0000      -0.581615       -15.8266 
  17   2.0000      -0.567576       -15.4445 
  18   2.0000      -0.555211       -15.1081 
  19   2.0000      -0.544713       -14.8224 
  20   2.0000      -0.537509       -14.6264 
  21   2.0000      -0.533800       -14.5254 
  22   2.0000      -0.530376       -14.4323 
  23   2.0000      -0.522738       -14.2244 
  24   2.0000      -0.510223       -13.8839 
  25   2.0000      -0.501961       -13.6591 
  26   2.0000      -0.497119       -13.5273 
  27   2.0000      -0.486059       -13.2263 
  28   2.0000      -0.479725       -13.0540 
  29   2.0000      -0.471564       -12.8319 
  30   2.0000      -0.467752       -12.7282 
  31   2.0000      -0.459377       -12.5003 
  32   2.0000      -0.453089       -12.3292 
  33   2.0000      -0.443464       -12.0673 
  34   2.0000      -0.430148       -11.7049 
  35   2.0000      -0.418485       -11.3876 
  36   2.0000      -0.410801       -11.1785 
  37   2.0000      -0.403602       -10.9826 
  38   2.0000      -0.395795       -10.7701 
  39   2.0000      -0.388788       -10.5795 
  40   2.0000      -0.335202        -9.1213 
  41   2.0000      -0.323668        -8.8075 
  42   0.0000       0.079333         2.1588 
  43   0.0000       0.084989         2.3127 
  44   0.0000       0.091463         2.4888 
  45   0.0000       0.095103         2.5879 
  46   0.0000       0.102989         2.8025 
  47   0.0000       0.104472         2.8428 
  48   0.0000       0.112034         3.0486 
  49   0.0000       0.118770         3.2319 
  50   0.0000       0.120673         3.2837 
  51   0.0000       0.132587         3.6079 
  52   0.0000       0.137801         3.7498 
*Only the first 10 virtual orbitals were printed.

                    ********************************
                    * MULLIKEN POPULATION ANALYSIS *
                    ********************************

-----------------------
MULLIKEN ATOMIC CHARGES
-----------------------
   0 C :   -0.094307
   1 C :   -0.059994
   2 C :    0.001745
   3 C :   -0.070649
   4 C :   -0.108326
   5 C :   -0.015823
   6 C :   -0.074706
   7 C :   -0.041869
   8 C :   -0.030347
   9 C :   -0.052582
  10 C :   -0.062881
  11 C :   -0.021612
  12 C :   -0.194994
  13 C :   -0.048324
  14 C :   -0.012173
  15 H :    0.050204
  16 H :    0.033445
  17 H :    0.055311
  18 H :    0.011813
  19 H :    0.045382
  20 H :    0.059387
  21 H :    0.025495
  22 H :    0.043787
  23 H :    0.052194
  24 H :    0.046570
  25 H :    0.018720
  26 H :    0.021946
  27 H :    0.039078
  28 H :    0.036691
  29 H :    0.037985
  30 H :    0.042525
  31 H :    0.035225
  32 H :    0.033718
  33 H :    0.034052
  34 H :    0.033914
  35 H :    0.037263
  36 H :    0.033857
  37 H :    0.017144
  38 H :    0.041135
Sum of atomic charges:    0.0000000

--------------------------------
MULLIKEN REDUCED ORBITAL CHARGES
--------------------------------
  0 C s       :     0.958892  s :     0.958892
      pz      :     1.047658  p :     3.061888
      px      :     0.995017
      py      :     1.019213
      dz2     :     0.017520  d :     0.073526
      dxz     :     0.013401
      dyz     :     0.008039
      dx2y2   :     0.019622
      dxy     :     0.014945

  1 C s       :     1.084289  s :     1.084289
      pz      :     0.948227  p :     2.855456
      px      :     0.971278
      py      :     0.935951
      dz2     :     0.016782  d :     0.120250
      dxz     :     0.025988
      dyz     :     0.014445
      dx2y2   :     0.029316
      dxy     :     0.033719

  2 C s       :     1.005565  s :     1.005565
      pz      :     0.981820  p :     2.900859
      px      :     0.937951
      py      :     0.981089
      dz2     :     0.009468  d :     0.091830
      dxz     :     0.022083
      dyz     :     0.012625
      dx2y2   :     0.024972
      dxy     :     0.022683

  3 C s       :     1.019095  s :     1.019095
      pz      :     1.014911  p :     2.932548
      px      :     0.982145
      py      :     0.935492
      dz2     :     0.021506  d :     0.119006
      dxz     :     0.027328
      dyz     :     0.017845
      dx2y2   :     0.026093
      dxy     :     0.026233

  4 C s       :     1.028019  s :     1.028019
      pz      :     1.029521  p :     2.959155
      px      :     0.965336
      py      :     0.964299
      dz2     :     0.021722  d :     0.121152
      dxz     :     0.025468
      dyz     :     0.022427
      dx2y2   :     0.023991
      dxy     :     0.027544

  5 C s       :     0.990707  s :     0.990707
      pz      :     0.993496  p :     2.926807
      px      :     0.905249
      py      :     1.028062
      dz2     :     0.022733  d :     0.098308
      dxz     :     0.022442
      dyz     :     0.012417
      dx2y2   :     0.023233
      dxy     :     0.017483

  6 C s       :     0.992020  s :     0.992020
      pz      :     1.020324  p :     2.981461
      px      :     0.996283
      py      :     0.964854
      dz2     :     0.013998  d :     0.101226
      dxz     :     0.025919
      dyz     :     0.020805
      dx2y2   :     0.018847
      dxy     :     0.021657

  7 C s       :     1.074015  s :     1.074015
      pz      :     0.935305  p :     2.848030
      px      :     0.921622
      py      :     0.991103
      dz2     :     0.010893  d :     0.119823
      dxz     :     0.015769
      dyz     :     0.026273
      dx2y2   :     0.030029
      dxy     :     0.036859

  8 C s       :     0.983497  s :     0.983497
      pz      :     1.016681  p :     2.981930
      px      :     0.990134
      py      :     0.975115
      dz2     :     0.003527  d :     0.064919
      dxz     :     0.004532
      dyz     :     0.014699
      dx2y2   :     0.014069
      dxy     :     0.028093

  9 C s       :     0.985543  s :     0.985543
      pz      :     1.007313  p :     2.966618
      px      :     0.957645
      py      :     1.001660
      dz2     :     0.026668  d :     0.100422
      dxz     :     0.014576
      dyz     :     0.015395
      dx2y2   :     0.017265
      dxy     :     0.026518

 10 C s       :     1.002608  s :     1.002608
      pz      :     1.014475  p :     2.959153
      px      :     1.032780
      py      :     0.911898
      dz2     :     0.028367  d :     0.101119
      dxz     :     0.007122
      dyz     :     0.020291
      dx2y2   :     0.028746
      dxy     :     0.016593

 11 C s       :     0.992345  s :     0.992345
      pz      :     1.040833  p :     2.931697
      px      :     0.932835
      py      :     0.958029
      dz2     :     0.015360  d :     0.097569
      dxz     :     0.020596
      dyz     :     0.017632
      dx2y2   :     0.021162
      dxy     :     0.022819

 12 C s       :     1.109426  s :     1.109426
      pz      :     0.991833  p :     2.948216
      px      :     0.969207
      py      :     0.987176
      dz2     :     0.030926  d :     0.137353
      dxz     :     0.026147
      dyz     :     0.025614
      dx2y2   :     0.030529
      dxy     :     0.024138

 13 C s       :     0.958029  s :     0.958029
      pz      :     1.024619  p :     3.014972
      px      :     1.042384
      py      :     0.947969
      dz2     :     0.021028  d :     0.075322
      dxz     :     0.007826
      dyz     :     0.012101
      dx2y2   :     0.013196
      dxy     :     0.021172

 14 C s       :     0.942198  s :     0.942198
      pz      :     0.944528  p :     2.995944
      px      :     1.026146
      py      :     1.025270
      dz2     :     0.015257  d :     0.074031
      dxz     :     0.011622
      dyz     :     0.022496
      dx2y2   :     0.016517
      dxy     :     0.008140

 15 H s       :     0.905748  s :     0.905748
      pz      :     0.011728  p :     0.044048
      px      :     0.010218
      py      :     0.022102

 16 H s       :     0.922528  s :     0.922528
      pz      :     0.012314  p :     0.044027
      px      :     0.019884
      py      :     0.011829

 17 H s       :     0.900395  s :     0.900395
      pz      :     0.023490  p :     0.044294
      px      :     0.010412
      py      :     0.010393

 18 H s       :     0.939129  s :     0.939129
      pz      :     0.017879  p :     0.049058
      px      :     0.009951
      py      :     0.021228

 19 H s       :     0.913952  s :     0.913952
      pz      :     0.019307  p :     0.040665
      px      :     0.012849
      py      :     0.008509

 20 H s       :     0.900619  s :     0.900619
      pz      :     0.018848  p :     0.039994
      px      :     0.011160
      py      :     0.009985

 21 H s       :     0.929674  s :     0.929674
      pz      :     0.020537  p :     0.044831
      px      :     0.011443
      py      :     0.012851

 22 H s       :     0.913394  s :     0.913394
      pz      :     0.009816  p :     0.042819
      px      :     0.010223
      py      :     0.022779

 23 H s       :     0.905501  s :     0.905501
      pz      :     0.014281  p :     0.042305
      px      :     0.012728
      py      :     0.015297

 24 H s       :     0.910550  s :     0.910550
      pz      :     0.018463  p :     0.042880
      px      :     0.014135
      py      :     0.010283

 25 H s       :     0.930879  s :     0.930879
      pz      :     0.016454  p :     0.050400
      px      :     0.022386
      py      :     0.011560

 26 H s       :     0.927222  s :     0.927222
      pz      :     0.015437  p :     0.050832
      px      :     0.018838
      py      :     0.016557

 27 H s       :     0.916482  s :     0.916482
      pz      :     0.022284  p :     0.044440
      px      :     0.010431
      py      :     0.011725

 28 H s       :     0.920917  s :     0.920917
      pz      :     0.009422  p :     0.042391
      px      :     0.015030
      py      :     0.017940

 29 H s       :     0.919677  s :     0.919677
      pz      :     0.009586  p :     0.042338
      px      :     0.022265
      py      :     0.010487

 30 H s       :     0.915147  s :     0.915147
      pz      :     0.022342  p :     0.042328
      px      :     0.010060
      py      :     0.009927

 31 H s       :     0.923015  s :     0.923015
      pz      :     0.020160  p :     0.041761
      px      :     0.011700
      py      :     0.009900

 32 H s       :     0.923710  s :     0.923710
      pz      :     0.015435  p :     0.042571
      px      :     0.012072
      py      :     0.015064

 33 H s       :     0.922000  s :     0.922000
      pz      :     0.010203  p :     0.043948
      px      :     0.021598
      py      :     0.012148

 34 H s       :     0.923483  s :     0.923483
      pz      :     0.022782  p :     0.042602
      px      :     0.010486
      py      :     0.009334

 35 H s       :     0.919863  s :     0.919863
      pz      :     0.012811  p :     0.042874
      px      :     0.016089
      py      :     0.013974

 36 H s       :     0.923184  s :     0.923184
      pz      :     0.013437  p :     0.042959
      px      :     0.012842
      py      :     0.016681

 37 H s       :     0.937138  s :     0.937138
      pz      :     0.013298  p :     0.045718
      px      :     0.011541
      py      :     0.020880

 38 H s       :     0.914749  s :     0.914749
      pz      :     0.009586  p :     0.044116
      px      :     0.023883
      py      :     0.010647



                     *******************************
                     * LOEWDIN POPULATION ANALYSIS *
                     *******************************

----------------------
LOEWDIN ATOMIC CHARGES
----------------------
   0 C :   -0.117484
   1 C :   -0.050080
   2 C :   -0.047375
   3 C :   -0.053527
   4 C :   -0.056262
   5 C :   -0.072939
   6 C :   -0.087096
   7 C :   -0.026858
   8 C :   -0.084483
   9 C :   -0.085017
  10 C :   -0.091712
  11 C :   -0.081592
  12 C :   -0.051784
  13 C :   -0.117582
  14 C :   -0.115874
  15 H :    0.053638
  16 H :    0.049650
  17 H :    0.055110
  18 H :    0.037622
  19 H :    0.051061
  20 H :    0.065869
  21 H :    0.039700
  22 H :    0.052395
  23 H :    0.055013
  24 H :    0.052966
  25 H :    0.029645
  26 H :    0.030221
  27 H :    0.046703
[...]
 80:   1503.85   0.000673    3.40  0.000140  (-0.010477 -0.002665  0.004773)
 81:   1509.84   0.001386    7.01  0.000287  (-0.001258  0.013262 -0.010445)
 82:   1510.70   0.001304    6.59  0.000269  (-0.003639 -0.006847  0.014462)
 83:   1517.45   0.000050    0.25  0.000010  ( 0.000127 -0.000685 -0.003142)
 84:   1522.75   0.000066    0.33  0.000014  ( 0.002934  0.000274 -0.002204)
 85:   1523.52   0.002228   11.26  0.000456  (-0.011487 -0.014395 -0.010824)
 86:   1533.41   0.002131   10.77  0.000434  ( 0.004962 -0.015982 -0.012394)
 87:   1535.48   0.003465   17.51  0.000704  ( 0.022902  0.012265  0.005418)
 88:   1540.87   0.001953    9.87  0.000396  (-0.012180 -0.004672 -0.015014)
 89:   1546.74   0.002862   14.47  0.000578  (-0.007935  0.022291  0.004205)
 90:   1553.78   0.001471    7.44  0.000296  ( 0.008934  0.003749 -0.014200)
 91:   1760.40   0.007024   35.50  0.001245  (-0.001461  0.031814 -0.015196)
 92:   1802.62   0.000698    3.53  0.000121  ( 0.010086  0.004285  0.000900)
 93:   3060.86   0.004685   23.68  0.000478  (-0.015601 -0.000271 -0.015303)
 94:   3074.98   0.007649   38.65  0.000776  (-0.026267 -0.009054 -0.002076)
 95:   3083.49   0.002247   11.35  0.000227  (-0.007973 -0.012686  0.001698)
 96:   3087.49   0.004407   22.27  0.000445  (-0.009502 -0.007822  0.017144)
 97:   3091.20   0.007435   37.57  0.000751  (-0.003765 -0.022925 -0.014521)
 98:   3093.23   0.010802   54.59  0.001090  ( 0.031831 -0.008394 -0.002476)
 99:   3101.91   0.005916   29.90  0.000595  (-0.010835  0.013667 -0.017058)
100:   3104.65   0.008319   42.04  0.000836  (-0.026167 -0.011983 -0.002800)
101:   3121.96   0.004927   24.90  0.000492  ( 0.007628 -0.006535 -0.019788)
102:   3122.51   0.002470   12.48  0.000247  (-0.008730  0.009397 -0.009072)
103:   3130.46   0.002188   11.06  0.000218  ( 0.013348 -0.000886  0.006257)
104:   3131.63   0.006276   31.72  0.000625  (-0.004792 -0.016819 -0.017877)
105:   3155.10   0.006684   33.78  0.000661  (-0.013257 -0.001638  0.021971)
106:   3168.79   0.002196   11.10  0.000216  ( 0.002279  0.008885 -0.011494)
107:   3174.54   0.001091    5.51  0.000107  (-0.004629  0.008402  0.003900)
108:   3176.35   0.007705   38.94  0.000757  ( 0.000154  0.018735 -0.020147)
109:   3180.63   0.005933   29.98  0.000582  ( 0.022188  0.007592 -0.005676)
110:   3196.46   0.004229   21.37  0.000413  (-0.018201  0.002542 -0.008668)
111:   3200.15   0.001891    9.56  0.000184  (-0.001093  0.012718 -0.004637)
112:   3203.40   0.002298   11.61  0.000224  (-0.005895 -0.009625 -0.009823)
113:   3206.94   0.002709   13.69  0.000264  (-0.001259 -0.011839  0.011040)
114:   3227.95   0.000480    2.43  0.000046  (-0.001622  0.003050  0.005871)
115:   3228.87   0.007365   37.22  0.000712  ( 0.007061 -0.019961 -0.016235)
116:   3293.03   0.001776    8.98  0.000168  (-0.011077  0.003810  0.005577)

* The epsilon (eps) is given for a Dirac delta lineshape.
** The dipole moment derivative (T) already includes vibrational overlap.

The first frequency considered to be a vibration is 7
The total number of vibrations considered is 110


--------------------------
THERMOCHEMISTRY AT 298.15K
--------------------------

Temperature         ...   298.15 K
Pressure            ...     1.00 atm
Total Mass          ...   204.36 AMU
Quasi RRHO          ...     True
Cut-Off Frequency   ...     1.00 cm^-1

Throughout the following assumptions are being made:
  (1) The electronic state is orbitally nondegenerate
  (2) There are no thermally accessible electronically excited states
  (3) Hindered rotations indicated by low frequency modes are not
      treated as such but are treated as vibrations and this may
      cause some error
  (4) All equations used are the standard statistical mechanics
      equations for an ideal gas
  (5) All vibrations are strictly harmonic

freq.      80.05  E(vib)   ...       0.49 
freq.     100.72  E(vib)   ...       0.46 
freq.     116.59  E(vib)   ...       0.44 
freq.     165.69  E(vib)   ...       0.39 
freq.     182.06  E(vib)   ...       0.37 
freq.     216.65  E(vib)   ...       0.34 
freq.     243.08  E(vib)   ...       0.31 
freq.     252.78  E(vib)   ...       0.30 
freq.     304.70  E(vib)   ...       0.26 
freq.     317.38  E(vib)   ...       0.25 
freq.     325.52  E(vib)   ...       0.24 
freq.     335.18  E(vib)   ...       0.24 
freq.     352.89  E(vib)   ...       0.22 
freq.     354.29  E(vib)   ...       0.22 
freq.     374.44  E(vib)   ...       0.21 
freq.     376.90  E(vib)   ...       0.21 
freq.     410.84  E(vib)   ...       0.19 
freq.     460.56  E(vib)   ...       0.16 
freq.     488.89  E(vib)   ...       0.15 
freq.     509.08  E(vib)   ...       0.14 
freq.     519.19  E(vib)   ...       0.13 
freq.     582.62  E(vib)   ...       0.11 
freq.     646.62  E(vib)   ...       0.09 
freq.     675.09  E(vib)   ...       0.08 
freq.     695.93  E(vib)   ...       0.07 
freq.     747.39  E(vib)   ...       0.06 
freq.     758.51  E(vib)   ...       0.06 
freq.     802.58  E(vib)   ...       0.05 
freq.     826.05  E(vib)   ...       0.04 
freq.     844.74  E(vib)   ...       0.04 
freq.     875.44  E(vib)   ...       0.04 
freq.     908.20  E(vib)   ...       0.03 
freq.     925.06  E(vib)   ...       0.03 
freq.     938.58  E(vib)   ...       0.03 
freq.     942.02  E(vib)   ...       0.03 
freq.     965.08  E(vib)   ...       0.03 
freq.     975.91  E(vib)   ...       0.03 
freq.     996.21  E(vib)   ...       0.02 
freq.    1006.75  E(vib)   ...       0.02 
freq.    1027.73  E(vib)   ...       0.02 
freq.    1038.34  E(vib)   ...       0.02 
freq.    1048.41  E(vib)   ...       0.02 
freq.    1062.93  E(vib)   ...       0.02 
freq.    1080.45  E(vib)   ...       0.02 
freq.    1084.26  E(vib)   ...       0.02 
freq.    1111.78  E(vib)   ...       0.01 
freq.    1121.35  E(vib)   ...       0.01 
freq.    1147.83  E(vib)   ...       0.01 
freq.    1177.99  E(vib)   ...       0.01 
freq.    1184.28  E(vib)   ...       0.01 
freq.    1209.28  E(vib)   ...       0.01 
freq.    1219.15  E(vib)   ...       0.01 
freq.    1242.03  E(vib)   ...       0.01 
freq.    1258.65  E(vib)   ...       0.01 
freq.    1263.25  E(vib)   ...       0.01 
freq.    1296.18  E(vib)   ...       0.01 
freq.    1305.20  E(vib)   ...       0.01 
freq.    1338.80  E(vib)   ...       0.01 
freq.    1352.67  E(vib)   ...       0.01 
freq.    1360.20  E(vib)   ...       0.01 
freq.    1373.19  E(vib)   ...       0.01 
freq.    1379.89  E(vib)   ...       0.01 
freq.    1395.01  E(vib)   ...       0.00 
freq.    1404.84  E(vib)   ...       0.00 
freq.    1416.98  E(vib)   ...       0.00 
freq.    1428.41  E(vib)   ...       0.00 
freq.    1432.70  E(vib)   ...       0.00 
freq.    1434.87  E(vib)   ...       0.00 
freq.    1436.88  E(vib)   ...       0.00 
freq.    1444.03  E(vib)   ...       0.00 
freq.    1456.66  E(vib)   ...       0.00 
freq.    1460.22  E(vib)   ...       0.00 
freq.    1488.81  E(vib)   ...       0.00 
freq.    1503.85  E(vib)   ...       0.00 
freq.    1509.84  E(vib)   ...       0.00 
freq.    1510.70  E(vib)   ...       0.00 
freq.    1517.45  E(vib)   ...       0.00 
freq.    1522.75  E(vib)   ...       0.00 
freq.    1523.52  E(vib)   ...       0.00 
freq.    1533.41  E(vib)   ...       0.00 
freq.    1535.48  E(vib)   ...       0.00 
freq.    1540.87  E(vib)   ...       0.00 
freq.    1546.74  E(vib)   ...       0.00 
freq.    1553.78  E(vib)   ...       0.00 
freq.    1760.40  E(vib)   ...       0.00 
freq.    1802.62  E(vib)   ...       0.00 
freq.    3060.86  E(vib)   ...       0.00 
freq.    3074.98  E(vib)   ...       0.00 
freq.    3083.49  E(vib)   ...       0.00 
freq.    3087.49  E(vib)   ...       0.00 
freq.    3091.20  E(vib)   ...       0.00 
freq.    3093.23  E(vib)   ...       0.00 
freq.    3101.91  E(vib)   ...       0.00 
freq.    3104.65  E(vib)   ...       0.00 
freq.    3121.96  E(vib)   ...       0.00 
freq.    3122.51  E(vib)   ...       0.00 
freq.    3130.46  E(vib)   ...       0.00 
freq.    3131.63  E(vib)   ...       0.00 
freq.    3155.10  E(vib)   ...       0.00 
freq.    3168.79  E(vib)   ...       0.00 
freq.    3174.54  E(vib)   ...       0.00 
freq.    3176.35  E(vib)   ...       0.00 
freq.    3180.63  E(vib)   ...       0.00 
freq.    3196.46  E(vib)   ...       0.00 
freq.    3200.15  E(vib)   ...       0.00 
freq.    3203.40  E(vib)   ...       0.00 
freq.    3206.94  E(vib)   ...       0.00 
freq.    3227.95  E(vib)   ...       0.00 
freq.    3228.87  E(vib)   ...       0.00 
freq.    3293.03  E(vib)   ...       0.00 

------------
INNER ENERGY
------------

The inner energy is: U= E(el) + E(ZPE) + E(vib) + E(rot) + E(trans)
    E(el)   - is the total energy from the electronic structure calculation
              = E(kin-el) + E(nuc-el) + E(el-el) + E(nuc-nuc)
    E(ZPE)  - the the zero temperature vibrational energy from the frequency calculation
    E(vib)  - the the finite temperature correction to E(ZPE) due to population
              of excited vibrational states
    E(rot)  - is the rotational thermal energy
    E(trans)- is the translational thermal energy

Summary of contributions to the inner energy U:
Electronic energy                ...    -99.92297316 Eh
Zero point energy                ...      0.36692516 Eh     230.25 kcal/mol
Thermal vibrational correction   ...      0.01100276 Eh       6.90 kcal/mol
Thermal rotational correction    ...      0.00141627 Eh       0.89 kcal/mol
Thermal translational correction ...      0.00141627 Eh       0.89 kcal/mol
-----------------------------------------------------------------------
Total thermal energy                    -99.54221270 Eh


Summary of corrections to the electronic energy:
(perhaps to be used in another calculation)
Total thermal correction                  0.01383530 Eh       8.68 kcal/mol
Non-thermal (ZPE) correction              0.36692516 Eh     230.25 kcal/mol
-----------------------------------------------------------------------
Total correction                          0.38076046 Eh     238.93 kcal/mol


--------
ENTHALPY
--------

The enthalpy is H = U + kB*T
                kB is Boltzmann's constant
Total thermal energy              ...    -99.54221270 Eh 
Thermal Enthalpy correction       ...      0.00094421 Eh       0.59 kcal/mol
-----------------------------------------------------------------------
Total Enthalpy                    ...    -99.54126849 Eh


Note: Only C1 symmetry has been detected, increase convergence thresholds 
      if your molecule has a higher symmetry. Symmetry factor of 1.0 is   
      used for the rotational entropy correction. 
 

Note: Rotational entropy computed according to Herzberg 
Infrared and Raman Spectra, Chapter V,1, Van Nostrand Reinhold, 1945 
Point Group:  C1, Symmetry Number:   1  
Rotational constants in cm-1:     0.028252     0.018057     0.013016 

Vibrational entropy computed according to the QRRHO of S. Grimme
Chem.Eur.J. 2012 18 9955 using a reference frequency of 100.0 cm-1


-------
ENTROPY
-------

The entropy contributions are T*S = T*(S(el)+S(vib)+S(rot)+S(trans))
     S(el)   - electronic entropy
     S(vib)  - vibrational entropy
     S(rot)  - rotational entropy
     S(trans)- translational entropy
The entropies will be listed as multiplied by the temperature to get
units of energy

Electronic entropy                ...      0.00000000 Eh      0.00 kcal/mol
Vibrational entropy               ...      0.01804565 Eh     11.32 kcal/mol
Rotational entropy                ...      0.01513925 Eh      9.50 kcal/mol
Translational entropy             ...      0.01988345 Eh     12.48 kcal/mol
-----------------------------------------------------------------------
Final entropy term                ...      0.05306835 Eh     33.30 kcal/mol

In case the symmetry of your molecule has not been determined correctly
or in case you have a reason to use a different symmetry number we print 
out the resulting rotational entropy values for sn=1,12:

 non-linear molecules -----------------------------------
|  sn= 1 | S(rot)=       0.01513925 Eh      9.50 kcal/mol|
|  sn= 2 | S(rot)=       0.01448479 Eh      9.09 kcal/mol|
|  sn= 3 | S(rot)=       0.01410196 Eh      8.85 kcal/mol|
|  sn= 4 | S(rot)=       0.01383034 Eh      8.68 kcal/mol|
|  sn= 5 | S(rot)=       0.01361965 Eh      8.55 kcal/mol|
|  sn= 6 | S(rot)=       0.01344750 Eh      8.44 kcal/mol|
|  sn= 7 | S(rot)=       0.01330196 Eh      8.35 kcal/mol|
|  sn= 8 | S(rot)=       0.01317588 Eh      8.27 kcal/mol|
|  sn= 9 | S(rot)=       0.01306467 Eh      8.20 kcal/mol|
|  sn=10 | S(rot)=       0.01296519 Eh      8.14 kcal/mol|
|  sn=11 | S(rot)=       0.01287520 Eh      8.08 kcal/mol|
|  sn=12 | S(rot)=       0.01279305 Eh      8.03 kcal/mol|
 linear molecules ---------------------------------------
|  Dinfh | S(rot)=       0.00942500 Eh      5.91 kcal/mol|
|  Cinfv | S(rot)=       0.01007946 Eh      6.32 kcal/mol|
 --------------------------------------------------------


-------------------
GIBBS FREE ENERGY
-------------------

The Gibbs free energy is G = H - T*S

Total enthalpy                    ...    -99.54126849 Eh 
Total entropy correction          ...     -0.05306835 Eh    -33.30 kcal/mol
-----------------------------------------------------------------------
Final Gibbs free energy         ...    -99.59433684 Eh

For completeness - the Gibbs free energy minus the electronic energy
G-E(el)                           ...      0.32863632 Eh    206.22 kcal/mol


Maximum memory used throughout the entire PROP-calculation: 241.8 MB

--------------------------------
SUGGESTED CITATIONS FOR THIS RUN
--------------------------------

Below you find a list of papers that are relevant to this ORCA run
We neither can nor want to force you to cite these papers, but we appreciate if you do
You receive ORCA, which is the product of decades of hard work by many enthusiastic individuals, for free
The only thing we kindly ask in return is that you cite our papers,
We deeply appreciate it, if you show your appreciation for ORCA by not just citing the generic ORCA reference.

Please note that relegating all ORCA citations to the supporting information does *not* help us.
SI sections are not indexed - citations you put there will not count into any citation statistics
But we need these citations in order to attract the funding resources that allow us to do what we are doing

Therefore, if you are a happy ORCA user, please consider citing a few of the papers listed below in the main body of your paper

In addition to the list printed below, the program has created the file ./output/alpha_himachalene/alpha_himachalene.bibtex that contains the list in bibtex format
You can import this file easily into all common literature databanks and citation aid programs


List of essential papers. We consider these as the minimum necessary citations

  1. Neese,F.
     Software update: the ORCA program system, version 5.0
     WIRES Comput. Molec. Sci., 2022 12(1)e1606
     doi.org/10.1002/wcms.1606
  2. Mueller,M.; Hansen,A.; Grimme,S.
     wB97X-3c: A composite range-separated hybrid DFT method with a molecule-optimized polarized valence double-zeta basis set
     J. Chem. Phys., 2023 158 014103
     doi.org/10.1063/5.0133026

List of papers to cite with high priority. The work reported in these papers was absolutely
necessary for this run to complete.
Our perspective: the developers of density functionals and basis sets usually get cited in chemistry papers
Good! But without the algorithms to do something with them, the functionals or basis sets would not do anything.
Hence, in our opinion, the algorithm design and method developments papers are equally worthy of getting cited

  1. Neese,F.
     An improvement of the resolution of the identity approximation for the formation of the Coulomb matrix
     J. Comp. Chem., 2003 24(14)1740-1747
     doi.org/10.1002/jcc.10318
  2. Neese,F.; Wennmohs,F.; Hansen,A.; Becker,U.
     Efficient, approximate and parallel Hartree-Fock and hybrid DFT calculations. A 'chain-of-spheres' algorithm for the Hartree-Fock exchange
     Chem. Phys., 2009 356(1-3)98-109
     doi.org/10.1016/j.chemphys.2008.10.036
  3. Bykov,D.; Petrenko,T.; Izsak,R.; Kossmann,S.; Becker,U.; Valeev,E.; Neese,F.
     Efficient implementation of the analytic second derivatives of Hartree-Fock and hybrid DFT energies: a detailed analysis of different approximations
     Molec. Phys., 2015 113 1961-1977
     doi.org/10.1080/00268976.2015.1025114
  4. Helmich-Paris,B.; de Souza,B.; Neese,F.; Izsák,R.
     An improved chain of spheres for exchange algorithm
     J. Chem. Phys., 2021 155 104109
     doi.org/doi: 10.1063/5.0058766.
  5. Neese,F.
     The SHARK Integral Generation and Digestion System
     J. Comp. Chem., 2022  1-16
     doi.org/10.1002/jcc.26942
  6. Caldeweyher,E.; Bannwarth,C.; Grimme,S.
     Extension of the D3 dispersion coefficient model
     J. Chem. Phys., 2017 147 034112
     doi.org/10.1063/1.4993215
  7. Caldeweyher,E.; Ehlert,S.; Hansen,A.; Neugebauer,H.; Spicher,S.; Bannwarth,C.; Grimme,S.
     A generally applicable atomic-charge dependent London dispersion correction
     J. Chem. Phys., 2019 150 154122
     doi.org/10.1063/1.5090222
  8. Caldeweyher,E.; Mewes,J.; Ehlert,S.; Grimme,S.
     Extension and evaluation of the D4 London-dispersion model for periodic systems
     Phys. Chem. Chem. Phys., 2020 22(16)8499-8512
     doi.org/10.1039/D0CP00502A
  9. Wittmann,L.; Gordiy,I.; Friede,M.; Helmich-Paris,B.; Grimme,S.; Hansen,A.; Bursch,M.
     Extension of the D3 and D4 London Dispersion Corrections to the full Actinides Series
     Phys. Chem. Chem. Phys., 2024 26(32)21379-21394
     doi.org/https://doi.org/10.1039/D4CP01514B 

List of suggested additional citations. These are papers that are important in the 'surrounding' of 
of this run, or papers that preceded the highly important papers. If you like your results we are grateful for a citation.

  1. Izsak,R.; Neese,F.
     An overlap fitted chain of spheres exchange method
     J. Chem. Phys., 2011 135 144105
     doi.org/10.1063/1.3646921
  2. Izsak,R.; Hansen,A.; Neese,F.
     The resolution of identity and chain of spheres approximations for the LPNO-CCSD singles Fock term
     Molec. Phys., 2012 110 2413-2417
     doi.org/10.1080/00268976.2012.687466
  3. Neese,F.
     The ORCA program system
     WIRES Comput. Molec. Sci., 2012 2(1)73-78
     doi.org/10.1002/wcms.81
  4. Izsak,R.; Neese,F.; Klopper,W.
     Robust fitting techniques in the chain of spheres approximation to the Fock exchange: The role of the complementary space
     J. Chem. Phys., 2013 139 
     doi.org/10.1063/1.4819264
  5. Neese,F.
     Software update: the ORCA program system, version 4.0
     WIRES Comput. Molec. Sci., 2018 8(1)1-6
     doi.org/10.1002/wcms.1327
  6. Neese,F.; Wennmohs,F.; Becker,U.; Riplinger,C.
     The ORCA quantum chemistry program package
     J. Chem. Phys., 2020 152 Art. No. L224108
     doi.org/10.1063/5.0004608

List of optional additional citations

  1. Neese,F.
     Approximate second-order SCF convergence for spin unrestricted wavefunctions
     Chem. Phys. Lett., 2000 325(1-3)93-98
     doi.org/10.1016/s0009-2614(00)00662-x

Timings for individual modules:

Sum of individual times          ...     2116.131 sec (=  35.269 min)
Startup calculation              ...       90.194 sec (=   1.503 min)   4.3 %
SCF iterations                   ...     1299.034 sec (=  21.651 min)  61.4 %
Property integrals               ...      144.229 sec (=   2.404 min)   6.8 %
SCF Response                     ...       87.989 sec (=   1.466 min)   4.2 %
Property calculations            ...      214.689 sec (=   3.578 min)  10.1 %
SCF Gradient evaluation          ...      279.656 sec (=   4.661 min)  13.2 %
Geometry relaxation              ...        0.340 sec (=   0.006 min)   0.0 %
                             ****ORCA TERMINATED NORMALLY****
TOTAL RUN TIME: 0 days 0 hours 35 minutes 24 seconds 86 msec
