
                                 *****************
                                 * O   R   C   A *
                                 *****************

                                            #,                                       
                                            ###                                      
                                            ####                                     
                                            #####                                    
                                            ######                                   
                                           ########,                                 
                                     ,,################,,,,,                         
                               ,,#################################,,                 
                          ,,##########################################,,             
                       ,#########################################, ''#####,          
                    ,#############################################,,   '####,        
                  ,##################################################,,,,####,       
                ,###########''''           ''''###############################       
              ,#####''   ,,,,##########,,,,          '''####'''          '####       
            ,##' ,,,,###########################,,,                        '##       
           ' ,,###''''                  '''############,,,                           
         ,,##''                                '''############,,,,        ,,,,,,###''
      ,#''                                            '''#######################'''  
     '                                                          ''''####''''         
             ,#######,   #######,   ,#######,      ##                                
            ,#'     '#,  ##    ##  ,#'     '#,    #''#        ,####,   ,####,        
            ##       ##  ##   ,#'  ##            #'  '#       #'       #'  '#        
            ##       ##  #######   ##           ,######,      #####,   #    #        
            '#,     ,#'  ##    ##  '#,     ,#' ,#      #,     #,   #   #,  ,#        
             '#######'   ##     ##  '#######'  #'      '#     '####' # '####'        



                #########################################################
                #                        -***-                          #
                #          Department of theory and spectroscopy        #
                #                                                       #
                #                      Frank Neese                      #
                #                                                       #
                #     Directorship, Architecture, Infrastructure        #
                #                    SHARK, DRIVERS                     #
                #        Core code/Algorithms in most modules           #
                #                                                       #
                #        Max Planck Institute fuer Kohlenforschung      #
                #                Kaiser Wilhelm Platz 1                 #
                #                 D-45470 Muelheim/Ruhr                 #
                #                      Germany                          #
                #                                                       #
                #                  All rights reserved                  #
                #                        -***-                          #
                #########################################################


                         Program Version 6.0.1  -  RELEASE   -


 With contributions from (in alphabetic order):
[Max-Planck-Institut fuer Kohlenforschung]                               
  Daniel Aravena         : Magnetic Suceptibility                        
  Michael Atanasov       : Ab Initio Ligand Field Theory (pilot matlab implementation)
  Alexander A. Auer      : GIAO ZORA, VPT2 properties, NMR spectrum      
  Ute Becker             : All parallelization in ORCA, NUMFREQ, NUMCALC 
  Giovanni Bistoni       : ED, misc. LED, open-shell LED, HFLD           
  Martin Brehm           : Molecular dynamics                            
  Dmytro Bykov           : pre 5.0 version of the SCF Hessian            
  Marcos Casanova-Páez   : Triplet and SCS-CIS(D). UHF-(DLPNO)-IP/EA/STEOM-CCSD. UHF-CVS-IP/STEOM-CCSD   
  Vijay G. Chilkuri      : MRCI spin determinant printing, contributions to CSF-ICE 
  Pauline Colinet        : FMM embedding                                 
  Dipayan Datta          : RHF DLPNO-CCSD density                        
  Achintya Kumar Dutta   : EOM-CC, STEOM-CC                              
  Nicolas Foglia         : Exact transition moments, OPA infrastructure, MCD improvements    
  Dmitry Ganyushin       : Spin-Orbit,Spin-Spin,Magnetic field MRCI      
  Miquel Garcia-Rates    : C-PCM and meta-GGA Hessian, CCSD/C-PCM, Gaussian charge scheme 
  Tiago L. C. Gouveia    : GS-ROHF, GS-ROCIS                             
  Yang Guo               : DLPNO-NEVPT2, F12-NEVPT2, CIM, IAO-localization        
  Andreas Hansen         : Spin unrestricted coupled pair/coupled cluster methods 
  Ingolf Harden          : AUTO-CI MPn and infrastructure                
  Benjamin Helmich-Paris : MC-RPA, TRAH-(SCF,CASSCF), AVAS, COSX integrals, SCF dyn. polar. 
  Lee Huntington         : MR-EOM, pCC                                   
  Robert Izsak           : Overlap fitted RIJCOSX, COSX-SCS-MP3, EOM     
  Riya Kayal             : Wick's Theorem for AUTO-CI, AUTO-CI UHF-CCSDT 
  Emily Kempfer          : AUTO-CI, RHF CISDT and CCSDT                  
  Christian Kollmar      : KDIIS, OOCD, Brueckner-CCSD(T), CCSD density, CASPT2, CASPT2-K, improved NEVPT2 
  Axel Koslowski         : Symmetry handling                             
  Simone Kossmann        : meta-GGA functionals, TD-DFT gradient, OOMP2, (MP2 Hessian; deprecated post 5.0) 
  Lucas Lang             : DCDCAS                                        
  Marvin Lechner         : AUTO-CI (C++ implementation), FIC-MRCC        
  Spencer Leger          : CASSCF response                               
  Dagmar Lenk            : GEPOL surface, SMD, ORCA-2-JSON               
  Dimitrios Liakos       : Extrapolation schemes; Compound Job, initial MDCI parallelization 
  Dimitrios Manganas     : Further ROCIS development; embedding schemes. LFT, Crystal Embedding 
  Dimitrios Pantazis     : SARC Basis sets                               
  Anastasios Papadopoulos: AUTO-CI, single reference methods and gradients 
  Taras Petrenko         : pre 6.0 DFT Hessian and TD-DFT gradient, (ASA, deprecated), ECA, 1-Electron XAS/XES, NRVS 
  Peter Pinski           : DLPNO-MP2, DLPNO-MP2 Gradient                 
  Christoph Reimann      : Effective Core Potentials                     
  Marius Retegan         : Local ZFS, SOC                                
  Christoph Riplinger    : Optimizer, TS searches, QM/MM, DLPNO-CCSD(T), (RO)-DLPNO pert. Triples 
  Michael Roemelt        : Original ROCIS implementation                 
  Masaaki Saitow         : Open-shell DLPNO-CCSD energy and density      
  Barbara Sandhoefer     : DKH picture change effects                    
  Kantharuban Sivalingam : CASSCF convergence/infrastructure, NEVPT2 and variants, FIC-MRCI 
  Bernardo de Souza      : ESD, SOC TD-DFT                               
  Georgi L. Stoychev     : AutoAux, RI-MP2 NMR, DLPNO-MP2 response, X2C  
  Van Anh Tran           : RI-MP2 g-tensors                              
  Willem Van den Heuvel  : Paramagnetic NMR                              
  Zikuan Wang            : NOTCH, Electric field optimization            
  Frank Wennmohs         : Technical directorship and infrastructure     
  Hang Xu                : AUTO-CI-Response properties                   
                                                                         
[FACCTs GmbH]                                                            
  Markus Bursch, Miquel Garcia-Rates, Christoph Riplinger, Bernardo de Souza, Georgi L. Stoychev 
                                                                 
  APM, Basis sets (HGBS, AHGBS, def-TZVP (Ac-Lr), def2-XVPD (La-Lu)), CI-OPT, improved COSX, DLPNO-Multilevel,           
  DOCKER, DRACO, updates on ESD, GOAT, IRC, LR-CPCM, MBIS, meta-GGA TD-DFT gradient, ML-optimized integration grids, 
  MM, NACMEs, nearIR, NEB, NEB-TS, NL-DFT gradient (VV10), 2- and 3-layer-ONIOM, interface openCOSMO-RS, QMMM,   
  Crystal-QMMM, SF, symmetry and pop. for TD-DFT, r2SCAN hybrids, SOLVATOR                                   
                                                                         
[Other institutions]                                                     
  V. Asgeirsson          : NEB                                           
  Christoph Bannwarth    : sTDA-DFT, sTD-DFT, PBEh-3c, B97-3c, D3        
  Sebastian Ehlert       : rSCAN, r2SCAN, r2SCAN-3c, D4, dhf basis sets  
  Marvin Friede          : D4 for Fr, Ra, Ac-Lr                          
  Lars Goerigk           : TD-DFT with DH, B97 family of functionals     
  Stefan Grimme          : VdW corrections, initial TS optimization, DFT functionals, gCP, sTDA/sTD-DF 
  Waldemar Hujo          : DFT-NL                                        
  H. Jonsson             : NEB                                           
  Holger Kruse           : gCP                                           
  Marcel Mueller         : wB97X-3c, vDZP basis set                      
  Hagen Neugebauer       : wr2SCAN                                       
  Tobias Risthaus        : range-separated hybrid DFT                    
  Lukas Wittmann         : regularized MP2, r2SCAN double-hybrids, wr2SCAN        
                                                                         
We gratefully acknowledge several colleagues who have allowed us to      
interface, adapt or use parts of their codes:                            
  Ed Valeev, F. Pavosevic, A. Kumar             : LibInt (2-el integral package), F12 methods 
  Garnet Chan, S. Sharma, J. Yang, R. Olivares  : DMRG                   
  Ulf Ekstrom                                   : XCFun DFT Library      
  Mihaly Kallay                                 : mrcc  (arbitrary order and MRCC methods)
  Frank Weinhold                                : gennbo (NPA and NBO analysis)           
  Simon Mueller                                 : openCOSMO-RS                            
  Christopher J. Cramer and Donald G. Truhlar   : smd solvation model                     
  S Lehtola, MJT Oliveira, MAL Marques          : LibXC Library                           
  Liviu Ungur et al                             : ANISO software                          


 Your calculation uses the libint2 library for the computation of 2-el integrals
 For citations please refer to: http://libint.valeyev.net

 Your ORCA version has been built with support for libXC version: 6.2.2
 For citations please refer to: https://libxc.gitlab.io

 This ORCA versions uses:
   CBLAS   interface :  Fast vector & matrix operations
   LAPACKE interface :  Fast linear algebra routines
   SCALAPACK package :  Parallel linear algebra routines
   Shared memory     :  Shared parallel matrices
   BLAS/LAPACK       :  OpenBLAS 0.3.27  USE64BITINT DYNAMIC_ARCH NO_AFFINITY SkylakeX SINGLE_THREADED
        Core in use  :  SkylakeX
   Copyright (c) 2011-2014, The OpenBLAS Project


Your calculation utilizes the atom-pairwise dispersion correction
based on EEQ partial charges (D4)


================================================================================

cite the ECPs for C  [vDZP-ECP] as follows:
   B-Ne (ecp-2-mwb), Al-Ar (ecp-10-mwb), Ga-Kr (ecp-28-mwb), Y-Cd (ecp-28-mwb), In-Xe (ecp-46-mwb):
     A. Bergner, M. Dolg, W. Küchle, H. Stoll, and H. Preuß, Mol. Phys. 80, 1431 (1993)., T. Leininger, A. Berning, A. Nicklass, H. Stoll, H.-J. Werner, and H.-J.Flad, Chem. Phys. 217, 19 (1997).
   Na-Mg, K-Ca, Rb-Sr, Cs-Ba (CRENBL):
     L. Fernandez Pacios and P. A. Christiansen, J. Chem. Phys. 82, 2664 (1985)., M. M. Hurley, L. F. Pacios, P. A. Christiansen, R. B. Ross, and W. C. Ermler, J. Chem. Phys. 84, 6840 (1986)., L. A. LaJohn, P. A. Christiansen, R. B. Ross, T. Atashroo, and W. C. Ermler, J. Chem. Phys. 87, 2812 (1987)., R. B. Ross, J. M. Powers, T. Atashroo, W. C. Ermler, L. A. LaJohn, and P. A. Christiansen, J. Chem. Phys. 93, 6654 (1990). 
   Sc-Zn (ecp-10-mdf):
     M. Dolg, U. Wedig, H. Stoll, and H. Preuss, J. Chem. Phys. 86, 866 (1986). 
   Y-Cd (ecp-28-mwb), Hf-Hg (ecp-60-mwb):
     D. Andrae, U. Häußermann, M. Dolg, H. Stoll, and H. Preuß, Theor. Chim. Acta 77, 123 (1990). 
   La (ecp-46-mwb):
     M. Dolg, H. Stoll, and H. Preuss, J. Chem. Phys. 90, 1730 (1989)., M. Dolg, H. Stoll, and H. Preuss, Theor. Chim. Acta 85, 441 (1993).
   Ce-Lu (SBKJC-ecp):
     T. R. Cundari and W. J. Stevens, J. Chem. Phys. 98, 5555 (1993).
   Tl-Rn (ecp-78-mwb):
     W. Küchle, M. Dolg, H. Stoll, and H. Preuss, Mol. Phys. 74, 1245 (1991).

ECP parameters for C  [vDZP-ECP] have been obtained from:
MM, AH, SG, J. Chem. Phys. 158, 014103 (2023), 10.1063/5.0133026

----- Orbital basis set information -----
Your calculation utilizes the basis: vDZP
   Marcel Mueller, Andreas Hansen, Stefan Grimme 
   J. Chem. Phys. 158, 014103 (2023). DOI: 10.1063/5.0133026

----- AuxJ basis set information -----
Your calculation utilizes the auxiliary basis: def2/J
   F. Weigend, Phys. Chem. Chem. Phys. 8, 1057 (2006).

================================================================================
                                        WARNINGS
                       Please study these warnings very carefully!
================================================================================

WARNING: Frozen-Core approximation turned on, but there are no core electrons.
  ===> : Turning off frozen-core approximation


WARNING: Geometry Optimization
  ===> : Switching off AutoStart
         For restart on a previous wavefunction, please use MOREAD

================================================================================
                                       INPUT FILE
================================================================================
NAME = ./output/o_cymene/o_cymene.inp
|  1> ! wB97X-3c OPT FREQ TightSCF
|  2> %pal
|  3>   nprocs 40
|  4> end
|  5> * xyz 0 1
|  6> C     -0.373664    -1.842939    -0.933194
|  7> C     -0.936971    -0.607677    -0.278937
|  8> C     -2.337364    -0.526789    -0.152393
|  9> C     -2.942843     0.586872     0.425293
| 10> C     -2.163913     1.643372     0.882598
| 11> C     -0.776643     1.596000     0.754675
| 12> C     -0.132090     0.490384     0.158401
| 13> C      1.396766     0.538881     0.088813
| 14> C      2.039942    -0.257941     1.229653
| 15> C      1.984542     0.166859    -1.280720
| 16> H     -1.123412    -2.662250    -0.964631
| 17> H     -0.085753    -1.615013    -1.979960
| 18> H      0.490694    -2.239558    -0.371060
| 19> H     -2.970220    -1.333942    -0.501085
| 20> H     -4.020304     0.628987     0.520318
| 21> H     -2.635996     2.504561     1.337839
| 22> H     -0.202089     2.435424     1.126889
| 23> H      1.712572     1.595242     0.247244
| 24> H      3.142082    -0.118370     1.215025
| 25> H      1.659164     0.106959     2.207569
| 26> H      1.824564    -1.340749     1.151089
| 27> H      1.346131     0.561972    -2.099535
| 28> H      2.994772     0.617551    -1.387128
| 29> H      2.110033    -0.927837    -1.396761
| 30> *
| 31> 
| 32>                          ****END OF INPUT****
================================================================================

                       *****************************
                       * Geometry Optimization Run *
                       *****************************

Geometry optimization settings:
Update method            Update   .... BFGS
Choice of coordinates    CoordSys .... (2022) Redundant Internals
Initial Hessian          InHess   .... Almloef's Model
Max. no of cycles        MaxIter  .... 72

Convergence Tolerances:
Energy Change            TolE     ....  5.0000e-06 Eh
Max. Gradient            TolMAXG  ....  3.0000e-04 Eh/bohr
RMS Gradient             TolRMSG  ....  1.0000e-04 Eh/bohr
Max. Displacement        TolMAXD  ....  4.0000e-03 bohr
RMS Displacement         TolRMSD  ....  2.0000e-03 bohr
Strict Convergence                .... False

------------------------------------------------------------------------------
                        ORCA OPTIMIZATION COORDINATE SETUP
------------------------------------------------------------------------------

The optimization will be done in redundant internal coordinates (2022)
Making redundant internal coordinates   ...  (2022 redundants) done
Evaluating the initial hessian          ...  (Almloef) done
Evaluating the coordinates              ...  done
Calculating the B-matrix                .... done
Calculating the G-matrix                .... done
Diagonalizing the G-matrix              .... done
Small eigenvalue found = 1.624e-02
The first mode is                       ....   46
The number of degrees of freedom        ....   66

    -----------------------------------------------------------------
                    Redundant Internal Coordinates


    -----------------------------------------------------------------
         Definition                    Initial Value    Approx d2E/dq
    -----------------------------------------------------------------
      1. B(C   1,C   0)                  1.5071         0.406417   
      2. B(C   2,C   1)                  1.4084         0.583909   
      3. B(C   3,C   2)                  1.3930         0.617853   
      4. B(C   4,C   3)                  1.3900         0.624836   
      5. B(C   5,C   4)                  1.3940         0.615771   
      6. B(C   6,C   1)                  1.4300         0.539457   
      7. B(C   6,C   5)                  1.4119         0.576562   
      8. B(C   7,C   6)                  1.5312         0.371922   
      9. B(C   8,C   7)                  1.5330         0.369468   
     10. B(C   9,C   7)                  1.5361         0.365341   
     11. B(H  10,C   0)                  1.1110         0.333331   
     12. B(H  11,C   0)                  1.1093         0.335444   
     13. B(H  12,C   0)                  1.1047         0.341139   
     14. B(H  13,C   2)                  1.0833         0.369042   
     15. B(H  14,C   3)                  1.0825         0.370210   
     16. B(H  15,C   4)                  1.0825         0.370193   
     17. B(H  16,C   5)                  1.0832         0.369230   
     18. B(H  17,C   7)                  1.1139         0.329854   
     19. B(H  18,C   8)                  1.1110         0.333317   
     20. B(H  19,C   8)                  1.1111         0.333286   
     21. B(H  20,C   8)                  1.1068         0.338533   
     22. B(H  21,C   9)                  1.1109         0.333463   
     23. B(H  22,C   9)                  1.1113         0.332984   
     24. B(H  23,C   9)                  1.1080         0.337109   
     25. A(C   1,C   0,H  12)          111.4580         0.325931   
     26. A(C   1,C   0,H  10)          111.3760         0.324693   
     27. A(C   1,C   0,H  11)          109.7704         0.325030   
     28. A(H  10,C   0,H  11)          107.4554         0.284183   
     29. A(H  10,C   0,H  12)          106.1193         0.284928   
     30. A(H  11,C   0,H  12)          110.5396         0.285208   
     31. A(C   0,C   1,C   6)          123.4894         0.392885   
     32. A(C   2,C   1,C   6)          119.2140         0.418859   
     33. A(C   0,C   1,C   2)          117.2405         0.398380   
     34. A(C   1,C   2,C   3)          121.0202         0.429146   
     35. A(C   1,C   2,H  13)          120.6065         0.350800   
     36. A(C   3,C   2,H  13)          118.3731         0.354170   
     37. A(C   2,C   3,C   4)          120.0336         0.434402   
     38. A(C   4,C   3,H  14)          119.9567         0.355035   
     39. A(C   2,C   3,H  14)          120.0096         0.354360   
     40. A(C   3,C   4,H  15)          119.9121         0.355033   
     41. A(C   3,C   4,C   5)          120.1109         0.434138   
     42. A(C   5,C   4,H  15)          119.9770         0.354154   
     43. A(C   6,C   5,H  16)          120.6525         0.350081   
     44. A(C   4,C   5,H  16)          118.0352         0.353998   
     45. A(C   4,C   5,C   6)          121.3123         0.427914   
     46. A(C   5,C   6,C   7)          116.7574         0.391363   
     47. A(C   1,C   6,C   7)          124.9192         0.386845   
     48. A(C   1,C   6,C   5)          118.2633         0.417915   
     49. A(C   9,C   7,H  17)          104.3597         0.318531   
     50. A(C   8,C   7,H  17)          105.5534         0.319116   
     51. A(C   6,C   7,H  17)          107.8578         0.319461   
     52. A(C   8,C   7,C   9)          112.1527         0.361289   
     53. A(C   6,C   7,C   9)          114.5137         0.361697   
     54. A(C   6,C   7,C   8)          111.6308         0.362391   
     55. A(C   7,C   8,H  18)          109.9438         0.319660   
     56. A(H  19,C   8,H  20)          108.4869         0.284582   
     57. A(H  18,C   8,H  20)          108.3607         0.284586   
     58. A(C   7,C   8,H  20)          111.9649         0.320472   
     59. A(H  18,C   8,H  19)          108.0774         0.283896   
     60. A(C   7,C   8,H  19)          109.9078         0.319655   
     61. A(H  22,C   9,H  23)          106.7207         0.284355   
     62. A(H  21,C   9,H  23)          109.8342         0.284419   
     63. A(C   7,C   9,H  23)          112.0868         0.319664   
     64. A(H  21,C   9,H  22)          107.9139         0.283875   
     65. A(C   7,C   9,H  22)          109.5722         0.319023   
     66. A(C   7,C   9,H  21)          110.5556         0.319097   
     67. D(C   6,C   1,C   0,H  11)    -75.0921         0.012242   
     68. D(C   2,C   1,C   0,H  10)    -16.7225         0.012242   
     69. D(C   2,C   1,C   0,H  12)   -135.0300         0.012242   
     70. D(C   2,C   1,C   0,H  11)    102.1583         0.012242   
     71. D(C   6,C   1,C   0,H  10)    166.0272         0.012242   
     72. D(C   3,C   2,C   1,C   0)   -179.2222         0.023439   
     73. D(H  13,C   2,C   1,C   6)    178.3255         0.023439   
     74. D(H  13,C   2,C   1,C   0)      0.9528         0.023439   
     75. D(C   3,C   2,C   1,C   6)     -1.8495         0.023439   
     76. D(H  14,C   3,C   2,H  13)      0.2361         0.026404   
     77. D(H  14,C   3,C   2,C   1)   -179.5927         0.026404   
     78. D(C   4,C   3,C   2,H  13)   -179.9001         0.026404   
     79. D(C   4,C   3,C   2,C   1)      0.2711         0.026404   
     80. D(C   5,C   4,C   3,H  14)   -179.6205         0.027042   
     81. D(C   5,C   4,C   3,C   2)      0.5157         0.027042   
     82. D(H  15,C   4,C   3,H  14)      0.3173         0.027042   
     83. D(H  15,C   4,C   3,C   2)   -179.5465         0.027042   
     84. D(H  16,C   5,C   4,H  15)      0.3589         0.026216   
     85. D(H  16,C   5,C   4,C   3)   -179.7034         0.026216   
     86. D(C   6,C   5,C   4,H  15)   -179.6201         0.026216   
     87. D(C   6,C   5,C   4,C   3)      0.3176         0.026216   
     88. D(C   7,C   6,C   5,H  16)      0.8271         0.022826   
     89. D(C   7,C   6,C   5,C   4)   -179.1945         0.022826   
     90. D(C   1,C   6,C   5,H  16)    178.1480         0.022826   
     91. D(C   1,C   6,C   5,C   4)     -1.8735         0.022826   
     92. D(C   7,C   6,C   1,C   2)    179.6839         0.019883   
     93. D(C   7,C   6,C   1,C   0)     -3.1171         0.019883   
     94. D(C   5,C   6,C   1,C   2)      2.6016         0.019883   
     95. D(C   5,C   6,C   1,C   0)    179.8005         0.019883   
     96. D(C   8,C   7,C   6,C   5)     98.1949         0.010351   
     97. D(C   8,C   7,C   6,C   1)    -78.9271         0.010351   
     98. D(H  17,C   7,C   6,C   1)    165.5539         0.010351   
     99. D(C   9,C   7,C   6,C   5)   -133.0009         0.010351   
    100. D(C   9,C   7,C   6,C   1)     49.8770         0.010351   
    101. D(H  19,C   8,C   7,H  17)     61.6026         0.010914   
    102. D(H  19,C   8,C   7,C   9)    174.6361         0.010914   
    103. D(H  19,C   8,C   7,C   6)    -55.3207         0.010914   
    104. D(H  18,C   8,C   7,H  17)    -57.2453         0.010914   
    105. D(H  18,C   8,C   7,C   9)     55.7882         0.010914   
    106. D(H  18,C   8,C   7,C   6)   -174.1687         0.010914   
    107. D(H  22,C   9,C   7,H  17)     38.7564         0.010687   
    108. D(H  22,C   9,C   7,C   8)    -75.0140         0.010687   
    109. D(H  22,C   9,C   7,C   6)    156.4439         0.010687   
    110. D(H  21,C   9,C   7,H  17)    -80.0577         0.010687   
    111. D(H  21,C   9,C   7,C   8)    166.1719         0.010687   
    112. D(H  21,C   9,C   7,C   6)     37.6298         0.010687   
    -----------------------------------------------------------------

Number of atoms                         .... 24
Number of degrees of freedom            .... 112


         *************************************************************
         *                GEOMETRY OPTIMIZATION CYCLE   1            *
         *************************************************************
---------------------------------
CARTESIAN COORDINATES (ANGSTROEM)
---------------------------------
  C     -0.373664   -1.842939   -0.933194
  C     -0.936971   -0.607677   -0.278937
  C     -2.337364   -0.526789   -0.152393
  C     -2.942843    0.586872    0.425293
  C     -2.163913    1.643372    0.882598
  C     -0.776643    1.596000    0.754675
  C     -0.132090    0.490384    0.158401
  C      1.396766    0.538881    0.088813
  C      2.039942   -0.257941    1.229653
  C      1.984542    0.166859   -1.280720
  H     -1.123412   -2.662250   -0.964631
  H     -0.085753   -1.615013   -1.979960
  H      0.490694   -2.239558   -0.371060
  H     -2.970220   -1.333942   -0.501085
  H     -4.020304    0.628987    0.520318
  H     -2.635996    2.504561    1.337839
  H     -0.202089    2.435424    1.126889
  H      1.712572    1.595242    0.247244
  H      3.142082   -0.118370    1.215025
  H      1.659164    0.106959    2.207569
  H      1.824564   -1.340749    1.151089
  H      1.346131    0.561972   -2.099535
  H      2.994772    0.617551   -1.387128
  H      2.110033   -0.927837   -1.396761

----------------------------
CARTESIAN COORDINATES (A.U.)
----------------------------
  NO LB      ZA    FRAG     MASS         X           Y           Z
   0 C     4.0000*   0    12.011   -0.706123   -3.482650   -1.763481
   1 C     4.0000*   0    12.011   -1.770619   -1.148343   -0.527115
   2 C     4.0000*   0    12.011   -4.416978   -0.995487   -0.287981
   3 C     4.0000*   0    12.011   -5.561167    1.109027    0.803687
   4 C     4.0000*   0    12.011   -4.089203    3.105523    1.667869
   5 C     4.0000*   0    12.011   -1.467643    3.016003    1.426129
   6 C     4.0000*   0    12.011   -0.249614    0.926691    0.299335
   7 C     4.0000*   0    12.011    2.639505    1.018338    0.167832
   8 C     4.0000*   0    12.011    3.854932   -0.487438    2.323707
   9 C     4.0000*   0    12.011    3.750241    0.315318   -2.420210
  10 H     1.0000    0     1.008   -2.122941   -5.030923   -1.822888
  11 H     1.0000    0     1.008   -0.162050   -3.051932   -3.741582
  12 H     1.0000    0     1.008    0.927277   -4.232151   -0.701202
  13 H     1.0000    0     1.008   -5.612902   -2.520785   -0.946913
  14 H     1.0000    0     1.008   -7.597274    1.188613    0.983259
  15 H     1.0000    0     1.008   -4.981311    4.732934    2.528149
  16 H     1.0000    0     1.008   -0.381893    4.602284    2.129512
  17 H     1.0000    0     1.008    3.236292    3.014570    0.467223
  18 H     1.0000    0     1.008    5.937674   -0.223687    2.296064
  19 H     1.0000    0     1.008    3.135366    0.202123    4.171701
  20 H     1.0000    0     1.008    3.447926   -2.533648    2.175243
  21 H     1.0000    0     1.008    2.543819    1.061973   -3.967546
  22 H     1.0000    0     1.008    5.659299    1.167002   -2.621292
  23 H     1.0000    0     1.008    3.987385   -1.753358   -2.639496
* core charge reduced due to ECP

--------------------------------
INTERNAL COORDINATES (ANGSTROEM)
--------------------------------
 C      0   0   0     0.000000000000     0.00000000     0.00000000
 C      1   0   0     1.507063106490     0.00000000     0.00000000
 C      2   1   0     1.408423518310   117.24046349     0.00000000
 C      3   2   1     1.393042266752   121.02016114   180.77779876
 C      4   3   2     1.389982754542   120.03360715     0.27108159
 C      5   4   3     1.393960707198   120.11093911     0.51568513
 C      6   5   4     1.411870387940   121.31227025     0.31760810
 C      7   6   5     1.531207078579   116.75744058   180.80554383
 C      8   7   6     1.533008992883   111.63078431    98.19491796
 C      8   7   6     1.536066936285   114.51371539   226.99906402
 H      1   2   3     1.111026940805   111.37604355   343.27751319
 H      1   2   3     1.109307019789   109.77040144   102.15827865
 H      1   2   3     1.104724407842   111.45795752   224.96995617
 H      3   2   1     1.083323032622   120.60651079     0.95280673
 H      4   3   2     1.082462761656   120.00957676   180.40730586
 H      5   4   3     1.082475505816   119.91207135   180.45347845
 H      6   5   4     1.083184292947   118.03519595   180.29664301
 H      8   7   6     1.113881669531   107.85781807   342.67589224
 H      9   8   7     1.111038533096   109.94376623   185.83132517
 H      9   8   7     1.111064173817   109.90784662   304.67926091
 H      9   8   7     1.106812156531   111.96487612    65.32277214
 H     10   8   7     1.110918940299   110.55560165    37.62976888
 H     10   8   7     1.111310305103   109.57218622   156.44390910
 H     10   8   7     1.107958860779   112.08684303   274.72548862

---------------------------
INTERNAL COORDINATES (A.U.)
---------------------------
 C      0   0   0     0.000000000000     0.00000000     0.00000000
 C      1   0   0     2.847936537802     0.00000000     0.00000000
 C      2   1   0     2.661534730180   117.24046349     0.00000000
 C      3   2   1     2.632468377138   121.02016114   180.77779876
 C      4   3   2     2.626686736958   120.03360715     0.27108159
 C      5   4   3     2.634203978052   120.11093911     0.51568513
 C      6   5   4     2.668048369799   121.31227025     0.31760810
 C      7   6   5     2.893562032835   116.75744058   180.80554383
 C      8   7   6     2.896967157387   111.63078431    98.19491796
 C      8   7   6     2.902745832951   114.51371539   226.99906402
 H      1   2   3     2.099536645529   111.37604355   343.27751319
 H      1   2   3     2.096286465837   109.77040144   102.15827865
 H      1   2   3     2.087626584279   111.45795752   224.96995617
 H      3   2   1     2.047183846224   120.60651079     0.95280673
 H      4   3   2     2.045558169697   120.00957676   180.40730586
 H      5   4   3     2.045582252670   119.91207135   180.45347845
 H      6   5   4     2.046921666236   118.03519595   180.29664301
 H      8   7   6     2.104931301009   107.85781807   342.67589224
 H      9   8   7     2.099558551786   109.94376623   185.83132517
 H      9   8   7     2.099607005726   109.90784662   304.67926091
 H      9   8   7     2.091571857538   111.96487612    65.32277214
 H     10   8   7     2.099332554151   110.55560165    37.62976888
 H     10   8   7     2.100072126449   109.57218622   156.44390910
 H     10   8   7     2.093738814523   112.08684303   274.72548862

---------------------
BASIS SET INFORMATION
---------------------
There are 2 groups of distinct atoms

 Group   1 Type C   : 6s6p2d contracted to 2s2p1d pattern {42/42/2}
 Group   2 Type H   : 8s2p contracted to 2s1p pattern {53/2}

Atom   0C    basis set group =>   1
Atom   1C    basis set group =>   1
Atom   2C    basis set group =>   1
Atom   3C    basis set group =>   1
Atom   4C    basis set group =>   1
Atom   5C    basis set group =>   1
Atom   6C    basis set group =>   1
Atom   7C    basis set group =>   1
Atom   8C    basis set group =>   1
Atom   9C    basis set group =>   1
Atom  10H    basis set group =>   2
Atom  11H    basis set group =>   2
Atom  12H    basis set group =>   2
Atom  13H    basis set group =>   2
Atom  14H    basis set group =>   2
Atom  15H    basis set group =>   2
Atom  16H    basis set group =>   2
Atom  17H    basis set group =>   2
Atom  18H    basis set group =>   2
Atom  19H    basis set group =>   2
Atom  20H    basis set group =>   2
Atom  21H    basis set group =>   2
Atom  22H    basis set group =>   2
Atom  23H    basis set group =>   2
---------------------------------
AUXILIARY/J BASIS SET INFORMATION
---------------------------------
There are 2 groups of distinct atoms

 Group   1 Type C   : 12s5p4d2f1g contracted to 6s4p3d1f1g pattern {711111/2111/211/2/1}
 Group   2 Type H   : 5s2p1d contracted to 3s1p1d pattern {311/2/1}

Atom   0C    basis set group =>   1
Atom   1C    basis set group =>   1
Atom   2C    basis set group =>   1
Atom   3C    basis set group =>   1
Atom   4C    basis set group =>   1
Atom   5C    basis set group =>   1
Atom   6C    basis set group =>   1
Atom   7C    basis set group =>   1
Atom   8C    basis set group =>   1
Atom   9C    basis set group =>   1
Atom  10H    basis set group =>   2
Atom  11H    basis set group =>   2
Atom  12H    basis set group =>   2
Atom  13H    basis set group =>   2
Atom  14H    basis set group =>   2
Atom  15H    basis set group =>   2
Atom  16H    basis set group =>   2
Atom  17H    basis set group =>   2
Atom  18H    basis set group =>   2
Atom  19H    basis set group =>   2
Atom  20H    basis set group =>   2
Atom  21H    basis set group =>   2
Atom  22H    basis set group =>   2
Atom  23H    basis set group =>   2
-------------------------
ECP PARAMETER INFORMATION
-------------------------

 Group 1, Type C  ECP vDZP-ECP (replacing 2 core electrons, lmax=3)

Atom   0C    ECP group =>   1
Atom   1C    ECP group =>   1
Atom   2C    ECP group =>   1
Atom   3C    ECP group =>   1
Atom   4C    ECP group =>   1
Atom   5C    ECP group =>   1
Atom   6C    ECP group =>   1
Atom   7C    ECP group =>   1
Atom   8C    ECP group =>   1
Atom   9C    ECP group =>   1



           ************************************************************
           *        Program running with 40 parallel MPI-processes    *
           *              working on a common directory               *
           ************************************************************
------------------------------------------------------------------------------
                             ORCA STARTUP CALCULATIONS
                           -- RI-GTO INTEGRALS CHOSEN --
------------------------------------------------------------------------------
------------------------------------------------------------------------------
                   ___                                                        
                  /   \      - P O W E R E D   B Y -                         
                 /     \                                                     
                 |  |  |   _    _      __       _____    __    __             
                 |  |  |  | |  | |    /  \     |  _  \  |  |  /  |          
                  \  \/   | |  | |   /    \    | | | |  |  | /  /          
                 / \  \   | |__| |  /  /\  \   | |_| |  |  |/  /          
                |  |  |   |  __  | /  /__\  \  |    /   |      \           
                |  |  |   | |  | | |   __   |  |    \   |  |\   \          
                \     /   | |  | | |  |  |  |  | |\  \  |  | \   \       
                 \___/    |_|  |_| |__|  |__|  |_| \__\ |__|  \__/        
                                                                              
                      - O R C A' S   B I G   F R I E N D -                    
                                      &                                       
                       - I N T E G R A L  F E E D E R -                       
                                                                              
 v1 FN, 2020, v2 2021, v3 2022-2024                                           
------------------------------------------------------------------------------


----------------------
SHARK INTEGRAL PACKAGE
----------------------

Number of atoms                             ...     24
Number of basis functions                   ...    200
Number of shells                            ...     92
Maximum angular momentum                    ...      2
Integral batch strategy                     ... SHARK/LIBINT Hybrid
RI-J (if used) integral strategy            ... SPLIT-RIJ (Revised 2003 algorithm where possible)
Printlevel                                  ...      1
Contraction scheme used                     ... SEGMENTED contraction
Prescreening option                         ... SCHWARTZ
   Thresh                                   ... 2.500e-11
   Tcut                                     ... 2.500e-12
   Tpresel                                  ... 2.500e-12 
Coulomb Range Separation                    ... NOT USED
Exchange Range Separation                   ... Long Range
   Mu parameter                             ... 3.000e-01
   Scaling (regular/separated)              ... 1.670e-01 8.330e-01
Multipole approximations                    ... NOT USED
Finite Nucleus Model                        ... NOT USED
CABS basis                                  ... NOT available
Auxiliary Coulomb fitting basis             ... AVAILABLE
   # of basis functions in Aux-J            ...    644
   # of shells in Aux-J                     ...    220
   Maximum angular momentum in Aux-J        ...      4
Auxiliary J/K fitting basis                 ... NOT available
Auxiliary Correlation fitting basis         ... NOT available
Auxiliary 'external' fitting basis          ... NOT available

Checking pre-screening integrals            ... done (  0.0 sec) Dimension = 92
Check shell pair data                       ... done (  0.0 sec)
Shell pair information
Shell pair cut-off parameter TPreSel        ...   2.5e-12
Total number of shell pairs                 ...      4278
Shell pairs after pre-screening             ...      4278
Total number of primitive shell pairs       ...     39686
Primitive shell pairs kept                  ...     32943
          la=0 lb=0:   1176 shell pairs
          la=1 lb=0:   1632 shell pairs
          la=1 lb=1:    595 shell pairs
          la=2 lb=0:    480 shell pairs
          la=2 lb=1:    340 shell pairs
          la=2 lb=2:     55 shell pairs

Calculating one electron integrals          ... done (  0.0 sec)
Calculating ECP integrals                   ... done (  0.1 sec)
Calculating RI/J V-Matrix + Cholesky decomp.... done (  0.0 sec)
Calculating Nuclear repulsion               ... done (  0.0 sec) ENN=    270.907940492534 Eh

Diagonalization of the overlap matrix:
Smallest eigenvalue                        ... 3.685e-04
Time for diagonalization                   ...    0.006 sec
Threshold for overlap eigenvalues          ... 1.000e-07
Number of eigenvalues below threshold      ... 0
Time for construction of square roots      ...    0.004 sec
Total time needed                          ...    0.013 sec

-------------------
DFT GRID GENERATION
-------------------

General Integration Accuracy     IntAcc      ... 4.388
Radial Grid Type                 RadialGrid  ... OptM3 with GC (2021)
Angular Grid (max. ang.)         AngularGrid ... 4 (Lebedev-302)
Angular grid pruning method      GridPruning ... 4 (adaptive)
Weight generation scheme         WeightScheme... mBecke (2022)
Basis function cutoff            BFCut       ... 1.0000e-11
Integration weight cutoff        WCut        ... 1.0000e-14
Partially contracted basis set               ... off
Rotationally invariant grid construction     ... off
Angular grids for H and He will be reduced by one unit

Total number of grid points                  ...   104510
Total number of batches                      ...     1645
Average number of points per batch           ...       63
Average number of grid points per atom       ...     4355

--------------------
COSX GRID GENERATION
--------------------

GRIDX 1
-------
General Integration Accuracy     IntAcc      ... 3.816
Radial Grid Type                 RadialGrid  ... OptM3 with GC (2021)
Angular Grid (max. ang.)         AngularGrid ... 1 (Lebedev-50)
Angular grid pruning method      GridPruning ... 4 (adaptive)
Weight generation scheme         WeightScheme... mBecke (2022)
Basis function cutoff            BFCut       ... 1.0000e-11
Integration weight cutoff        WCut        ... 1.0000e-14
Partially contracted basis set               ... on
Rotationally invariant grid construction     ... off
Angular grids for H and He will be reduced by one unit

Total number of grid points                  ...    13356
Total number of batches                      ...      118
Average number of points per batch           ...      113
Average number of grid points per atom       ...      556
UseSFitting                                  ... on

GRIDX 2
-------
General Integration Accuracy     IntAcc      ... 4.020
Radial Grid Type                 RadialGrid  ... OptM3 with GC (2021)
Angular Grid (max. ang.)         AngularGrid ... 2 (Lebedev-110)
Angular grid pruning method      GridPruning ... 4 (adaptive)
Weight generation scheme         WeightScheme... mBecke (2022)
Basis function cutoff            BFCut       ... 1.0000e-11
Integration weight cutoff        WCut        ... 1.0000e-14
Partially contracted basis set               ... on
Rotationally invariant grid construction     ... off
Angular grids for H and He will be reduced by one unit

Total number of grid points                  ...    28132
Total number of batches                      ...      234
Average number of points per batch           ...      120
Average number of grid points per atom       ...     1172
UseSFitting                                  ... on

GRIDX 3
-------
General Integration Accuracy     IntAcc      ... 4.338
Radial Grid Type                 RadialGrid  ... OptM3 with GC (2021)
Angular Grid (max. ang.)         AngularGrid ... 3 (Lebedev-194)
Angular grid pruning method      GridPruning ... 4 (adaptive)
Weight generation scheme         WeightScheme... mBecke (2022)
Basis function cutoff            BFCut       ... 1.0000e-11
Integration weight cutoff        WCut        ... 1.0000e-14
Partially contracted basis set               ... on
Rotationally invariant grid construction     ... off
Angular grids for H and He will be reduced by one unit

Total number of grid points                  ...    61405
Total number of batches                      ...      491
Average number of points per batch           ...      125
Average number of grid points per atom       ...     2559
UseSFitting                                  ... on
Initializing property integral containers    ... done (  0.0 sec)

SHARK setup successfully completed in   3.2 seconds

Maximum memory used throughout the entire STARTUP-calculation: 29.6 MB


           ************************************************************
           *        Program running with 40 parallel MPI-processes    *
           *              working on a common directory               *
           ************************************************************
-------------------------------------------------------------------------------
                                 ORCA GUESS
                   Start orbitals & Density for SCF / CASSCF
-------------------------------------------------------------------------------

------------
SCF SETTINGS
------------
Hamiltonian:
 Density Functional     Method          .... DFT(GTOs)
 Exchange Functional    Exchange        .... WB97X-V
 Correlation Functional Correlation     .... WB97X-V
 Gradients option       PostSCFGGA      .... off
 Hybrid DFT is turned on
   Fraction HF Exchange ScalHFX         ....  0.167000
   Scaling of DF-GGA-X  ScalDFX         ....  0.000000
   Scaling of DF-GGA-C  ScalDFC         ....  1.000000
   Scaling of DF-LDA-C  ScalLDAC        ....  1.000000
   Perturbative correction              ....  0.000000
 Long-range corrected/Screened/Range-Separated Hybrid DFT is turned on
   Amount of maximum screened exact exchange              ....  0.833000
   Range separation parameter mu (erf(mu*r12)/r12)        ....  0.300000
   NL short-range parameter             ....  6.000000
   NL long-range parameter              ....  0.010000
 RI-approximation to the Coulomb term is turned on
   Number of AuxJ basis functions       .... 644
   RIJ-COSX (HFX calculated with COS-X)).... on


General Settings:
 Integral files         IntName         .... ./output/o_cymene/o_cymene
 Hartree-Fock type      HFTyp           .... RHF
 Total Charge           Charge          ....    0
 Multiplicity           Mult            ....    1
 Number of Electrons    NEL             ....   54
 Basis Dimension        Dim             ....  200
 Nuclear Repulsion      ENuc            ....    270.9079404925 Eh

Convergence Acceleration:
 AO-DIIS                CNVDIIS         .... on
   Start iteration      DIISMaxIt       ....    12
   Startup error        DIISStart       ....  0.200000
   # of expansion vecs  DIISMaxEq       ....     5
   Bias factor          DIISBfac        ....   1.050
   Max. coefficient     DIISMaxC        ....  10.000
 MO-DIIS                CNVKDIIS        .... off
 Trust-Rad. Augm. Hess. CNVTRAH         .... auto
   Auto Start mean grad. ratio tolernc. ....  1.125000
   Auto Start start iteration           ....    50
   Auto Start num. interpolation iter.  ....    10
   Max. Number of Micro iterations      ....    24
   Max. Number of Macro iterations      .... Maxiter - #DIIS iter
   Number of Davidson start vectors     ....     2
   Converg. threshold    (grad. norm)   ....   1.000e-05
   Grad. Scal. Fac. for Micro threshold ....   0.100
   Minimum threshold for Micro iter.    ....   1.000e-02
   NR start threshold (gradient norm)   ....   1.000e-04
   Initial trust radius                 ....   0.400
   Minimum AH scaling param. (alpha)    ....   1.000
   Maximum AH scaling param. (alpha)    .... 1000.000
   Quad. conv. algorithm                .... NR
   White noise on init. David. guess    .... on
   Maximum white noise                  ....   0.010
   Pseudo random numbers                .... off
   Inactive MOs                         .... canonical
   Orbital update algorithm             .... Taylor
   Preconditioner                       .... Diag
   Full preconditioner red. dimension   ....   250
 SOSCF                  CNVSOSCF        .... on
   Start iteration      SOSCFMaxIt      ....   150
   Startup grad/error   SOSCFStart      ....  0.003300
   Hessian update       SOSCFHessUp     .... L-BFGS
 Level Shifting         CNVShift        .... on
   Level shift para.    LevelShift      ....    0.2500
   Turn off err/grad.   ShiftErr        ....    0.0010
 Zerner damping         CNVZerner       .... off
 Static damping         CNVDamp         .... on
   Fraction old density DampFac         ....    0.7000
   Max. Damping (<1)    DampMax         ....    0.9800
   Min. Damping (>=0)   DampMin         ....    0.0000
   Turn off err/grad.   DampErr         ....    0.1000

SCF Procedure:
 Maximum # iterations   MaxIter         ....   125
 SCF integral mode      SCFMode         .... Direct
   Integral package                     .... SHARK and LIBINT hybrid scheme
 Reset frequency        DirectResetFreq ....    20
 Integral Threshold     Thresh          ....  2.500e-11 Eh
 Primitive CutOff       TCut            ....  2.500e-12 Eh

Convergence Tolerance:
 Convergence Check Mode ConvCheckMode   .... Total+1el-Energy
 Convergence forced     ConvForced      .... 0
 Energy Change          TolE            ....  1.000e-08 Eh
 1-El. energy change                    ....  1.000e-05 Eh
 Orbital Gradient       TolG            ....  1.000e-05
 Orbital Rotation angle TolX            ....  1.000e-05
 DIIS Error             TolErr          ....  5.000e-07

------------------------------
INITIAL GUESS: MODEL POTENTIAL
------------------------------
Loading Hartree-Fock densities                     ... done
Atomic calculation to generate a density for atom 0 (C  with ECP)
  Multiplicity assumed   :    1
  Atomic configuration   : 1s2 2s2 2p2 
  Number of open shells  : 1
  Command: /home/aspe232/Project/Software/ORCA/6_0_1/build/orca ./output/o_cymene/o_cymene_atom6.inp "" > ./output/o_cymene/o_cymene_atom6.out
Returned from the atomic calculation with res=0
Calculating cut-offs                               ... done
Initializing the effective Hamiltonian             ... done
Setting up the integral package (SHARK)            ... done
Starting the Coulomb interaction                   ... done (   0.0 sec)
Making the grid                                    ... done (   0.7 sec)
Mapping shells                                     ... done
Starting the XC term evaluation                    ... done (   0.0 sec)
  promolecular density results
     # of electrons  =     73.992697777
     EX              =    -36.639886325
     EC              =     -2.958262668
     EX+EC           =    -39.598148993
Transforming the Hamiltonian                       ... done (   0.0 sec)
Diagonalizing the Hamiltonian                      ... done (   0.0 sec)
Back transforming the eigenvectors                 ... done (   0.0 sec)
Now organizing SCF variables                       ... done
                      ------------------
                      INITIAL GUESS DONE (   1.4 sec)
                      ------------------
             **** ENERGY FILE WAS UPDATED (./output/o_cymene/o_cymene.en.tmp) ****
Finished Guess after   1.9 sec
Maximum memory used throughout the entire GUESS-calculation: 18.5 MB


           ************************************************************
           *        Program running with 40 parallel MPI-processes    *
           *              working on a common directory               *
           ************************************************************

-------------------------------------------------------------------------------------------
                                      ORCA LEAN-SCF
                              memory conserving SCF solver
-------------------------------------------------------------------------------------------

----------------------------------------D-I-I-S--------------------------------------------
Iteration    Energy (Eh)           Delta-E    RMSDP     MaxDP     DIISErr   Damp  Time(sec)
-------------------------------------------------------------------------------------------
               ***  Starting incremental Fock matrix formation  ***
    1    -64.9790367925193664     0.00e+00  4.40e-03  6.94e-02  1.84e-01  0.700   3.5
    2    -65.1388745212079812    -1.60e-01  3.25e-03  5.12e-02  1.12e-01  0.700   3.3
                               ***Turning on AO-DIIS***
    3    -65.2244877049881779    -8.56e-02  1.76e-03  2.94e-02  6.06e-02  0.700   2.7
    4    -65.2750991074385070    -5.06e-02  3.80e-03  6.24e-02  3.83e-02  0.000   3.0
    5    -65.3809422369026834    -1.06e-01  2.25e-04  2.80e-03  3.87e-03  0.000   3.0
                              *** Initializing SOSCF ***
---------------------------------------S-O-S-C-F--------------------------------------
Iteration    Energy (Eh)           Delta-E    RMSDP     MaxDP     MaxGrad    Time(sec)
--------------------------------------------------------------------------------------
    6    -65.3811650527545680    -2.23e-04  9.78e-05  1.29e-03  1.02e-03     3.1
               *** Restarting incremental Fock matrix formation ***
    7    -65.3812391766704764    -7.41e-05  6.24e-05  9.39e-04  2.83e-04     3.6
    8    -65.3812441684377745    -4.99e-06  3.00e-05  5.06e-04  4.06e-04     3.7
    9    -65.3812464697571158    -2.30e-06  7.87e-06  9.16e-05  3.75e-05     3.4
   10    -65.3812465238860909    -5.41e-08  2.45e-06  5.16e-05  1.33e-05     3.3
   11    -65.3812465313570783    -7.47e-09  8.28e-07  1.45e-05  6.62e-06     3.2
                 **** Energy Check signals convergence ****

               *****************************************************
               *                     SUCCESS                       *
               *           SCF CONVERGED AFTER  11 CYCLES          *
               *****************************************************

Recomputing exchange energy using gridx3       ... done (    3.198 sec)
Old exchange energy                            :    -10.199923836 Eh
New exchange energy                            :    -10.199896362 Eh
Exchange energy change after final integration :      0.000027474 Eh
Total energy after final integration           :    -65.381219058 Eh
             **** ENERGY FILE WAS UPDATED (./output/o_cymene/o_cymene.en.tmp) ****

----------------
TOTAL SCF ENERGY
----------------

Total Energy       :        -65.38121905753081 Eh           -1779.11342 eV

Components:
Nuclear Repulsion  :        270.90794049253446 Eh            7371.77983 eV
Electronic Energy  :       -336.28918702389154 Eh           -9150.89400 eV
One Electron Energy:       -632.98515333809166 Eh          -17224.40169 eV
Two Electron Energy:        296.69596631420012 Eh            8073.50769 eV

Virial components:
Potential Energy   :       -116.03946672883433 Eh           -3157.59442 eV
Kinetic Energy     :         50.65824767130352 Eh            1378.48100 eV
Virial Ratio       :          2.29063325446544

DFT components:
N(Alpha)           :       27.000020179810 electrons
N(Beta)            :       27.000020179810 electrons
N(Total)           :       54.000040359619 electrons
E(X)               :      -10.378320082815 Eh       
E(C)               :       -2.011139257693 Eh       
E(XC)              :      -12.389459340507 Eh       

---------------
SCF CONVERGENCE
---------------

  Last Energy change         ...    7.4710e-09  Tolerance :   1.0000e-08
  Last MAX-Density change    ...    1.4546e-05  Tolerance :   1.0000e-07
  Last RMS-Density change    ...    8.2773e-07  Tolerance :   5.0000e-09
  Last DIIS Error            ...    1.0168e-03  Tolerance :   5.0000e-07
  Last Orbital Gradient      ...    6.6163e-06  Tolerance :   1.0000e-05
  Last Orbital Rotation      ...    1.9529e-05  Tolerance :   1.0000e-05


----------------
ORBITAL ENERGIES
----------------

  NO   OCC          E(Eh)            E(eV) 
   0   2.0000      -0.999613       -27.2009 
   1   2.0000      -0.939929       -25.5768 
   2   2.0000      -0.906322       -24.6623 
   3   2.0000      -0.866634       -23.5823 
   4   2.0000      -0.818761       -22.2796 
   5   2.0000      -0.813025       -22.1235 
   6   2.0000      -0.737912       -20.0796 
   7   2.0000      -0.719898       -19.5894 
   8   2.0000      -0.678330       -18.4583 
   9   2.0000      -0.617167       -16.7940 
  10   2.0000      -0.590373       -16.0649 
  11   2.0000      -0.570519       -15.5246 
  12   2.0000      -0.549200       -14.9445 
  13   2.0000      -0.541534       -14.7359 
  14   2.0000      -0.535545       -14.5729 
  15   2.0000      -0.522138       -14.2081 
  16   2.0000      -0.516465       -14.0537 
  17   2.0000      -0.497504       -13.5378 
  18   2.0000      -0.487392       -13.2626 
  19   2.0000      -0.475170       -12.9300 
  20   2.0000      -0.465074       -12.6553 
  21   2.0000      -0.447878       -12.1874 
  22   2.0000      -0.444174       -12.0866 
  23   2.0000      -0.425167       -11.5694 
  24   2.0000      -0.418335       -11.3835 
  25   2.0000      -0.338887        -9.2216 
  26   2.0000      -0.327863        -8.9216 
  27   0.0000       0.068435         1.8622 
  28   0.0000       0.069772         1.8986 
  29   0.0000       0.085978         2.3396 
  30   0.0000       0.096686         2.6310 
  31   0.0000       0.098324         2.6755 
  32   0.0000       0.118528         3.2253 
  33   0.0000       0.124055         3.3757 
  34   0.0000       0.124949         3.4000 
  35   0.0000       0.139702         3.8015 
  36   0.0000       0.152043         4.1373 
  37   0.0000       0.163719         4.4550 
*Only the first 10 virtual orbitals were printed.

                    ********************************
                    * MULLIKEN POPULATION ANALYSIS *
                    ********************************

-----------------------
MULLIKEN ATOMIC CHARGES
-----------------------
   0 C :   -0.083980
   1 C :   -0.063921
   2 C :    0.012515
   3 C :   -0.010679
   4 C :   -0.011294
   5 C :    0.005941
   6 C :   -0.066408
   7 C :   -0.132919
   8 C :   -0.056276
   9 C :   -0.069815
  10 H :    0.037072
  11 H :    0.061627
  12 H :    0.041098
  13 H :    0.015241
  14 H :    0.015042
  15 H :    0.014274
  16 H :    0.014540
  17 H :    0.042996
  18 H :    0.037146
  19 H :    0.049522
  20 H :    0.027566
  21 H :    0.052707
  22 H :    0.036672
  23 H :    0.031331
Sum of atomic charges:   -0.0000000

--------------------------------
MULLIKEN REDUCED ORBITAL CHARGES
--------------------------------
  0 C s       :     0.947886  s :     0.947886
      pz      :     1.026691  p :     3.061492
      px      :     1.044220
      py      :     0.990581
      dz2     :     0.018689  d :     0.074602
      dxz     :     0.012030
      dyz     :     0.011507
      dx2y2   :     0.010646
      dxy     :     0.021730

  1 C s       :     1.064682  s :     1.064682
      pz      :     0.959527  p :     2.881786
      px      :     0.966113
      py      :     0.956146
      dz2     :     0.012719  d :     0.117454
      dxz     :     0.022910
      dyz     :     0.015863
      dx2y2   :     0.032667
      dxy     :     0.033296

  2 C s       :     1.001402  s :     1.001402
      pz      :     0.965320  p :     2.892289
      px      :     0.949288
      py      :     0.977681
      dz2     :     0.009196  d :     0.093794
      dxz     :     0.020064
      dyz     :     0.010188
      dx2y2   :     0.022451
      dxy     :     0.031896

  3 C s       :     0.999960  s :     0.999960
      pz      :     0.963229  p :     2.915734
      px      :     0.978748
      py      :     0.973757
      dz2     :     0.013651  d :     0.094985
      dxz     :     0.010254
      dyz     :     0.016470
      dx2y2   :     0.033785
      dxy     :     0.020824

  4 C s       :     1.000038  s :     1.000038
      pz      :     0.966434  p :     2.916586
      px      :     0.974345
      py      :     0.975806
      dz2     :     0.007014  d :     0.094670
      dxz     :     0.021748
      dyz     :     0.011078
      dx2y2   :     0.025382
      dxy     :     0.029448

  5 C s       :     1.002257  s :     1.002257
      pz      :     0.964866  p :     2.898045
      px      :     0.966893
      py      :     0.966287
      dz2     :     0.009382  d :     0.093756
      dxz     :     0.020639
      dyz     :     0.009647
      dx2y2   :     0.023119
      dxy     :     0.030969

  6 C s       :     1.053572  s :     1.053572
      pz      :     0.983511  p :     2.898312
      px      :     0.940550
      py      :     0.974251
      dz2     :     0.013593  d :     0.114524
      dxz     :     0.020814
      dyz     :     0.015605
      dx2y2   :     0.032588
      dxy     :     0.031924

  7 C s       :     1.048559  s :     1.048559
      pz      :     0.963111  p :     2.958544
      px      :     0.940875
      py      :     1.054559
      dz2     :     0.030974  d :     0.125815
      dxz     :     0.028466
      dyz     :     0.018671
      dx2y2   :     0.030735
      dxy     :     0.016970

  8 C s       :     0.962163  s :     0.962163
      pz      :     0.990425  p :     3.019681
      px      :     1.011923
      py      :     1.017333
      dz2     :     0.022846  d :     0.074432
      dxz     :     0.009895
      dyz     :     0.010868
      dx2y2   :     0.025234
      dxy     :     0.005590

  9 C s       :     0.959247  s :     0.959247
      pz      :     0.966808  p :     3.036928
      px      :     1.037172
      py      :     1.032948
      dz2     :     0.018951  d :     0.073640
      dxz     :     0.016129
      dyz     :     0.011857
      dx2y2   :     0.017685
      dxy     :     0.009019

 10 H s       :     0.919167  s :     0.919167
      pz      :     0.010298  p :     0.043761
      px      :     0.015850
      py      :     0.017613

 11 H s       :     0.893719  s :     0.893719
      pz      :     0.022658  p :     0.044654
      px      :     0.011379
      py      :     0.010617

 12 H s       :     0.913093  s :     0.913093
      pz      :     0.014271  p :     0.045809
      px      :     0.019156
      py      :     0.012382

 13 H s       :     0.934576  s :     0.934576
      pz      :     0.015563  p :     0.050183
      px      :     0.014955
      py      :     0.019665

 14 H s       :     0.935283  s :     0.935283
      pz      :     0.013688  p :     0.049675
      px      :     0.025577
      py      :     0.010410

 15 H s       :     0.935954  s :     0.935954
      pz      :     0.016519  p :     0.049771
      px      :     0.012551
      py      :     0.020701

 16 H s       :     0.935325  s :     0.935325
      pz      :     0.015377  p :     0.050135
      px      :     0.014570
      py      :     0.020188

 17 H s       :     0.916107  s :     0.916107
      pz      :     0.010033  p :     0.040898
      px      :     0.009875
      py      :     0.020990

 18 H s       :     0.919698  s :     0.919698
      pz      :     0.009841  p :     0.043155
      px      :     0.023226
      py      :     0.010088

 19 H s       :     0.907666  s :     0.907666
      pz      :     0.020554  p :     0.042812
      px      :     0.011239
      py      :     0.011019

 20 H s       :     0.928121  s :     0.928121
      pz      :     0.010191  p :     0.044313
      px      :     0.010824
      py      :     0.023299

 21 H s       :     0.904299  s :     0.904299
      pz      :     0.017219  p :     0.042994
      px      :     0.014040
      py      :     0.011736

 22 H s       :     0.920236  s :     0.920236
      pz      :     0.009948  p :     0.043092
      px      :     0.020953
      py      :     0.012191

 23 H s       :     0.923785  s :     0.923785
      pz      :     0.009861  p :     0.044884
      px      :     0.011056
      py      :     0.023967



                     *******************************
                     * LOEWDIN POPULATION ANALYSIS *
                     *******************************

----------------------
LOEWDIN ATOMIC CHARGES
----------------------
   0 C :   -0.113075
   1 C :   -0.030110
   2 C :   -0.043641
   3 C :   -0.053052
   4 C :   -0.054170
   5 C :   -0.040565
   6 C :   -0.017405
   7 C :   -0.087181
   8 C :   -0.111739
   9 C :   -0.115053
  10 H :    0.054469
  11 H :    0.054358
  12 H :    0.045501
  13 H :    0.043616
  14 H :    0.043546
  15 H :    0.043324
  16 H :    0.042538
  17 H :    0.056444
  18 H :    0.048464
  19 H :    0.051293
  20 H :    0.041343
  21 H :    0.051030
  22 H :    0.048084
  23 H :    0.041983

-------------------------------
LOEWDIN REDUCED ORBITAL CHARGES
-------------------------------
  0 C s       :     0.773797  s :     0.773797
      pz      :     1.046857  p :     3.099643
      px      :     1.052447
      py      :     1.000339
      dz2     :     0.060050  d :     0.239636
      dxz     :     0.038476
      dyz     :     0.035130
      dx2y2   :     0.033342
      dxy     :     0.072637

  1 C s       :     0.791134  s :     0.791134
      pz      :     0.896393  p :     2.871186
      px      :     1.012999
      py      :     0.961793
      dz2     :     0.042161  d :     0.367790
      dxz     :     0.065272
      dyz     :     0.049798
      dx2y2   :     0.103740
      dxy     :     0.106819

  2 C s       :     0.798958  s :     0.798958
      pz      :     0.918611  p :     2.942126
      px      :     1.016475
      py      :     1.007041
      dz2     :     0.028767  d :     0.302557
      dxz     :     0.059696
      dyz     :     0.032021
      dx2y2   :     0.075324
      dxy     :     0.106750

  3 C s       :     0.798984  s :     0.798984
      pz      :     0.913579  p :     2.947594
      px      :     1.035581
      py      :     0.998435
      dz2     :     0.041473  d :     0.306473
      dxz     :     0.027362
      dyz     :     0.054771
      dx2y2   :     0.114846
      dxy     :     0.068022

  4 C s       :     0.798993  s :     0.798993
      pz      :     0.918149  p :     2.949365
      px      :     1.025489
      py      :     1.005727
      dz2     :     0.022495  d :     0.305813
      dxz     :     0.063245
      dyz     :     0.035008
      dx2y2   :     0.085738
      dxy     :     0.099327

  5 C s       :     0.798765  s :     0.798765
      pz      :     0.915285  p :     2.938636
      px      :     1.024519
      py      :     0.998832
      dz2     :     0.029775  d :     0.303164
      dxz     :     0.061048
      dyz     :     0.031536
      dx2y2   :     0.075326
      dxy     :     0.105478

  6 C s       :     0.792656  s :     0.792656
      pz      :     0.904900  p :     2.867486
      px      :     0.971634
      py      :     0.990952
      dz2     :     0.040545  d :     0.357263
      dxz     :     0.060949
      dyz     :     0.049750
      dx2y2   :     0.104856
      dxy     :     0.101164

  7 C s       :     0.755440  s :     0.755440
      pz      :     0.963294  p :     2.947764
      px      :     0.956622
      py      :     1.027847
      dz2     :     0.095102  d :     0.383976
      dxz     :     0.083833
      dyz     :     0.056748
      dx2y2   :     0.094908
      dxy     :     0.053385

  8 C s       :     0.780091  s :     0.780091
      pz      :     1.008863  p :     3.086779
      px      :     1.042085
      py      :     1.035832
      dz2     :     0.076473  d :     0.244870
      dxz     :     0.032138
      dyz     :     0.034788
      dx2y2   :     0.083746
      dxy     :     0.017726

  9 C s       :     0.779149  s :     0.779149
      pz      :     0.986233  p :     3.093572
      px      :     1.049138
      py      :     1.058202
      dz2     :     0.061773  d :     0.242331
      dxz     :     0.053085
      dyz     :     0.040199
      dx2y2   :     0.058270
      dxy     :     0.029004

 10 H s       :     0.801575  s :     0.801575
      pz      :     0.040130  p :     0.143956
      px      :     0.052579
      py      :     0.051246

 11 H s       :     0.797156  s :     0.797156
      pz      :     0.064397  p :     0.148486
      px      :     0.043229
      py      :     0.040860

 12 H s       :     0.803393  s :     0.803393
      pz      :     0.047962  p :     0.151106
      px      :     0.060062
      py      :     0.043082

 13 H s       :     0.806244  s :     0.806244
      pz      :     0.047230  p :     0.150140
      px      :     0.045349
      py      :     0.057561

 14 H s       :     0.806427  s :     0.806427
      pz      :     0.043117  p :     0.150027
      px      :     0.070026
      py      :     0.036885

 15 H s       :     0.806492  s :     0.806492
      pz      :     0.049265  p :     0.150184
      px      :     0.041640
      py      :     0.059279

 16 H s       :     0.806564  s :     0.806564
      pz      :     0.046538  p :     0.150898
      px      :     0.046480
      py      :     0.057881

 17 H s       :     0.796269  s :     0.796269
      pz      :     0.041420  p :     0.147287
      px      :     0.036895
      py      :     0.068971

 18 H s       :     0.806406  s :     0.806406
      pz      :     0.038623  p :     0.145131
      px      :     0.066529
      py      :     0.039978

 19 H s       :     0.804092  s :     0.804092
      pz      :     0.060497  p :     0.144615
      px      :     0.042176
      py      :     0.041942

 20 H s       :     0.809890  s :     0.809890
      pz      :     0.040293  p :     0.148767
      px      :     0.041748
      py      :     0.066726

 21 H s       :     0.804052  s :     0.804052
      pz      :     0.054103  p :     0.144918
      px      :     0.047798
      py      :     0.043016

 22 H s       :     0.806421  s :     0.806421
      pz      :     0.038550  p :     0.145496
      px      :     0.062005
      py      :     0.044941

 23 H s       :     0.808021  s :     0.808021
      pz      :     0.038676  p :     0.149996
      px      :     0.042837
      py      :     0.068483



                      *****************************
                      * MAYER POPULATION ANALYSIS *
                      *****************************

  NA   - Mulliken gross atomic population
  ZA   - Total nuclear charge
  QA   - Mulliken gross atomic charge
  VA   - Mayer's total valence
  BVA  - Mayer's bonded valence
  FA   - Mayer's free valence

  ATOM       NA         ZA         QA         VA         BVA        FA
  0 C      4.0840     4.0000    -0.0840     3.9737     3.9737    -0.0000
  1 C      4.0639     4.0000    -0.0639     4.1428     4.1428    -0.0000
  2 C      3.9875     4.0000     0.0125     4.0450     4.0450     0.0000
  3 C      4.0107     4.0000    -0.0107     4.0753     4.0753     0.0000
  4 C      4.0113     4.0000    -0.0113     4.0776     4.0776     0.0000
  5 C      3.9941     4.0000     0.0059     4.0682     4.0682     0.0000
  6 C      4.0664     4.0000    -0.0664     4.1021     4.1021    -0.0000
  7 C      4.1329     4.0000    -0.1329     4.0655     4.0655    -0.0000
  8 C      4.0563     4.0000    -0.0563     3.9461     3.9461    -0.0000
  9 C      4.0698     4.0000    -0.0698     3.9527     3.9527    -0.0000
 10 H      0.9629     1.0000     0.0371     1.0335     1.0335    -0.0000
 11 H      0.9384     1.0000     0.0616     1.0050     1.0050    -0.0000
 12 H      0.9589     1.0000     0.0411     1.0133     1.0133    -0.0000
 13 H      0.9848     1.0000     0.0152     1.0436     1.0436    -0.0000
 14 H      0.9850     1.0000     0.0150     1.0459     1.0459    -0.0000
 15 H      0.9857     1.0000     0.0143     1.0462     1.0462    -0.0000
 16 H      0.9855     1.0000     0.0145     1.0430     1.0430     0.0000
 17 H      0.9570     1.0000     0.0430     1.0075     1.0075    -0.0000
 18 H      0.9629     1.0000     0.0371     1.0224     1.0224     0.0000
 19 H      0.9505     1.0000     0.0495     1.0192     1.0192    -0.0000
 20 H      0.9724     1.0000     0.0276     1.0356     1.0356     0.0000
 21 H      0.9473     1.0000     0.0527     1.0171     1.0171    -0.0000
 22 H      0.9633     1.0000     0.0367     1.0276     1.0276     0.0000
 23 H      0.9687     1.0000     0.0313     1.0218     1.0218     0.0000

  Mayer bond orders larger than 0.100000
B(  0-C ,  1-C ) :   1.0192 B(  0-C , 10-H ) :   0.9938 B(  0-C , 11-H ) :   0.9774 
B(  0-C , 12-H ) :   0.9874 B(  1-C ,  2-C ) :   1.4338 B(  1-C ,  6-C ) :   1.4611 
B(  2-C ,  3-C ) :   1.4459 B(  2-C , 13-H ) :   0.9909 B(  3-C ,  4-C ) :   1.4471 
B(  3-C , 14-H ) :   0.9921 B(  4-C ,  5-C ) :   1.4483 B(  4-C , 15-H ) :   0.9927 
B(  5-C ,  6-C ) :   1.4462 B(  5-C , 16-H ) :   0.9906 B(  6-C ,  7-C ) :   1.0084 
B(  7-C ,  8-C ) :   0.9855 B(  7-C ,  9-C ) :   0.9892 B(  7-C , 17-H ) :   1.0002 
B(  8-C , 18-H ) :   0.9943 B(  8-C , 19-H ) :   0.9945 B(  8-C , 20-H ) :   0.9930 
B(  9-C , 21-H ) :   0.9943 B(  9-C , 22-H ) :   0.9980 B(  9-C , 23-H ) :   0.9950 


-------
TIMINGS
-------

Total SCF time: 0 days 0 hours 0 min 43 sec 

Total time                  ....      43.181 sec
Sum of individual times     ....      41.270 sec  ( 95.6%)

SCF preparation             ....       2.179 sec  (  5.0%)
Fock matrix formation       ....      37.770 sec  ( 87.5%)
  Startup                   ....       0.258 sec  (  0.7% of F)
  Split-RI-J                ....       1.232 sec  (  3.3% of F)
  Chain of spheres X        ....      17.221 sec  ( 45.6% of F)
  XC integration            ....      18.464 sec  ( 48.9% of F)
    XC Preparation          ....       0.000 sec  (  0.0% of XC)
    Basis function eval.    ....       0.455 sec  (  2.5% of XC)
    Density eval.           ....       0.207 sec  (  1.1% of XC)
    XC-Functional eval.     ....       0.145 sec  (  0.8% of XC)
    XC-Potential eval.      ....       0.291 sec  (  1.6% of XC)
Diagonalization             ....       0.000 sec  (  0.0%)
Density matrix formation    ....       0.290 sec  (  0.7%)
Total Energy calculation    ....       0.247 sec  (  0.6%)
Population analysis         ....       0.130 sec  (  0.3%)
Orbital Transformation      ....       0.057 sec  (  0.1%)
Orbital Orthonormalization  ....       0.000 sec  (  0.0%)
DIIS solution               ....       0.415 sec  (  1.0%)
SOSCF solution              ....       0.182 sec  (  0.4%)
Finished LeanSCF after  43.3 sec

Maximum memory used throughout the entire LEANSCF-calculation: 35.2 MB


           ************************************************************
           *        Program running with 40 parallel MPI-processes    *
           *              working on a common directory               *
           ************************************************************

------------------------------------------------------------------------------
                         ORCA PROPERTY INTEGRAL CALCULATIONS
------------------------------------------------------------------------------

GBWName                                   ... ./output/o_cymene/o_cymene.gbw
Number of atoms                           ...     24
Number of basis functions                 ...    200
Max core memory                           ...   1024 MB

Dipole integrals                          ... YES
Quadrupole integrals                      ...  NO
Linear momentum integrals                 ...  NO
Angular momentum integrals                ...  NO
Higher moments length integrals           ...  NO
Higher moments velocity integrals         ...  NO
Kinetic energy integrals                  ...  NO
GIAO right hand sides                     ...  NO
GIAO dipole derivative integrals          ...  NO
SOC integrals                             ...  NO
EPR diamagnetic integrals (GIAO)          ...  NO
EPR gauge integrals                       ...  NO
Field gradient integrals                  ...  NO (   0 nuclei)
Spin-dipole/Fermi contact integrals       ...  NO (   0 nuclei)
Contact density integrals                 ...  NO (   0 nuclei)
Nucleus-orbit integrals                   ...  NO (   0 nuclei)
Geometric perturbations                   ...  NO (  24 nuclei)

Choice of electric origin   ... Center of mass
Position of electric origin ... ( -0.6572,  0.2768,  0.1385) 
Choice of magnetic origin   ... GIAO
Position of magnetic origin ... (  0.0000,  0.0000,  0.0000) 

Calculating integrals                     ... Electric Dipole (Length)     done (  0.0 sec)

Property integrals calculated in   0.0 sec

Maximum memory used throughout the entire PROPINT-calculation: 15.6 MB


-------------------------------------------------------------------------------
                          DFT DISPERSION CORRECTION                            
                                                                               
                                DFTD4 V3.4.0                                   
-------------------------------------------------------------------------------
The wB97X-3c composite method is recognized
Using three-body term ABC
Active option DFTDOPT                   ...         5   

-------------------------   ----------------
Dispersion correction           -0.029292172
-------------------------   ----------------


-------------------------   --------------------
FINAL SINGLE POINT ENERGY       -65.410511229421
-------------------------   --------------------



           ************************************************************
           *        Program running with 40 parallel MPI-processes    *
           *              working on a common directory               *
           ************************************************************
------------------------------------------------------------------------------
                         ORCA SCF GRADIENT CALCULATION
------------------------------------------------------------------------------

Nuc. rep. gradient        (SHARK) ... done (  0.0 sec)
HCore & Overlap gradient  (SHARK) ... done (  0.0 sec)
ECP gradient              (SHARK) ... done (  0.3 sec)
Split-RIJ-J gradient      (SHARK) ... done (  0.3 sec)
COSX-gradient                     ... done (  5.2 sec)
XC gradient                       ... done (  1.5 sec)
Dispersion correction             ... done (  0.1 sec)

-------------------
DISPERSION GRADIENT
-------------------

   1   C   :   -0.000115701   -0.000809924   -0.000367349
   2   C   :   -0.000388682   -0.000425862   -0.000183586
   3   C   :   -0.000605274   -0.000277449   -0.000087568
   4   C   :   -0.000619624    0.000085090    0.000083492
   5   C   :   -0.000370373    0.000474322    0.000245202
   6   C   :   -0.000139320    0.000682746    0.000280573
   7   C   :    0.000009224    0.000305398    0.000092664
   8   C   :    0.000544526    0.000261333    0.000049349
   9   C   :    0.000592496   -0.000148269    0.000589151
  10   C   :    0.000603382    0.000154177   -0.000582501
  11   H   :   -0.000000657   -0.000154844   -0.000055062
  12   H   :   -0.000041719   -0.000171475   -0.000150324
  13   H   :   -0.000044501   -0.000256626   -0.000051882
  14   H   :   -0.000148466   -0.000088524   -0.000030489
  15   H   :   -0.000148699    0.000009920    0.000015741
  16   H   :   -0.000072206    0.000116891    0.000062403
  17   H   :   -0.000010825    0.000198066    0.000079600
  18   H   :    0.000125878    0.000093008   -0.000000235
  19   H   :    0.000113936   -0.000027777    0.000121052
  20   H   :    0.000134542   -0.000046927    0.000175676
  21   H   :    0.000160267   -0.000084535    0.000187129
  22   H   :    0.000139858    0.000075627   -0.000194942
  23   H   :    0.000110708    0.000039118   -0.000124969
  24   H   :    0.000171232   -0.000003484   -0.000153127

Difference to translation invariance:
           :    0.0000000000   -0.0000000000   -0.0000000000

Difference to rotation invariance:
           :   -0.0000000000   -0.0000000000   -0.0000000000

Norm of the Dispersion gradient    ...    0.0023479762
RMS gradient                       ...    0.0002767117
MAX gradient                       ...    0.0008099235

------------------
CARTESIAN GRADIENT
------------------

   1   C   :   -0.001067773    0.007719025    0.002272363
   2   C   :    0.004545119   -0.013076096   -0.002986602
   3   C   :   -0.012410006   -0.013953308   -0.007108637
   4   C   :   -0.007676970    0.000656892    0.001281669
   5   C   :   -0.004540439    0.006452983    0.002913522
   6   C   :    0.007744319    0.016403789    0.008272259
   7   C   :    0.011353310   -0.000065589   -0.004777914
   8   C   :   -0.002933928   -0.005258082    0.001671085
   9   C   :   -0.003196860   -0.000065185   -0.005473283
  10   C   :   -0.005063782    0.001380249    0.004602851
  11   H   :   -0.007615749   -0.012784313   -0.000580293
  12   H   :   -0.000168663    0.005756704   -0.013225096
  13   H   :    0.006553011   -0.004841608    0.009790453
  14   H   :   -0.003661169    0.001100866    0.000136336
  15   H   :   -0.000698733    0.000293236    0.000314181
[...]
 10:    222.35   0.000207    1.05  0.000291  ( 0.001246 -0.007673  0.015190)
 11:    242.99   0.000137    0.69  0.000176  ( 0.005750 -0.007054  0.009673)
 12:    277.12   0.000033    0.17  0.000037  ( 0.000964  0.001845  0.005753)
 13:    302.74   0.000038    0.19  0.000039  ( 0.003033 -0.003536  0.004188)
 14:    337.28   0.000344    1.74  0.000318  (-0.002283 -0.007652  0.015941)
 15:    373.66   0.000145    0.73  0.000121  ( 0.008239  0.006397  0.003468)
 16:    466.21   0.000075    0.38  0.000050  (-0.003773 -0.005212  0.002992)
 17:    476.65   0.001445    7.30  0.000946  (-0.003724  0.010443 -0.028690)
 18:    576.27   0.000466    2.35  0.000252  ( 0.001159 -0.003591  0.015427)
 19:    582.99   0.000209    1.06  0.000112  ( 0.000593  0.006187 -0.008559)
 20:    608.47   0.000119    0.60  0.000061  (-0.006930  0.002327  0.002718)
 21:    726.03   0.000114    0.58  0.000049  (-0.006590 -0.000137 -0.002388)
 22:    759.34   0.005999   30.32  0.002465  ( 0.003055 -0.020688  0.045035)
 23:    790.83   0.006194   31.30  0.002444  (-0.004568  0.019402 -0.045243)
 24:    843.76   0.000145    0.73  0.000054  ( 0.002737  0.005308  0.004254)
 25:    901.10   0.000023    0.12  0.000008  ( 0.000159 -0.000534  0.002790)
 26:    940.20   0.000072    0.36  0.000024  (-0.003336  0.003217 -0.001546)
 27:    951.99   0.000193    0.97  0.000063  ( 0.000578 -0.002081  0.007650)
 28:    983.65   0.000176    0.89  0.000056  ( 0.000199 -0.004195  0.006173)
 29:    996.91   0.000018    0.09  0.000006  (-0.002140  0.000689  0.000717)
 30:   1022.14   0.000003    0.02  0.000001  ( 0.000488 -0.000435  0.000736)
 31:   1029.47   0.000442    2.23  0.000134  (-0.010159  0.005516  0.000542)
 32:   1082.21   0.000954    4.82  0.000275  ( 0.004419 -0.002363 -0.015808)
 33:   1094.96   0.003984   20.13  0.001135  ( 0.032919  0.006541  0.002998)
 34:   1108.48   0.001628    8.23  0.000458  ( 0.016092 -0.012500 -0.006573)
 35:   1174.26   0.000412    2.08  0.000109  ( 0.004262  0.001016 -0.009495)
 36:   1179.92   0.000400    2.02  0.000106  ( 0.001967 -0.009999 -0.001344)
 37:   1190.24   0.000037    0.19  0.000010  ( 0.000554 -0.000693 -0.003005)
 38:   1200.26   0.000001    0.01  0.000000  (-0.000458  0.000112 -0.000382)
 39:   1258.35   0.000432    2.18  0.000107  (-0.010111 -0.002114  0.000667)
 40:   1277.61   0.000371    1.88  0.000091  ( 0.009111 -0.000022 -0.002779)
 41:   1332.44   0.000211    1.06  0.000049  (-0.005823 -0.003477 -0.001826)
 42:   1343.10   0.000103    0.52  0.000024  ( 0.004881  0.000129  0.000250)
 43:   1384.88   0.000062    0.31  0.000014  ( 0.001906 -0.000803  0.003109)
 44:   1429.16   0.000862    4.36  0.000188  (-0.006321  0.003096 -0.011780)
 45:   1436.50   0.001748    8.83  0.000380  ( 0.002359  0.003789 -0.018966)
 46:   1447.81   0.000765    3.86  0.000165  ( 0.011642  0.004039 -0.003602)
 47:   1455.83   0.001322    6.68  0.000283  (-0.012040  0.010624  0.005065)
 48:   1505.90   0.000911    4.60  0.000189  ( 0.012055  0.001681  0.006367)
 49:   1516.27   0.000996    5.03  0.000205  (-0.003533 -0.008855 -0.010683)
 50:   1519.07   0.001598    8.07  0.000328  ( 0.003596  0.005200  0.016978)
 51:   1522.59   0.000090    0.46  0.000019  (-0.000144  0.004230 -0.000773)
 52:   1535.87   0.001199    6.06  0.000244  ( 0.007380 -0.012391  0.005964)
 53:   1542.96   0.005240   26.48  0.001060  (-0.009688 -0.031076 -0.000520)
 54:   1545.95   0.000693    3.50  0.000140  ( 0.010333  0.004108 -0.004041)
 55:   1575.08   0.003148   15.91  0.000624  (-0.022034  0.009382  0.007082)
 56:   1689.79   0.000179    0.90  0.000033  ( 0.005029 -0.002321 -0.001532)
 57:   1719.60   0.000340    1.72  0.000062  ( 0.003557  0.005749  0.003988)
 58:   3101.92   0.003168   16.01  0.000319  ( 0.005583 -0.015883 -0.005942)
 59:   3104.13   0.006564   33.17  0.000660  ( 0.006857 -0.006406  0.023912)
 60:   3108.89   0.005652   28.56  0.000567  ( 0.021721  0.008409 -0.004985)
 61:   3118.40   0.005598   28.29  0.000560  (-0.010617  0.018966  0.009370)
 62:   3188.98   0.002744   13.87  0.000269  (-0.014442 -0.000657 -0.007715)
 63:   3192.55   0.004920   24.86  0.000481  ( 0.020944  0.004099 -0.005049)
 64:   3198.02   0.002305   11.65  0.000225  ( 0.005587  0.011112 -0.008381)
 65:   3204.71   0.003225   16.30  0.000314  ( 0.004897  0.014641  0.008702)
 66:   3215.64   0.002374   12.00  0.000230  (-0.001414  0.015004  0.001818)
 67:   3228.74   0.002153   10.88  0.000208  ( 0.009901 -0.010131  0.002729)
 68:   3235.97   0.002369   11.97  0.000228  ( 0.009880  0.010717  0.003999)
 69:   3240.31   0.000185    0.94  0.000018  (-0.000809  0.003528  0.002181)
 70:   3257.32   0.003130   15.82  0.000300  ( 0.009291  0.013707  0.005062)
 71:   3272.78   0.002662   13.45  0.000254  ( 0.013567 -0.007285 -0.004082)

* The epsilon (eps) is given for a Dirac delta lineshape.
** The dipole moment derivative (T) already includes vibrational overlap.

The first frequency considered to be a vibration is 6
The total number of vibrations considered is 66


--------------------------
THERMOCHEMISTRY AT 298.15K
--------------------------

Temperature         ...   298.15 K
Pressure            ...     1.00 atm
Total Mass          ...   134.22 AMU
Quasi RRHO          ...     True
Cut-Off Frequency   ...     1.00 cm^-1

Throughout the following assumptions are being made:
  (1) The electronic state is orbitally nondegenerate
  (2) There are no thermally accessible electronically excited states
  (3) Hindered rotations indicated by low frequency modes are not
      treated as such but are treated as vibrations and this may
      cause some error
  (4) All equations used are the standard statistical mechanics
      equations for an ideal gas
  (5) All vibrations are strictly harmonic

freq.      72.50  E(vib)   ...       0.49 
freq.     117.09  E(vib)   ...       0.44 
freq.     175.58  E(vib)   ...       0.38 
freq.     190.76  E(vib)   ...       0.36 
freq.     222.35  E(vib)   ...       0.33 
freq.     242.99  E(vib)   ...       0.31 
freq.     277.12  E(vib)   ...       0.28 
freq.     302.74  E(vib)   ...       0.26 
freq.     337.28  E(vib)   ...       0.24 
freq.     373.66  E(vib)   ...       0.21 
freq.     466.21  E(vib)   ...       0.16 
freq.     476.65  E(vib)   ...       0.15 
freq.     576.27  E(vib)   ...       0.11 
freq.     582.99  E(vib)   ...       0.11 
freq.     608.47  E(vib)   ...       0.10 
freq.     726.03  E(vib)   ...       0.06 
freq.     759.34  E(vib)   ...       0.06 
freq.     790.83  E(vib)   ...       0.05 
freq.     843.76  E(vib)   ...       0.04 
freq.     901.10  E(vib)   ...       0.03 
freq.     940.20  E(vib)   ...       0.03 
freq.     951.99  E(vib)   ...       0.03 
freq.     983.65  E(vib)   ...       0.02 
freq.     996.91  E(vib)   ...       0.02 
freq.    1022.14  E(vib)   ...       0.02 
freq.    1029.47  E(vib)   ...       0.02 
freq.    1082.21  E(vib)   ...       0.02 
freq.    1094.96  E(vib)   ...       0.02 
freq.    1108.48  E(vib)   ...       0.02 
freq.    1174.26  E(vib)   ...       0.01 
freq.    1179.92  E(vib)   ...       0.01 
freq.    1190.24  E(vib)   ...       0.01 
freq.    1200.26  E(vib)   ...       0.01 
freq.    1258.35  E(vib)   ...       0.01 
freq.    1277.61  E(vib)   ...       0.01 
freq.    1332.44  E(vib)   ...       0.01 
freq.    1343.10  E(vib)   ...       0.01 
freq.    1384.88  E(vib)   ...       0.00 
freq.    1429.16  E(vib)   ...       0.00 
freq.    1436.50  E(vib)   ...       0.00 
freq.    1447.81  E(vib)   ...       0.00 
freq.    1455.83  E(vib)   ...       0.00 
freq.    1505.90  E(vib)   ...       0.00 
freq.    1516.27  E(vib)   ...       0.00 
freq.    1519.07  E(vib)   ...       0.00 
freq.    1522.59  E(vib)   ...       0.00 
freq.    1535.87  E(vib)   ...       0.00 
freq.    1542.96  E(vib)   ...       0.00 
freq.    1545.95  E(vib)   ...       0.00 
freq.    1575.08  E(vib)   ...       0.00 
freq.    1689.79  E(vib)   ...       0.00 
freq.    1719.60  E(vib)   ...       0.00 
freq.    3101.92  E(vib)   ...       0.00 
freq.    3104.13  E(vib)   ...       0.00 
freq.    3108.89  E(vib)   ...       0.00 
freq.    3118.40  E(vib)   ...       0.00 
freq.    3188.98  E(vib)   ...       0.00 
freq.    3192.55  E(vib)   ...       0.00 
freq.    3198.02  E(vib)   ...       0.00 
freq.    3204.71  E(vib)   ...       0.00 
freq.    3215.64  E(vib)   ...       0.00 
freq.    3228.74  E(vib)   ...       0.00 
freq.    3235.97  E(vib)   ...       0.00 
freq.    3240.31  E(vib)   ...       0.00 
freq.    3257.32  E(vib)   ...       0.00 
freq.    3272.78  E(vib)   ...       0.00 

------------
INNER ENERGY
------------

The inner energy is: U= E(el) + E(ZPE) + E(vib) + E(rot) + E(trans)
    E(el)   - is the total energy from the electronic structure calculation
              = E(kin-el) + E(nuc-el) + E(el-el) + E(nuc-nuc)
    E(ZPE)  - the the zero temperature vibrational energy from the frequency calculation
    E(vib)  - the the finite temperature correction to E(ZPE) due to population
              of excited vibrational states
    E(rot)  - is the rotational thermal energy
    E(trans)- is the translational thermal energy

Summary of contributions to the inner energy U:
Electronic energy                ...    -65.41703464 Eh
Zero point energy                ...      0.21803334 Eh     136.82 kcal/mol
Thermal vibrational correction   ...      0.00715057 Eh       4.49 kcal/mol
Thermal rotational correction    ...      0.00141627 Eh       0.89 kcal/mol
Thermal translational correction ...      0.00141627 Eh       0.89 kcal/mol
-----------------------------------------------------------------------
Total thermal energy                    -65.18901818 Eh


Summary of corrections to the electronic energy:
(perhaps to be used in another calculation)
Total thermal correction                  0.00998311 Eh       6.26 kcal/mol
Non-thermal (ZPE) correction              0.21803334 Eh     136.82 kcal/mol
-----------------------------------------------------------------------
Total correction                          0.22801645 Eh     143.08 kcal/mol


--------
ENTHALPY
--------

The enthalpy is H = U + kB*T
                kB is Boltzmann's constant
Total thermal energy              ...    -65.18901818 Eh 
Thermal Enthalpy correction       ...      0.00094421 Eh       0.59 kcal/mol
-----------------------------------------------------------------------
Total Enthalpy                    ...    -65.18807398 Eh


Note: Only C1 symmetry has been detected, increase convergence thresholds 
      if your molecule has a higher symmetry. Symmetry factor of 1.0 is   
      used for the rotational entropy correction. 
 

Note: Rotational entropy computed according to Herzberg 
Infrared and Raman Spectra, Chapter V,1, Van Nostrand Reinhold, 1945 
Point Group:  C1, Symmetry Number:   1  
Rotational constants in cm-1:     0.072716     0.035385     0.028077 

Vibrational entropy computed according to the QRRHO of S. Grimme
Chem.Eur.J. 2012 18 9955 using a reference frequency of 100.0 cm-1


-------
ENTROPY
-------

The entropy contributions are T*S = T*(S(el)+S(vib)+S(rot)+S(trans))
     S(el)   - electronic entropy
     S(vib)  - vibrational entropy
     S(rot)  - rotational entropy
     S(trans)- translational entropy
The entropies will be listed as multiplied by the temperature to get
units of energy

Electronic entropy                ...      0.00000000 Eh      0.00 kcal/mol
Vibrational entropy               ...      0.01193040 Eh      7.49 kcal/mol
Rotational entropy                ...      0.01401241 Eh      8.79 kcal/mol
Translational entropy             ...      0.01928809 Eh     12.10 kcal/mol
-----------------------------------------------------------------------
Final entropy term                ...      0.04523090 Eh     28.38 kcal/mol

In case the symmetry of your molecule has not been determined correctly
or in case you have a reason to use a different symmetry number we print 
out the resulting rotational entropy values for sn=1,12:

 non-linear molecules -----------------------------------
|  sn= 1 | S(rot)=       0.01401241 Eh      8.79 kcal/mol|
|  sn= 2 | S(rot)=       0.01335796 Eh      8.38 kcal/mol|
|  sn= 3 | S(rot)=       0.01297513 Eh      8.14 kcal/mol|
|  sn= 4 | S(rot)=       0.01270350 Eh      7.97 kcal/mol|
|  sn= 5 | S(rot)=       0.01249281 Eh      7.84 kcal/mol|
|  sn= 6 | S(rot)=       0.01232067 Eh      7.73 kcal/mol|
|  sn= 7 | S(rot)=       0.01217512 Eh      7.64 kcal/mol|
|  sn= 8 | S(rot)=       0.01204905 Eh      7.56 kcal/mol|
|  sn= 9 | S(rot)=       0.01193784 Eh      7.49 kcal/mol|
|  sn=10 | S(rot)=       0.01183836 Eh      7.43 kcal/mol|
|  sn=11 | S(rot)=       0.01174837 Eh      7.37 kcal/mol|
|  sn=12 | S(rot)=       0.01166621 Eh      7.32 kcal/mol|
 linear molecules ---------------------------------------
|  Dinfh | S(rot)=       0.00869919 Eh      5.46 kcal/mol|
|  Cinfv | S(rot)=       0.00935365 Eh      5.87 kcal/mol|
 --------------------------------------------------------


-------------------
GIBBS FREE ENERGY
-------------------

The Gibbs free energy is G = H - T*S

Total enthalpy                    ...    -65.18807398 Eh 
Total entropy correction          ...     -0.04523090 Eh    -28.38 kcal/mol
-----------------------------------------------------------------------
Final Gibbs free energy         ...    -65.23330487 Eh

For completeness - the Gibbs free energy minus the electronic energy
G-E(el)                           ...      0.18372977 Eh    115.29 kcal/mol


Maximum memory used throughout the entire PROP-calculation: 101.8 MB

--------------------------------
SUGGESTED CITATIONS FOR THIS RUN
--------------------------------

Below you find a list of papers that are relevant to this ORCA run
We neither can nor want to force you to cite these papers, but we appreciate if you do
You receive ORCA, which is the product of decades of hard work by many enthusiastic individuals, for free
The only thing we kindly ask in return is that you cite our papers,
We deeply appreciate it, if you show your appreciation for ORCA by not just citing the generic ORCA reference.

Please note that relegating all ORCA citations to the supporting information does *not* help us.
SI sections are not indexed - citations you put there will not count into any citation statistics
But we need these citations in order to attract the funding resources that allow us to do what we are doing

Therefore, if you are a happy ORCA user, please consider citing a few of the papers listed below in the main body of your paper

In addition to the list printed below, the program has created the file ./output/o_cymene/o_cymene.bibtex that contains the list in bibtex format
You can import this file easily into all common literature databanks and citation aid programs


List of essential papers. We consider these as the minimum necessary citations

  1. Neese,F.
     Software update: the ORCA program system, version 5.0
     WIRES Comput. Molec. Sci., 2022 12(1)e1606
     doi.org/10.1002/wcms.1606
  2. Mueller,M.; Hansen,A.; Grimme,S.
     wB97X-3c: A composite range-separated hybrid DFT method with a molecule-optimized polarized valence double-zeta basis set
     J. Chem. Phys., 2023 158 014103
     doi.org/10.1063/5.0133026

List of papers to cite with high priority. The work reported in these papers was absolutely
necessary for this run to complete.
Our perspective: the developers of density functionals and basis sets usually get cited in chemistry papers
Good! But without the algorithms to do something with them, the functionals or basis sets would not do anything.
Hence, in our opinion, the algorithm design and method developments papers are equally worthy of getting cited

  1. Neese,F.
     An improvement of the resolution of the identity approximation for the formation of the Coulomb matrix
     J. Comp. Chem., 2003 24(14)1740-1747
     doi.org/10.1002/jcc.10318
  2. Neese,F.; Wennmohs,F.; Hansen,A.; Becker,U.
     Efficient, approximate and parallel Hartree-Fock and hybrid DFT calculations. A 'chain-of-spheres' algorithm for the Hartree-Fock exchange
     Chem. Phys., 2009 356(1-3)98-109
     doi.org/10.1016/j.chemphys.2008.10.036
  3. Bykov,D.; Petrenko,T.; Izsak,R.; Kossmann,S.; Becker,U.; Valeev,E.; Neese,F.
     Efficient implementation of the analytic second derivatives of Hartree-Fock and hybrid DFT energies: a detailed analysis of different approximations
     Molec. Phys., 2015 113 1961-1977
     doi.org/10.1080/00268976.2015.1025114
  4. Helmich-Paris,B.; de Souza,B.; Neese,F.; Izsák,R.
     An improved chain of spheres for exchange algorithm
     J. Chem. Phys., 2021 155 104109
     doi.org/doi: 10.1063/5.0058766.
  5. Neese,F.
     The SHARK Integral Generation and Digestion System
     J. Comp. Chem., 2022  1-16
     doi.org/10.1002/jcc.26942
  6. Caldeweyher,E.; Bannwarth,C.; Grimme,S.
     Extension of the D3 dispersion coefficient model
     J. Chem. Phys., 2017 147 034112
     doi.org/10.1063/1.4993215
  7. Caldeweyher,E.; Ehlert,S.; Hansen,A.; Neugebauer,H.; Spicher,S.; Bannwarth,C.; Grimme,S.
     A generally applicable atomic-charge dependent London dispersion correction
     J. Chem. Phys., 2019 150 154122
     doi.org/10.1063/1.5090222
  8. Caldeweyher,E.; Mewes,J.; Ehlert,S.; Grimme,S.
     Extension and evaluation of the D4 London-dispersion model for periodic systems
     Phys. Chem. Chem. Phys., 2020 22(16)8499-8512
     doi.org/10.1039/D0CP00502A
  9. Wittmann,L.; Gordiy,I.; Friede,M.; Helmich-Paris,B.; Grimme,S.; Hansen,A.; Bursch,M.
     Extension of the D3 and D4 London Dispersion Corrections to the full Actinides Series
     Phys. Chem. Chem. Phys., 2024 26(32)21379-21394
     doi.org/https://doi.org/10.1039/D4CP01514B 

List of suggested additional citations. These are papers that are important in the 'surrounding' of 
of this run, or papers that preceded the highly important papers. If you like your results we are grateful for a citation.

  1. Izsak,R.; Neese,F.
     An overlap fitted chain of spheres exchange method
     J. Chem. Phys., 2011 135 144105
     doi.org/10.1063/1.3646921
  2. Izsak,R.; Hansen,A.; Neese,F.
     The resolution of identity and chain of spheres approximations for the LPNO-CCSD singles Fock term
     Molec. Phys., 2012 110 2413-2417
     doi.org/10.1080/00268976.2012.687466
  3. Neese,F.
     The ORCA program system
     WIRES Comput. Molec. Sci., 2012 2(1)73-78
     doi.org/10.1002/wcms.81
  4. Izsak,R.; Neese,F.; Klopper,W.
     Robust fitting techniques in the chain of spheres approximation to the Fock exchange: The role of the complementary space
     J. Chem. Phys., 2013 139 
     doi.org/10.1063/1.4819264
  5. Neese,F.
     Software update: the ORCA program system, version 4.0
     WIRES Comput. Molec. Sci., 2018 8(1)1-6
     doi.org/10.1002/wcms.1327
  6. Neese,F.; Wennmohs,F.; Becker,U.; Riplinger,C.
     The ORCA quantum chemistry program package
     J. Chem. Phys., 2020 152 Art. No. L224108
     doi.org/10.1063/5.0004608

List of optional additional citations

  1. Neese,F.
     Approximate second-order SCF convergence for spin unrestricted wavefunctions
     Chem. Phys. Lett., 2000 325(1-3)93-98
     doi.org/10.1016/s0009-2614(00)00662-x

Timings for individual modules:

Sum of individual times          ...      625.853 sec (=  10.431 min)
Startup calculation              ...       39.250 sec (=   0.654 min)   6.3 %
SCF iterations                   ...      358.435 sec (=   5.974 min)  57.3 %
Property integrals               ...       43.393 sec (=   0.723 min)   6.9 %
SCF Response                     ...       31.110 sec (=   0.519 min)   5.0 %
Property calculations            ...       70.004 sec (=   1.167 min)  11.2 %
SCF Gradient evaluation          ...       83.495 sec (=   1.392 min)  13.3 %
Geometry relaxation              ...        0.165 sec (=   0.003 min)   0.0 %
                             ****ORCA TERMINATED NORMALLY****
TOTAL RUN TIME: 0 days 0 hours 10 minutes 31 seconds 315 msec
