
                                 *****************
                                 * O   R   C   A *
                                 *****************

                                            #,                                       
                                            ###                                      
                                            ####                                     
                                            #####                                    
                                            ######                                   
                                           ########,                                 
                                     ,,################,,,,,                         
                               ,,#################################,,                 
                          ,,##########################################,,             
                       ,#########################################, ''#####,          
                    ,#############################################,,   '####,        
                  ,##################################################,,,,####,       
                ,###########''''           ''''###############################       
              ,#####''   ,,,,##########,,,,          '''####'''          '####       
            ,##' ,,,,###########################,,,                        '##       
           ' ,,###''''                  '''############,,,                           
         ,,##''                                '''############,,,,        ,,,,,,###''
      ,#''                                            '''#######################'''  
     '                                                          ''''####''''         
             ,#######,   #######,   ,#######,      ##                                
            ,#'     '#,  ##    ##  ,#'     '#,    #''#        ,####,   ,####,        
            ##       ##  ##   ,#'  ##            #'  '#       #'       #'  '#        
            ##       ##  #######   ##           ,######,      #####,   #    #        
            '#,     ,#'  ##    ##  '#,     ,#' ,#      #,     #,   #   #,  ,#        
             '#######'   ##     ##  '#######'  #'      '#     '####' # '####'        



                #########################################################
                #                        -***-                          #
                #          Department of theory and spectroscopy        #
                #                                                       #
                #                      Frank Neese                      #
                #                                                       #
                #     Directorship, Architecture, Infrastructure        #
                #                    SHARK, DRIVERS                     #
                #        Core code/Algorithms in most modules           #
                #                                                       #
                #        Max Planck Institute fuer Kohlenforschung      #
                #                Kaiser Wilhelm Platz 1                 #
                #                 D-45470 Muelheim/Ruhr                 #
                #                      Germany                          #
                #                                                       #
                #                  All rights reserved                  #
                #                        -***-                          #
                #########################################################


                         Program Version 6.0.1  -  RELEASE   -


 With contributions from (in alphabetic order):
[Max-Planck-Institut fuer Kohlenforschung]                               
  Daniel Aravena         : Magnetic Suceptibility                        
  Michael Atanasov       : Ab Initio Ligand Field Theory (pilot matlab implementation)
  Alexander A. Auer      : GIAO ZORA, VPT2 properties, NMR spectrum      
  Ute Becker             : All parallelization in ORCA, NUMFREQ, NUMCALC 
  Giovanni Bistoni       : ED, misc. LED, open-shell LED, HFLD           
  Martin Brehm           : Molecular dynamics                            
  Dmytro Bykov           : pre 5.0 version of the SCF Hessian            
  Marcos Casanova-Páez   : Triplet and SCS-CIS(D). UHF-(DLPNO)-IP/EA/STEOM-CCSD. UHF-CVS-IP/STEOM-CCSD   
  Vijay G. Chilkuri      : MRCI spin determinant printing, contributions to CSF-ICE 
  Pauline Colinet        : FMM embedding                                 
  Dipayan Datta          : RHF DLPNO-CCSD density                        
  Achintya Kumar Dutta   : EOM-CC, STEOM-CC                              
  Nicolas Foglia         : Exact transition moments, OPA infrastructure, MCD improvements    
  Dmitry Ganyushin       : Spin-Orbit,Spin-Spin,Magnetic field MRCI      
  Miquel Garcia-Rates    : C-PCM and meta-GGA Hessian, CCSD/C-PCM, Gaussian charge scheme 
  Tiago L. C. Gouveia    : GS-ROHF, GS-ROCIS                             
  Yang Guo               : DLPNO-NEVPT2, F12-NEVPT2, CIM, IAO-localization        
  Andreas Hansen         : Spin unrestricted coupled pair/coupled cluster methods 
  Ingolf Harden          : AUTO-CI MPn and infrastructure                
  Benjamin Helmich-Paris : MC-RPA, TRAH-(SCF,CASSCF), AVAS, COSX integrals, SCF dyn. polar. 
  Lee Huntington         : MR-EOM, pCC                                   
  Robert Izsak           : Overlap fitted RIJCOSX, COSX-SCS-MP3, EOM     
  Riya Kayal             : Wick's Theorem for AUTO-CI, AUTO-CI UHF-CCSDT 
  Emily Kempfer          : AUTO-CI, RHF CISDT and CCSDT                  
  Christian Kollmar      : KDIIS, OOCD, Brueckner-CCSD(T), CCSD density, CASPT2, CASPT2-K, improved NEVPT2 
  Axel Koslowski         : Symmetry handling                             
  Simone Kossmann        : meta-GGA functionals, TD-DFT gradient, OOMP2, (MP2 Hessian; deprecated post 5.0) 
  Lucas Lang             : DCDCAS                                        
  Marvin Lechner         : AUTO-CI (C++ implementation), FIC-MRCC        
  Spencer Leger          : CASSCF response                               
  Dagmar Lenk            : GEPOL surface, SMD, ORCA-2-JSON               
  Dimitrios Liakos       : Extrapolation schemes; Compound Job, initial MDCI parallelization 
  Dimitrios Manganas     : Further ROCIS development; embedding schemes. LFT, Crystal Embedding 
  Dimitrios Pantazis     : SARC Basis sets                               
  Anastasios Papadopoulos: AUTO-CI, single reference methods and gradients 
  Taras Petrenko         : pre 6.0 DFT Hessian and TD-DFT gradient, (ASA, deprecated), ECA, 1-Electron XAS/XES, NRVS 
  Peter Pinski           : DLPNO-MP2, DLPNO-MP2 Gradient                 
  Christoph Reimann      : Effective Core Potentials                     
  Marius Retegan         : Local ZFS, SOC                                
  Christoph Riplinger    : Optimizer, TS searches, QM/MM, DLPNO-CCSD(T), (RO)-DLPNO pert. Triples 
  Michael Roemelt        : Original ROCIS implementation                 
  Masaaki Saitow         : Open-shell DLPNO-CCSD energy and density      
  Barbara Sandhoefer     : DKH picture change effects                    
  Kantharuban Sivalingam : CASSCF convergence/infrastructure, NEVPT2 and variants, FIC-MRCI 
  Bernardo de Souza      : ESD, SOC TD-DFT                               
  Georgi L. Stoychev     : AutoAux, RI-MP2 NMR, DLPNO-MP2 response, X2C  
  Van Anh Tran           : RI-MP2 g-tensors                              
  Willem Van den Heuvel  : Paramagnetic NMR                              
  Zikuan Wang            : NOTCH, Electric field optimization            
  Frank Wennmohs         : Technical directorship and infrastructure     
  Hang Xu                : AUTO-CI-Response properties                   
                                                                         
[FACCTs GmbH]                                                            
  Markus Bursch, Miquel Garcia-Rates, Christoph Riplinger, Bernardo de Souza, Georgi L. Stoychev 
                                                                 
  APM, Basis sets (HGBS, AHGBS, def-TZVP (Ac-Lr), def2-XVPD (La-Lu)), CI-OPT, improved COSX, DLPNO-Multilevel,           
  DOCKER, DRACO, updates on ESD, GOAT, IRC, LR-CPCM, MBIS, meta-GGA TD-DFT gradient, ML-optimized integration grids, 
  MM, NACMEs, nearIR, NEB, NEB-TS, NL-DFT gradient (VV10), 2- and 3-layer-ONIOM, interface openCOSMO-RS, QMMM,   
  Crystal-QMMM, SF, symmetry and pop. for TD-DFT, r2SCAN hybrids, SOLVATOR                                   
                                                                         
[Other institutions]                                                     
  V. Asgeirsson          : NEB                                           
  Christoph Bannwarth    : sTDA-DFT, sTD-DFT, PBEh-3c, B97-3c, D3        
  Sebastian Ehlert       : rSCAN, r2SCAN, r2SCAN-3c, D4, dhf basis sets  
  Marvin Friede          : D4 for Fr, Ra, Ac-Lr                          
  Lars Goerigk           : TD-DFT with DH, B97 family of functionals     
  Stefan Grimme          : VdW corrections, initial TS optimization, DFT functionals, gCP, sTDA/sTD-DF 
  Waldemar Hujo          : DFT-NL                                        
  H. Jonsson             : NEB                                           
  Holger Kruse           : gCP                                           
  Marcel Mueller         : wB97X-3c, vDZP basis set                      
  Hagen Neugebauer       : wr2SCAN                                       
  Tobias Risthaus        : range-separated hybrid DFT                    
  Lukas Wittmann         : regularized MP2, r2SCAN double-hybrids, wr2SCAN        
                                                                         
We gratefully acknowledge several colleagues who have allowed us to      
interface, adapt or use parts of their codes:                            
  Ed Valeev, F. Pavosevic, A. Kumar             : LibInt (2-el integral package), F12 methods 
  Garnet Chan, S. Sharma, J. Yang, R. Olivares  : DMRG                   
  Ulf Ekstrom                                   : XCFun DFT Library      
  Mihaly Kallay                                 : mrcc  (arbitrary order and MRCC methods)
  Frank Weinhold                                : gennbo (NPA and NBO analysis)           
  Simon Mueller                                 : openCOSMO-RS                            
  Christopher J. Cramer and Donald G. Truhlar   : smd solvation model                     
  S Lehtola, MJT Oliveira, MAL Marques          : LibXC Library                           
  Liviu Ungur et al                             : ANISO software                          


 Your calculation uses the libint2 library for the computation of 2-el integrals
 For citations please refer to: http://libint.valeyev.net

 Your ORCA version has been built with support for libXC version: 6.2.2
 For citations please refer to: https://libxc.gitlab.io

 This ORCA versions uses:
   CBLAS   interface :  Fast vector & matrix operations
   LAPACKE interface :  Fast linear algebra routines
   SCALAPACK package :  Parallel linear algebra routines
   Shared memory     :  Shared parallel matrices
   BLAS/LAPACK       :  OpenBLAS 0.3.27  USE64BITINT DYNAMIC_ARCH NO_AFFINITY SkylakeX SINGLE_THREADED
        Core in use  :  SkylakeX
   Copyright (c) 2011-2014, The OpenBLAS Project


Your calculation utilizes the atom-pairwise dispersion correction
based on EEQ partial charges (D4)


================================================================================

cite the ECPs for C  [vDZP-ECP], O  [vDZP-ECP] as follows:
   B-Ne (ecp-2-mwb), Al-Ar (ecp-10-mwb), Ga-Kr (ecp-28-mwb), Y-Cd (ecp-28-mwb), In-Xe (ecp-46-mwb):
     A. Bergner, M. Dolg, W. Küchle, H. Stoll, and H. Preuß, Mol. Phys. 80, 1431 (1993)., T. Leininger, A. Berning, A. Nicklass, H. Stoll, H.-J. Werner, and H.-J.Flad, Chem. Phys. 217, 19 (1997).
   Na-Mg, K-Ca, Rb-Sr, Cs-Ba (CRENBL):
     L. Fernandez Pacios and P. A. Christiansen, J. Chem. Phys. 82, 2664 (1985)., M. M. Hurley, L. F. Pacios, P. A. Christiansen, R. B. Ross, and W. C. Ermler, J. Chem. Phys. 84, 6840 (1986)., L. A. LaJohn, P. A. Christiansen, R. B. Ross, T. Atashroo, and W. C. Ermler, J. Chem. Phys. 87, 2812 (1987)., R. B. Ross, J. M. Powers, T. Atashroo, W. C. Ermler, L. A. LaJohn, and P. A. Christiansen, J. Chem. Phys. 93, 6654 (1990). 
   Sc-Zn (ecp-10-mdf):
     M. Dolg, U. Wedig, H. Stoll, and H. Preuss, J. Chem. Phys. 86, 866 (1986). 
   Y-Cd (ecp-28-mwb), Hf-Hg (ecp-60-mwb):
     D. Andrae, U. Häußermann, M. Dolg, H. Stoll, and H. Preuß, Theor. Chim. Acta 77, 123 (1990). 
   La (ecp-46-mwb):
     M. Dolg, H. Stoll, and H. Preuss, J. Chem. Phys. 90, 1730 (1989)., M. Dolg, H. Stoll, and H. Preuss, Theor. Chim. Acta 85, 441 (1993).
   Ce-Lu (SBKJC-ecp):
     T. R. Cundari and W. J. Stevens, J. Chem. Phys. 98, 5555 (1993).
   Tl-Rn (ecp-78-mwb):
     W. Küchle, M. Dolg, H. Stoll, and H. Preuss, Mol. Phys. 74, 1245 (1991).

ECP parameters for C  [vDZP-ECP], O  [vDZP-ECP] have been obtained from:
MM, AH, SG, J. Chem. Phys. 158, 014103 (2023), 10.1063/5.0133026

----- Orbital basis set information -----
Your calculation utilizes the basis: vDZP
   Marcel Mueller, Andreas Hansen, Stefan Grimme 
   J. Chem. Phys. 158, 014103 (2023). DOI: 10.1063/5.0133026

----- AuxJ basis set information -----
Your calculation utilizes the auxiliary basis: def2/J
   F. Weigend, Phys. Chem. Chem. Phys. 8, 1057 (2006).

================================================================================
                                        WARNINGS
                       Please study these warnings very carefully!
================================================================================

WARNING: Frozen-Core approximation turned on, but there are no core electrons.
  ===> : Turning off frozen-core approximation


WARNING: Geometry Optimization
  ===> : Switching off AutoStart
         For restart on a previous wavefunction, please use MOREAD

================================================================================
                                       INPUT FILE
================================================================================
NAME = ./output/_e_anethole/_e_anethole.inp
|  1> ! wB97X-3c OPT FREQ TightSCF
|  2> %pal
|  3>   nprocs 40
|  4> end
|  5> * xyz 0 1
|  6> C      4.399614    -0.570965     0.658690
|  7> C      2.911635    -0.472565     0.766963
|  8> C      2.182857     0.009890    -0.246541
|  9> C      0.706134     0.152045    -0.212197
| 10> C     -0.106243    -0.570378     0.684112
| 11> C     -1.495273    -0.408939     0.670318
| 12> C     -2.100185     0.471242    -0.245448
| 13> C     -1.294885     1.177363    -1.144318
| 14> C      0.093323     1.016943    -1.132952
| 15> O     -3.488183     0.668214    -0.296482
| 16> C     -4.424363     0.016813     0.555985
| 17> H      4.674608    -1.246603    -0.178684
| 18> H      4.818772    -0.980363     1.601657
| 19> H      4.834889     0.435121     0.480441
| 20> H      2.451319    -0.778705     1.695986
| 21> H      2.702172     0.355165    -1.134126
| 22> H      0.317168    -1.278077     1.382673
| 23> H     -2.089735    -0.978646     1.371504
| 24> H     -1.748028     1.854598    -1.857281
| 25> H      0.691624     1.577352    -1.841274
| 26> H     -4.218760     0.274451     1.616456
| 27> H     -4.370734    -1.083036     0.412187
| 28> H     -5.447728     0.359079     0.299210
| 29> *
| 30> 
| 31>                          ****END OF INPUT****
================================================================================

                       *****************************
                       * Geometry Optimization Run *
                       *****************************

Geometry optimization settings:
Update method            Update   .... BFGS
Choice of coordinates    CoordSys .... (2022) Redundant Internals
Initial Hessian          InHess   .... Almloef's Model
Max. no of cycles        MaxIter  .... 69

Convergence Tolerances:
Energy Change            TolE     ....  5.0000e-06 Eh
Max. Gradient            TolMAXG  ....  3.0000e-04 Eh/bohr
RMS Gradient             TolRMSG  ....  1.0000e-04 Eh/bohr
Max. Displacement        TolMAXD  ....  4.0000e-03 bohr
RMS Displacement         TolRMSD  ....  2.0000e-03 bohr
Strict Convergence                .... False

------------------------------------------------------------------------------
                        ORCA OPTIMIZATION COORDINATE SETUP
------------------------------------------------------------------------------

The optimization will be done in redundant internal coordinates (2022)
Making redundant internal coordinates   ...  (2022 redundants) done
Evaluating the initial hessian          ...  (Almloef) done
Evaluating the coordinates              ...  done
Calculating the B-matrix                .... done
Calculating the G-matrix                .... done
Diagonalizing the G-matrix              .... done
Small eigenvalue found = 8.033e-03
Small eigenvalue found = 2.421e-02
The first mode is                       ....   39
The number of degrees of freedom        ....   63

    -----------------------------------------------------------------
                    Redundant Internal Coordinates


    -----------------------------------------------------------------
         Definition                    Initial Value    Approx d2E/dq
    -----------------------------------------------------------------
      1. B(C   1,C   0)                  1.4952         0.424591   
      2. B(C   2,C   1)                  1.3383         0.755455   
      3. B(C   3,C   2)                  1.4839         0.442438   
      4. B(C   4,C   3)                  1.4090         0.582719   
      5. B(C   5,C   4)                  1.3984         0.605704   
      6. B(C   6,C   5)                  1.4069         0.587265   
      7. B(C   7,C   6)                  1.3982         0.606161   
      8. B(C   8,C   7)                  1.3975         0.607834   
      9. B(C   8,C   3)                  1.4041         0.593351   
     10. B(O   9,C   6)                  1.4028         0.533828   
     11. B(C  10,O   9)                  1.4239         0.494094   
     12. B(H  11,C   0)                  1.1105         0.333926   
     13. B(H  12,C   0)                  1.1102         0.334377   
     14. B(H  13,C   0)                  1.1106         0.333847   
     15. B(H  14,C   1)                  1.0811         0.372119   
     16. B(H  15,C   2)                  1.0848         0.367095   
     17. B(H  16,C   4)                  1.0808         0.372495   
     18. B(H  17,C   5)                  1.0815         0.371540   
     19. B(H  18,C   7)                  1.0827         0.369848   
     20. B(H  19,C   8)                  1.0834         0.368946   
     21. B(H  20,C  10)                  1.1105         0.333956   
     22. B(H  21,C  10)                  1.1105         0.333971   
     23. B(H  22,C  10)                  1.1092         0.335559   
     24. A(H  11,C   0,H  12)          108.8209         0.284121   
     25. A(H  11,C   0,H  13)          109.4548         0.284051   
     26. A(C   1,C   0,H  13)          110.0017         0.327121   
     27. A(C   1,C   0,H  11)          109.9424         0.327134   
     28. A(C   1,C   0,H  12)          109.7861         0.327207   
     29. A(H  12,C   0,H  13)          108.8089         0.284110   
     30. A(C   2,C   1,H  14)          121.4002         0.367039   
     31. A(C   0,C   1,H  14)          117.8624         0.333043   
     32. A(C   0,C   1,C   2)          120.7186         0.420216   
     33. A(C   3,C   2,H  15)          117.7006         0.334572   
     34. A(C   1,C   2,H  15)          118.2744         0.366184   
     35. A(C   1,C   2,C   3)          123.9803         0.423317   
     36. A(C   2,C   3,C   8)          118.5656         0.405531   
     37. A(C   2,C   3,C   4)          122.6408         0.404238   
     38. A(C   4,C   3,C   8)          118.7743         0.425890   
     39. A(C   3,C   4,H  16)          121.4008         0.351231   
     40. A(C   5,C   4,H  16)          118.1050         0.353538   
     41. A(C   3,C   4,C   5)          120.4791         0.427465   
     42. A(C   6,C   5,H  17)          121.0149         0.351541   
     43. A(C   4,C   5,H  17)          118.6046         0.353384   
     44. A(C   4,C   5,C   6)          120.3792         0.428060   
     45. A(C   5,C   6,C   7)          119.1282         0.428118   
     46. A(C   7,C   6,O   9)          118.3953         0.418143   
     47. A(C   5,C   6,O   9)          122.4763         0.415792   
     48. A(C   8,C   7,H  18)          119.5310         0.353321   
     49. A(C   6,C   7,H  18)          119.8775         0.353156   
     50. A(C   6,C   7,C   8)          120.5914         0.430771   
     51. A(C   7,C   8,H  19)          118.9393         0.353175   
     52. A(C   3,C   8,H  19)          120.4214         0.351737   
     53. A(C   3,C   8,C   7)          120.6374         0.429123   
     54. A(C   6,O   9,C  10)          124.3685         0.400676   
     55. A(H  21,C  10,H  22)          108.6741         0.284282   
     56. A(H  20,C  10,H  22)          108.6802         0.284280   
     57. A(O   9,C  10,H  22)          109.0771         0.333689   
     58. A(H  20,C  10,H  21)          110.1503         0.284071   
     59. A(O   9,C  10,H  21)          110.1095         0.333427   
     60. A(O   9,C  10,H  20)          110.1115         0.333424   
     61. D(C   2,C   1,C   0,H  13)     59.5485         0.013322   
     62. D(H  14,C   1,C   0,H  11)    120.4946         0.013322   
     63. D(H  14,C   1,C   0,H  12)      0.8084         0.013322   
     64. D(C   2,C   1,C   0,H  12)    179.2568         0.013322   
     65. D(C   2,C   1,C   0,H  11)    -61.0570         0.013322   
     66. D(C   3,C   2,C   1,C   0)   -179.3672         0.040758   
     67. D(C   3,C   2,C   1,H  14)     -0.9743         0.040758   
     68. D(H  15,C   2,C   1,H  14)    176.5332         0.040758   
     69. D(H  15,C   2,C   1,C   0)     -1.8597         0.040758   
     70. D(C   8,C   3,C   2,H  15)    -16.3986         0.013353   
     71. D(C   8,C   3,C   2,C   1)    161.1222         0.013353   
     72. D(C   4,C   3,C   2,H  15)    161.9848         0.013353   
     73. D(C   4,C   3,C   2,C   1)    -20.4944         0.013353   
     74. D(C   5,C   4,C   3,C   8)     -1.1181         0.023339   
     75. D(C   5,C   4,C   3,C   2)   -179.4983         0.023339   
     76. D(H  16,C   4,C   3,C   8)    177.4418         0.023339   
     77. D(H  16,C   4,C   3,C   2)     -0.9384         0.023339   
     78. D(H  17,C   5,C   4,H  16)      1.3869         0.025318   
     79. D(H  17,C   5,C   4,C   3)    179.9934         0.025318   
     80. D(C   6,C   5,C   4,H  16)   -178.1935         0.025318   
     81. D(C   6,C   5,C   4,C   3)      0.4130         0.025318   
     82. D(O   9,C   6,C   5,H  17)      0.5197         0.023723   
     83. D(O   9,C   6,C   5,C   4)   -179.9102         0.023723   
     84. D(C   7,C   6,C   5,H  17)   -179.3052         0.023723   
     85. D(C   7,C   6,C   5,C   4)      0.2649         0.023723   
     86. D(H  18,C   7,C   6,O   9)     -0.1058         0.025358   
     87. D(H  18,C   7,C   6,C   5)    179.7263         0.025358   
     88. D(C   8,C   7,C   6,O   9)    179.9458         0.025358   
     89. D(C   8,C   7,C   6,C   5)     -0.2221         0.025358   
     90. D(C   7,C   8,C   3,C   4)      1.1633         0.024242   
     91. D(C   7,C   8,C   3,C   2)    179.6103         0.024242   
     92. D(H  19,C   8,C   7,H  18)      0.0534         0.025506   
     93. D(H  19,C   8,C   7,C   6)   -179.9980         0.025506   
     94. D(C   3,C   8,C   7,H  18)    179.5493         0.025506   
     95. D(C   3,C   8,C   7,C   6)     -0.5021         0.025506   
     96. D(H  19,C   8,C   3,C   4)   -179.3483         0.024242   
     97. D(H  19,C   8,C   3,C   2)     -0.9013         0.024242   
     98. D(C  10,O   9,C   6,C   7)    179.9781         0.020558   
     99. D(C  10,O   9,C   6,C   5)      0.1519         0.020558   
    100. D(H  22,C  10,O   9,C   6)    179.8673         0.019286   
    101. D(H  21,C  10,O   9,C   6)    -60.9624         0.019286   
    102. D(H  20,C  10,O   9,C   6)     60.6883         0.019286   
    -----------------------------------------------------------------

Number of atoms                         .... 23
Number of degrees of freedom            .... 102


         *************************************************************
         *                GEOMETRY OPTIMIZATION CYCLE   1            *
         *************************************************************
---------------------------------
CARTESIAN COORDINATES (ANGSTROEM)
---------------------------------
  C      4.399614   -0.570965    0.658690
  C      2.911635   -0.472565    0.766963
  C      2.182857    0.009890   -0.246541
  C      0.706134    0.152045   -0.212197
  C     -0.106243   -0.570378    0.684112
  C     -1.495273   -0.408939    0.670318
  C     -2.100185    0.471242   -0.245448
  C     -1.294885    1.177363   -1.144318
  C      0.093323    1.016943   -1.132952
  O     -3.488183    0.668214   -0.296482
  C     -4.424363    0.016813    0.555985
  H      4.674608   -1.246603   -0.178684
  H      4.818772   -0.980363    1.601657
  H      4.834889    0.435121    0.480441
  H      2.451319   -0.778705    1.695986
  H      2.702172    0.355165   -1.134126
  H      0.317168   -1.278077    1.382673
  H     -2.089735   -0.978646    1.371504
  H     -1.748028    1.854598   -1.857281
  H      0.691624    1.577352   -1.841274
  H     -4.218760    0.274451    1.616456
  H     -4.370734   -1.083036    0.412187
  H     -5.447728    0.359079    0.299210

----------------------------
CARTESIAN COORDINATES (A.U.)
----------------------------
  NO LB      ZA    FRAG     MASS         X           Y           Z
   0 C     4.0000*   0    12.011    8.314066   -1.078967    1.244744
   1 C     4.0000*   0    12.011    5.502193   -0.893018    1.449350
   2 C     4.0000*   0    12.011    4.125002    0.018689   -0.465895
   3 C     4.0000*   0    12.011    1.334400    0.287323   -0.400994
   4 C     4.0000*   0    12.011   -0.200770   -1.077858    1.292784
   5 C     4.0000*   0    12.011   -2.825656   -0.772783    1.266717
   6 C     4.0000*   0    12.011   -3.968774    0.890518   -0.463830
   7 C     4.0000*   0    12.011   -2.446978    2.224894   -2.162448
   8 C     4.0000*   0    12.011    0.176355    1.921744   -2.140969
   9 O     6.0000*   0    15.999   -6.591711    1.262741   -0.560270
  10 C     4.0000*   0    12.011   -8.360834    0.031772    1.050659
  11 H     1.0000    0     1.008    8.833729   -2.355738   -0.337664
  12 H     1.0000    0     1.008    9.106159   -1.852618    3.026693
  13 H     1.0000    0     1.008    9.136616    0.822260    0.907902
  14 H     1.0000    0     1.008    4.632322   -1.471539    3.204949
  15 H     1.0000    0     1.008    5.106365    0.671165   -2.143188
  16 H     1.0000    0     1.008    0.599361   -2.415216    2.612873
  17 H     1.0000    0     1.008   -3.949027   -1.849373    2.591767
  18 H     1.0000    0     1.008   -3.303294    3.504682   -3.509752
  19 H     1.0000    0     1.008    1.306980    2.980763   -3.479504
  20 H     1.0000    0     1.008   -7.972301    0.518637    3.054659
  21 H     1.0000    0     1.008   -8.259490   -2.046641    0.778921
  22 H     1.0000    0     1.008  -10.294714    0.678561    0.565425
* core charge reduced due to ECP

--------------------------------
INTERNAL COORDINATES (ANGSTROEM)
--------------------------------
 C      0   0   0     0.000000000000     0.00000000     0.00000000
 C      1   0   0     1.495154542838     0.00000000     0.00000000
 C      2   1   0     1.338308842654   120.71862993     0.00000000
 C      3   2   1     1.483946890252   123.98028288   180.63279594
 C      4   3   2     1.408978780727   122.64079496   339.50561173
 C      5   4   3     1.398448127768   120.47907004   180.50165214
 C      6   5   4     1.406863350600   120.37923179     0.41302768
 C      7   6   5     1.398242551756   119.12818145     0.26490938
 C      8   7   6     1.397492473547   120.59139760   359.77788442
 O      7   6   5     1.402833163974   122.47629580   180.08984177
 C     10   7   6     1.423887720746   124.36853985     0.15189481
 H      1   2   3     1.110542040157   109.94242775   298.94301721
 H      1   2   3     1.110174272111   109.78606643   179.25677612
 H      1   2   3     1.110606172782   110.00171745    59.54849476
 H      2   1   3     1.081062557850   117.86244383   181.55162748
 H      3   2   1     1.084762659329   118.27440384   358.14033061
 H      5   4   3     1.080787777615   121.40079567   359.06155570
 H      6   5   4     1.081486450164   118.60455682   179.99337466
 H      8   7   6     1.082728988733   119.87753734   179.72630418
 H      9   8   7     1.083393921695   118.93926832   180.00202606
 H     11  10   7     1.110517300403   110.11145627    60.68830396
 H     11  10   7     1.110505181098   110.10951766   299.03761292
 H     11  10   7     1.109213838088   109.07706668   179.86729509

---------------------------
INTERNAL COORDINATES (A.U.)
---------------------------
 C      0   0   0     0.000000000000     0.00000000     0.00000000
 C      1   0   0     2.825432613853     0.00000000     0.00000000
 C      2   1   0     2.529037195221   120.71862993     0.00000000
 C      3   2   1     2.804253219861   123.98028288   180.63279594
 C      4   3   2     2.662584024080   122.64079496   339.50561173
 C      5   4   3     2.642683973976   120.47907004   180.50165214
 C      6   5   4     2.658586440485   120.37923179     0.41302768
 C      7   6   5     2.642295491614   119.12818145     0.26490938
 C      8   7   6     2.640878049220   120.59139760   359.77788442
 O      7   6   5     2.650970491492   122.47629580   180.08984177
 C     10   7   6     2.690757837662   124.36853985     0.15189481
 H      1   2   3     2.098620316103   109.94242775   298.94301721
 H      1   2   3     2.097925335215   109.78606643   179.25677612
 H      1   2   3     2.098741509201   110.00171745    59.54849476
 H      2   1   3     2.042912167973   117.86244383   181.55162748
 H      3   2   1     2.049904346436   118.27440384   358.14033061
 H      5   4   3     2.042392908583   121.40079567   359.06155570
 H      6   5   4     2.043713208357   118.60455682   179.99337466
 H      8   7   6     2.046061265963   119.87753734   179.72630418
 H      9   8   7     2.047317807159   118.93926832   180.00202606
 H     11  10   7     2.098573564743   110.11145627    60.68830396
 H     11  10   7     2.098550662576   110.10951766   299.03761292
 H     11  10   7     2.096110377942   109.07706668   179.86729509

---------------------
BASIS SET INFORMATION
---------------------
There are 3 groups of distinct atoms

 Group   1 Type C   : 6s6p2d contracted to 2s2p1d pattern {42/42/2}
 Group   2 Type O   : 6s6p2d contracted to 2s2p1d pattern {42/42/2}
 Group   3 Type H   : 8s2p contracted to 2s1p pattern {53/2}

Atom   0C    basis set group =>   1
Atom   1C    basis set group =>   1
Atom   2C    basis set group =>   1
Atom   3C    basis set group =>   1
Atom   4C    basis set group =>   1
Atom   5C    basis set group =>   1
Atom   6C    basis set group =>   1
Atom   7C    basis set group =>   1
Atom   8C    basis set group =>   1
Atom   9O    basis set group =>   2
Atom  10C    basis set group =>   1
Atom  11H    basis set group =>   3
Atom  12H    basis set group =>   3
Atom  13H    basis set group =>   3
Atom  14H    basis set group =>   3
Atom  15H    basis set group =>   3
Atom  16H    basis set group =>   3
Atom  17H    basis set group =>   3
Atom  18H    basis set group =>   3
Atom  19H    basis set group =>   3
Atom  20H    basis set group =>   3
Atom  21H    basis set group =>   3
Atom  22H    basis set group =>   3
---------------------------------
AUXILIARY/J BASIS SET INFORMATION
---------------------------------
There are 3 groups of distinct atoms

 Group   1 Type C   : 12s5p4d2f1g contracted to 6s4p3d1f1g pattern {711111/2111/211/2/1}
 Group   2 Type O   : 12s5p4d2f1g contracted to 6s4p3d1f1g pattern {711111/2111/211/2/1}
 Group   3 Type H   : 5s2p1d contracted to 3s1p1d pattern {311/2/1}

Atom   0C    basis set group =>   1
Atom   1C    basis set group =>   1
Atom   2C    basis set group =>   1
Atom   3C    basis set group =>   1
Atom   4C    basis set group =>   1
Atom   5C    basis set group =>   1
Atom   6C    basis set group =>   1
Atom   7C    basis set group =>   1
Atom   8C    basis set group =>   1
Atom   9O    basis set group =>   2
Atom  10C    basis set group =>   1
Atom  11H    basis set group =>   3
Atom  12H    basis set group =>   3
Atom  13H    basis set group =>   3
Atom  14H    basis set group =>   3
Atom  15H    basis set group =>   3
Atom  16H    basis set group =>   3
Atom  17H    basis set group =>   3
Atom  18H    basis set group =>   3
Atom  19H    basis set group =>   3
Atom  20H    basis set group =>   3
Atom  21H    basis set group =>   3
Atom  22H    basis set group =>   3
-------------------------
ECP PARAMETER INFORMATION
-------------------------

 Group 1, Type C  ECP vDZP-ECP (replacing 2 core electrons, lmax=3)
 Group 2, Type O  ECP vDZP-ECP (replacing 2 core electrons, lmax=3)

Atom   0C    ECP group =>   1
Atom   1C    ECP group =>   1
Atom   2C    ECP group =>   1
Atom   3C    ECP group =>   1
Atom   4C    ECP group =>   1
Atom   5C    ECP group =>   1
Atom   6C    ECP group =>   1
Atom   7C    ECP group =>   1
Atom   8C    ECP group =>   1
Atom   9O    ECP group =>   2
Atom  10C    ECP group =>   1



           ************************************************************
           *        Program running with 40 parallel MPI-processes    *
           *              working on a common directory               *
           ************************************************************
------------------------------------------------------------------------------
                             ORCA STARTUP CALCULATIONS
                           -- RI-GTO INTEGRALS CHOSEN --
------------------------------------------------------------------------------
------------------------------------------------------------------------------
                   ___                                                        
                  /   \      - P O W E R E D   B Y -                         
                 /     \                                                     
                 |  |  |   _    _      __       _____    __    __             
                 |  |  |  | |  | |    /  \     |  _  \  |  |  /  |          
                  \  \/   | |  | |   /    \    | | | |  |  | /  /          
                 / \  \   | |__| |  /  /\  \   | |_| |  |  |/  /          
                |  |  |   |  __  | /  /__\  \  |    /   |      \           
                |  |  |   | |  | | |   __   |  |    \   |  |\   \          
                \     /   | |  | | |  |  |  |  | |\  \  |  | \   \       
                 \___/    |_|  |_| |__|  |__|  |_| \__\ |__|  \__/        
                                                                              
                      - O R C A' S   B I G   F R I E N D -                    
                                      &                                       
                       - I N T E G R A L  F E E D E R -                       
                                                                              
 v1 FN, 2020, v2 2021, v3 2022-2024                                           
------------------------------------------------------------------------------


----------------------
SHARK INTEGRAL PACKAGE
----------------------

Number of atoms                             ...     23
Number of basis functions                   ...    203
Number of shells                            ...     91
Maximum angular momentum                    ...      2
Integral batch strategy                     ... SHARK/LIBINT Hybrid
RI-J (if used) integral strategy            ... SPLIT-RIJ (Revised 2003 algorithm where possible)
Printlevel                                  ...      1
Contraction scheme used                     ... SEGMENTED contraction
Prescreening option                         ... SCHWARTZ
   Thresh                                   ... 2.500e-11
   Tcut                                     ... 2.500e-12
   Tpresel                                  ... 2.500e-12 
Coulomb Range Separation                    ... NOT USED
Exchange Range Separation                   ... Long Range
   Mu parameter                             ... 3.000e-01
   Scaling (regular/separated)              ... 1.670e-01 8.330e-01
Multipole approximations                    ... NOT USED
Finite Nucleus Model                        ... NOT USED
CABS basis                                  ... NOT available
Auxiliary Coulomb fitting basis             ... AVAILABLE
   # of basis functions in Aux-J            ...    671
   # of shells in Aux-J                     ...    225
   Maximum angular momentum in Aux-J        ...      4
Auxiliary J/K fitting basis                 ... NOT available
Auxiliary Correlation fitting basis         ... NOT available
Auxiliary 'external' fitting basis          ... NOT available

Checking pre-screening integrals            ... done (  0.0 sec) Dimension = 91
Check shell pair data                       ... done (  0.0 sec)
Shell pair information
Shell pair cut-off parameter TPreSel        ...   2.5e-12
Total number of shell pairs                 ...      4186
Shell pairs after pre-screening             ...      4055
Total number of primitive shell pairs       ...     38008
Primitive shell pairs kept                  ...     28693
          la=0 lb=0:   1060 shell pairs
          la=1 lb=0:   1515 shell pairs
          la=1 lb=1:    565 shell pairs
          la=2 lb=0:    492 shell pairs
          la=2 lb=1:    359 shell pairs
          la=2 lb=2:     64 shell pairs

Calculating one electron integrals          ... done (  0.0 sec)
Calculating ECP integrals                   ... done (  0.1 sec)
Calculating RI/J V-Matrix + Cholesky decomp.... done (  0.0 sec)
Calculating Nuclear repulsion               ... done (  0.0 sec) ENN=    286.485457145103 Eh

Diagonalization of the overlap matrix:
Smallest eigenvalue                        ... 3.685e-04
Time for diagonalization                   ...    0.006 sec
Threshold for overlap eigenvalues          ... 1.000e-07
Number of eigenvalues below threshold      ... 0
Time for construction of square roots      ...    0.004 sec
Total time needed                          ...    0.013 sec

-------------------
DFT GRID GENERATION
-------------------

General Integration Accuracy     IntAcc      ... 4.388
Radial Grid Type                 RadialGrid  ... OptM3 with GC (2021)
Angular Grid (max. ang.)         AngularGrid ... 4 (Lebedev-302)
Angular grid pruning method      GridPruning ... 4 (adaptive)
Weight generation scheme         WeightScheme... mBecke (2022)
Basis function cutoff            BFCut       ... 1.0000e-11
Integration weight cutoff        WCut        ... 1.0000e-14
Partially contracted basis set               ... off
Rotationally invariant grid construction     ... off
Angular grids for H and He will be reduced by one unit

Total number of grid points                  ...   104772
Total number of batches                      ...     1648
Average number of points per batch           ...       63
Average number of grid points per atom       ...     4555

--------------------
COSX GRID GENERATION
--------------------

GRIDX 1
-------
General Integration Accuracy     IntAcc      ... 3.816
Radial Grid Type                 RadialGrid  ... OptM3 with GC (2021)
Angular Grid (max. ang.)         AngularGrid ... 1 (Lebedev-50)
Angular grid pruning method      GridPruning ... 4 (adaptive)
Weight generation scheme         WeightScheme... mBecke (2022)
Basis function cutoff            BFCut       ... 1.0000e-11
Integration weight cutoff        WCut        ... 1.0000e-14
Partially contracted basis set               ... on
Rotationally invariant grid construction     ... off
Angular grids for H and He will be reduced by one unit

Total number of grid points                  ...    13374
Total number of batches                      ...      115
Average number of points per batch           ...      116
Average number of grid points per atom       ...      581
UseSFitting                                  ... on

GRIDX 2
-------
General Integration Accuracy     IntAcc      ... 4.020
Radial Grid Type                 RadialGrid  ... OptM3 with GC (2021)
Angular Grid (max. ang.)         AngularGrid ... 2 (Lebedev-110)
Angular grid pruning method      GridPruning ... 4 (adaptive)
Weight generation scheme         WeightScheme... mBecke (2022)
Basis function cutoff            BFCut       ... 1.0000e-11
Integration weight cutoff        WCut        ... 1.0000e-14
Partially contracted basis set               ... on
Rotationally invariant grid construction     ... off
Angular grids for H and He will be reduced by one unit

Total number of grid points                  ...    28776
Total number of batches                      ...      237
Average number of points per batch           ...      121
Average number of grid points per atom       ...     1251
UseSFitting                                  ... on

GRIDX 3
-------
General Integration Accuracy     IntAcc      ... 4.338
Radial Grid Type                 RadialGrid  ... OptM3 with GC (2021)
Angular Grid (max. ang.)         AngularGrid ... 3 (Lebedev-194)
Angular grid pruning method      GridPruning ... 4 (adaptive)
Weight generation scheme         WeightScheme... mBecke (2022)
Basis function cutoff            BFCut       ... 1.0000e-11
Integration weight cutoff        WCut        ... 1.0000e-14
Partially contracted basis set               ... on
Rotationally invariant grid construction     ... off
Angular grids for H and He will be reduced by one unit

Total number of grid points                  ...    63145
Total number of batches                      ...      504
Average number of points per batch           ...      125
Average number of grid points per atom       ...     2745
UseSFitting                                  ... on
Initializing property integral containers    ... done (  0.0 sec)

SHARK setup successfully completed in   3.2 seconds

Maximum memory used throughout the entire STARTUP-calculation: 29.8 MB


           ************************************************************
           *        Program running with 40 parallel MPI-processes    *
           *              working on a common directory               *
           ************************************************************
-------------------------------------------------------------------------------
                                 ORCA GUESS
                   Start orbitals & Density for SCF / CASSCF
-------------------------------------------------------------------------------

------------
SCF SETTINGS
------------
Hamiltonian:
 Density Functional     Method          .... DFT(GTOs)
 Exchange Functional    Exchange        .... WB97X-V
 Correlation Functional Correlation     .... WB97X-V
 Gradients option       PostSCFGGA      .... off
 Hybrid DFT is turned on
   Fraction HF Exchange ScalHFX         ....  0.167000
   Scaling of DF-GGA-X  ScalDFX         ....  0.000000
   Scaling of DF-GGA-C  ScalDFC         ....  1.000000
   Scaling of DF-LDA-C  ScalLDAC        ....  1.000000
   Perturbative correction              ....  0.000000
 Long-range corrected/Screened/Range-Separated Hybrid DFT is turned on
   Amount of maximum screened exact exchange              ....  0.833000
   Range separation parameter mu (erf(mu*r12)/r12)        ....  0.300000
   NL short-range parameter             ....  6.000000
   NL long-range parameter              ....  0.010000
 RI-approximation to the Coulomb term is turned on
   Number of AuxJ basis functions       .... 671
   RIJ-COSX (HFX calculated with COS-X)).... on


General Settings:
 Integral files         IntName         .... ./output/_e_anethole/_e_anethole
 Hartree-Fock type      HFTyp           .... RHF
 Total Charge           Charge          ....    0
 Multiplicity           Mult            ....    1
 Number of Electrons    NEL             ....   58
 Basis Dimension        Dim             ....  203
 Nuclear Repulsion      ENuc            ....    286.4854571451 Eh

Convergence Acceleration:
 AO-DIIS                CNVDIIS         .... on
   Start iteration      DIISMaxIt       ....    12
   Startup error        DIISStart       ....  0.200000
   # of expansion vecs  DIISMaxEq       ....     5
   Bias factor          DIISBfac        ....   1.050
   Max. coefficient     DIISMaxC        ....  10.000
 MO-DIIS                CNVKDIIS        .... off
 Trust-Rad. Augm. Hess. CNVTRAH         .... auto
   Auto Start mean grad. ratio tolernc. ....  1.125000
   Auto Start start iteration           ....    50
   Auto Start num. interpolation iter.  ....    10
   Max. Number of Micro iterations      ....    24
   Max. Number of Macro iterations      .... Maxiter - #DIIS iter
   Number of Davidson start vectors     ....     2
   Converg. threshold    (grad. norm)   ....   1.000e-05
   Grad. Scal. Fac. for Micro threshold ....   0.100
   Minimum threshold for Micro iter.    ....   1.000e-02
   NR start threshold (gradient norm)   ....   1.000e-04
   Initial trust radius                 ....   0.400
   Minimum AH scaling param. (alpha)    ....   1.000
   Maximum AH scaling param. (alpha)    .... 1000.000
   Quad. conv. algorithm                .... NR
   White noise on init. David. guess    .... on
   Maximum white noise                  ....   0.010
   Pseudo random numbers                .... off
   Inactive MOs                         .... canonical
   Orbital update algorithm             .... Taylor
   Preconditioner                       .... Diag
   Full preconditioner red. dimension   ....   250
 SOSCF                  CNVSOSCF        .... on
   Start iteration      SOSCFMaxIt      ....   150
   Startup grad/error   SOSCFStart      ....  0.003300
   Hessian update       SOSCFHessUp     .... L-BFGS
 Level Shifting         CNVShift        .... on
   Level shift para.    LevelShift      ....    0.2500
   Turn off err/grad.   ShiftErr        ....    0.0010
 Zerner damping         CNVZerner       .... off
 Static damping         CNVDamp         .... on
   Fraction old density DampFac         ....    0.7000
   Max. Damping (<1)    DampMax         ....    0.9800
   Min. Damping (>=0)   DampMin         ....    0.0000
   Turn off err/grad.   DampErr         ....    0.1000

SCF Procedure:
 Maximum # iterations   MaxIter         ....   125
 SCF integral mode      SCFMode         .... Direct
   Integral package                     .... SHARK and LIBINT hybrid scheme
 Reset frequency        DirectResetFreq ....    20
 Integral Threshold     Thresh          ....  2.500e-11 Eh
 Primitive CutOff       TCut            ....  2.500e-12 Eh

Convergence Tolerance:
 Convergence Check Mode ConvCheckMode   .... Total+1el-Energy
 Convergence forced     ConvForced      .... 0
 Energy Change          TolE            ....  1.000e-08 Eh
 1-El. energy change                    ....  1.000e-05 Eh
 Orbital Gradient       TolG            ....  1.000e-05
 Orbital Rotation angle TolX            ....  1.000e-05
 DIIS Error             TolErr          ....  5.000e-07

------------------------------
INITIAL GUESS: MODEL POTENTIAL
------------------------------
Loading Hartree-Fock densities                     ... done
Atomic calculation to generate a density for atom 0 (C  with ECP)
  Multiplicity assumed   :    1
  Atomic configuration   : 1s2 2s2 2p2 
  Number of open shells  : 1
  Command: /home/aspe232/Project/Software/ORCA/6_0_1/build/orca ./output/_e_anethole/_e_anethole_atom6.inp "" > ./output/_e_anethole/_e_anethole_atom6.out
Returned from the atomic calculation with res=0
Atomic calculation to generate a density for atom 9 (O  with ECP)
  Multiplicity assumed   :    3
  Atomic configuration   : 1s2 2s2 2p4 
  Number of open shells  : 1
  Command: /home/aspe232/Project/Software/ORCA/6_0_1/build/orca ./output/_e_anethole/_e_anethole_atom8.inp "" > ./output/_e_anethole/_e_anethole_atom8.out
Returned from the atomic calculation with res=0
Calculating cut-offs                               ... done
Initializing the effective Hamiltonian             ... done
Setting up the integral package (SHARK)            ... done
Starting the Coulomb interaction                   ... done (   0.0 sec)
Making the grid                                    ... done (   0.7 sec)
Mapping shells                                     ... done
Starting the XC term evaluation                    ... done (   0.1 sec)
  promolecular density results
     # of electrons  =     79.998371759
     EX              =    -42.092178513
     EC              =     -3.250645474
     EX+EC           =    -45.342823987
Transforming the Hamiltonian                       ... done (   0.0 sec)
Diagonalizing the Hamiltonian                      ... done (   0.0 sec)
Back transforming the eigenvectors                 ... done (   0.0 sec)
Now organizing SCF variables                       ... done
                      ------------------
                      INITIAL GUESS DONE (   2.1 sec)
                      ------------------
             **** ENERGY FILE WAS UPDATED (./output/_e_anethole/_e_anethole.en.tmp) ****
Finished Guess after   2.6 sec
Maximum memory used throughout the entire GUESS-calculation: 18.1 MB


           ************************************************************
           *        Program running with 40 parallel MPI-processes    *
           *              working on a common directory               *
           ************************************************************

-------------------------------------------------------------------------------------------
                                      ORCA LEAN-SCF
                              memory conserving SCF solver
-------------------------------------------------------------------------------------------

----------------------------------------D-I-I-S--------------------------------------------
Iteration    Energy (Eh)           Delta-E    RMSDP     MaxDP     DIISErr   Damp  Time(sec)
-------------------------------------------------------------------------------------------
               ***  Starting incremental Fock matrix formation  ***
    1    -79.8284119716890359     0.00e+00  4.14e-03  7.13e-02  1.74e-01  0.700   3.7
    2    -79.9642828656037636    -1.36e-01  3.10e-03  5.33e-02  1.08e-01  0.700   3.2
                               ***Turning on AO-DIIS***
    3    -80.0395346370987113    -7.53e-02  1.71e-03  2.89e-02  5.77e-02  0.700   2.6
    4    -80.0845347566827286    -4.50e-02  3.72e-03  6.18e-02  3.68e-02  0.000   2.8
                              *** Initializing SOSCF ***
---------------------------------------S-O-S-C-F--------------------------------------
Iteration    Energy (Eh)           Delta-E    RMSDP     MaxDP     MaxGrad    Time(sec)
--------------------------------------------------------------------------------------
    5    -80.1791011002548544    -9.46e-02  2.32e-04  3.40e-03  2.60e-03     2.8
               *** Restarting incremental Fock matrix formation ***
    6    -80.1794024077311747    -3.01e-04  1.50e-04  2.16e-03  1.46e-03     3.3
    7    -80.1794597336996731    -5.73e-05  9.96e-05  1.90e-03  8.34e-04     3.6
    8    -80.1794770927258469    -1.74e-05  2.89e-05  3.46e-04  2.77e-04     3.2
    9    -80.1794788041730726    -1.71e-06  1.20e-05  1.82e-04  5.91e-05     3.2
   10    -80.1794790487274440    -2.45e-07  3.70e-06  8.49e-05  4.78e-05     3.1
   11    -80.1794790997530527    -5.10e-08  1.87e-06  3.32e-05  1.27e-05     2.9
   12    -80.1794791097563575    -1.00e-08  5.90e-07  1.13e-05  8.44e-06     3.0
   13    -80.1794791110602318    -1.30e-09  2.11e-07  3.62e-06  1.92e-06     2.7
                 **** Energy Check signals convergence ****

               *****************************************************
               *                     SUCCESS                       *
               *           SCF CONVERGED AFTER  13 CYCLES          *
               *****************************************************

Recomputing exchange energy using gridx3       ... done (    2.827 sec)
Old exchange energy                            :    -11.148886006 Eh
New exchange energy                            :    -11.148851718 Eh
Exchange energy change after final integration :      0.000034287 Eh
Total energy after final integration           :    -80.179444824 Eh
             **** ENERGY FILE WAS UPDATED (./output/_e_anethole/_e_anethole.en.tmp) ****

----------------
TOTAL SCF ENERGY
----------------

Total Energy       :        -80.17944482382964 Eh           -2181.79361 eV

Components:
Nuclear Repulsion  :        286.48545714510334 Eh            7795.66561 eV
Electronic Energy  :       -366.66493625616357 Eh           -9977.46016 eV
One Electron Energy:       -688.99969560727448 Eh          -18748.63488 eV
Two Electron Energy:        322.33475935111090 Eh            8771.17472 eV

Virial components:
Potential Energy   :       -142.16361449146800 Eh           -3868.46862 eV
Kinetic Energy     :         61.98416966763835 Eh            1686.67501 eV
Virial Ratio       :          2.29354713072314

DFT components:
N(Alpha)           :       28.999967907126 electrons
N(Beta)            :       28.999967907126 electrons
N(Total)           :       57.999935814253 electrons
E(X)               :      -11.977320431978 Eh       
E(C)               :       -2.195222780838 Eh       
E(XC)              :      -14.172543212816 Eh       

---------------
SCF CONVERGENCE
---------------

  Last Energy change         ...    1.3039e-09  Tolerance :   1.0000e-08
  Last MAX-Density change    ...    3.6194e-06  Tolerance :   1.0000e-07
  Last RMS-Density change    ...    2.1091e-07  Tolerance :   5.0000e-09
  Last DIIS Error            ...    2.5972e-03  Tolerance :   5.0000e-07
  Last Orbital Gradient      ...    1.9203e-06  Tolerance :   1.0000e-05
  Last Orbital Rotation      ...    6.0385e-06  Tolerance :   1.0000e-05


----------------
ORBITAL ENERGIES
----------------

  NO   OCC          E(Eh)            E(eV) 
   0   2.0000      -1.172169       -31.8964 
   1   2.0000      -1.000214       -27.2172 
   2   2.0000      -0.940660       -25.5967 
   3   2.0000      -0.892461       -24.2851 
   4   2.0000      -0.888328       -24.1726 
   5   2.0000      -0.837483       -22.7891 
   6   2.0000      -0.794110       -21.6088 
   7   2.0000      -0.747039       -20.3280 
   8   2.0000      -0.716283       -19.4910 
   9   2.0000      -0.676027       -18.3956 
  10   2.0000      -0.650087       -17.6898 
  11   2.0000      -0.605923       -16.4880 
  12   2.0000      -0.594825       -16.1860 
  13   2.0000      -0.581403       -15.8208 
  14   2.0000      -0.565299       -15.3826 
  15   2.0000      -0.548244       -14.9185 
  16   2.0000      -0.536574       -14.6009 
  17   2.0000      -0.528597       -14.3839 
  18   2.0000      -0.517167       -14.0728 
  19   2.0000      -0.514596       -14.0029 
  20   2.0000      -0.496563       -13.5122 
  21   2.0000      -0.471961       -12.8427 
  22   2.0000      -0.460922       -12.5423 
  23   2.0000      -0.448944       -12.2164 
  24   2.0000      -0.438214       -11.9244 
  25   2.0000      -0.426279       -11.5996 
  26   2.0000      -0.372487       -10.1359 
  27   2.0000      -0.350900        -9.5485 
  28   2.0000      -0.294170        -8.0048 
  29   0.0000       0.044659         1.2152 
  30   0.0000       0.064999         1.7687 
  31   0.0000       0.086285         2.3479 
  32   0.0000       0.094021         2.5584 
  33   0.0000       0.097144         2.6434 
  34   0.0000       0.108485         2.9520 
  35   0.0000       0.120600         3.2817 
  36   0.0000       0.122091         3.3223 
  37   0.0000       0.137920         3.7530 
  38   0.0000       0.143624         3.9082 
  39   0.0000       0.149756         4.0751 
*Only the first 10 virtual orbitals were printed.

                    ********************************
                    * MULLIKEN POPULATION ANALYSIS *
                    ********************************

-----------------------
MULLIKEN ATOMIC CHARGES
-----------------------
   0 C :   -0.117797
   1 C :   -0.025846
   2 C :   -0.008429
   3 C :   -0.077222
   4 C :   -0.003331
   5 C :   -0.032721
   6 C :    0.093525
   7 C :    0.018597
   8 C :    0.011599
   9 O :   -0.342300
  10 C :    0.071338
  11 H :    0.057475
  12 H :    0.042564
  13 H :    0.057569
  14 H :    0.017124
  15 H :    0.015093
  16 H :    0.014772
  17 H :    0.011831
  18 H :    0.020869
  19 H :    0.019552
  20 H :    0.045563
  21 H :    0.045698
  22 H :    0.064478
Sum of atomic charges:   -0.0000000

--------------------------------
MULLIKEN REDUCED ORBITAL CHARGES
--------------------------------
  0 C s       :     0.962788  s :     0.962788
      pz      :     1.058290  p :     3.080753
      px      :     0.964222
      py      :     1.058241
      dz2     :     0.012008  d :     0.074256
      dxz     :     0.015705
      dyz     :     0.012166
      dx2y2   :     0.015515
      dxy     :     0.018862

  1 C s       :     1.055214  s :     1.055214
      pz      :     0.989882  p :     2.876118
      px      :     0.929885
      py      :     0.956352
      dz2     :     0.021677  d :     0.094513
      dxz     :     0.028721
      dyz     :     0.009789
      dx2y2   :     0.015066
      dxy     :     0.019261

  2 C s       :     1.002698  s :     1.002698
      pz      :     0.989561  p :     2.911002
      px      :     0.945843
      py      :     0.975598
      dz2     :     0.021108  d :     0.094729
      dxz     :     0.028271
      dyz     :     0.010555
      dx2y2   :     0.016298
      dxy     :     0.018497

  3 C s       :     1.022938  s :     1.022938
      pz      :     0.967294  p :     2.934036
      px      :     0.967880
      py      :     0.998862
      dz2     :     0.024921  d :     0.120248
      dxz     :     0.027687
      dyz     :     0.012976
      dx2y2   :     0.026578
      dxy     :     0.028086

  4 C s       :     1.006706  s :     1.006706
      pz      :     0.951111  p :     2.902062
      px      :     0.973270
      py      :     0.977681
      dz2     :     0.013830  d :     0.094564
      dxz     :     0.025835
      dyz     :     0.011281
      dx2y2   :     0.018543
      dxy     :     0.025075

  5 C s       :     0.990979  s :     0.990979
      pz      :     0.989520  p :     2.952539
      px      :     0.977790
      py      :     0.985230
      dz2     :     0.013337  d :     0.089203
      dxz     :     0.026301
      dyz     :     0.009340
      dx2y2   :     0.016473
      dxy     :     0.023751

  6 C s       :     1.060380  s :     1.060380
      pz      :     0.998077  p :     2.678144
      px      :     0.702555
      py      :     0.977513
      dz2     :     0.029449  d :     0.167950
      dxz     :     0.045054
      dyz     :     0.013355
      dx2y2   :     0.035924
      dxy     :     0.044168

  7 C s       :     0.997306  s :     0.997306
      pz      :     0.975999  p :     2.896272
      px      :     0.941113
      py      :     0.979160
      dz2     :     0.013181  d :     0.087825
      dxz     :     0.025618
      dyz     :     0.009794
      dx2y2   :     0.014971
      dxy     :     0.024261

  8 C s       :     1.007757  s :     1.007757
      pz      :     0.957743  p :     2.885098
      px      :     0.959482
      py      :     0.967874
      dz2     :     0.014228  d :     0.095546
      dxz     :     0.027979
      dyz     :     0.009800
      dx2y2   :     0.018456
      dxy     :     0.025083

  9 O s       :     1.709991  s :     1.709991
      pz      :     1.665806  p :     4.594562
      px      :     1.208886
      py      :     1.719870
      dz2     :     0.005970  d :     0.037748
      dxz     :     0.009097
      dyz     :     0.004984
      dx2y2   :     0.008461
      dxy     :     0.009236

 10 C s       :     0.984894  s :     0.984894
      pz      :     0.926398  p :     2.828172
      px      :     0.918899
      py      :     0.982874
      dz2     :     0.038182  d :     0.115596
      dxz     :     0.017219
      dyz     :     0.011752
      dx2y2   :     0.032188
      dxy     :     0.016256

 11 H s       :     0.898689  s :     0.898689
      pz      :     0.017665  p :     0.043836
      px      :     0.011005
      py      :     0.015167

 12 H s       :     0.913693  s :     0.913693
      pz      :     0.019279  p :     0.043742
      px      :     0.012504
      py      :     0.011959

 13 H s       :     0.898507  s :     0.898507
      pz      :     0.010446  p :     0.043924
      px      :     0.012373
      py      :     0.021104

 14 H s       :     0.932583  s :     0.932583
      pz      :     0.021786  p :     0.050293
      px      :     0.013854
      py      :     0.014652

 15 H s       :     0.935679  s :     0.935679
      pz      :     0.021188  p :     0.049228
      px      :     0.013306
      py      :     0.014734

 16 H s       :     0.933889  s :     0.933889
      pz      :     0.018579  p :     0.051339
      px      :     0.013275
      py      :     0.019485

 17 H s       :     0.935571  s :     0.935571
      pz      :     0.019484  p :     0.052598
      px      :     0.015340
      py      :     0.017774

 18 H s       :     0.928561  s :     0.928561
      pz      :     0.018892  p :     0.050570
      px      :     0.012786
      py      :     0.018892

 19 H s       :     0.930460  s :     0.930460
      pz      :     0.018633  p :     0.049988
      px      :     0.014581
      py      :     0.016774

 20 H s       :     0.913725  s :     0.913725
      pz      :     0.022350  p :     0.040713
      px      :     0.008157
      py      :     0.010206

 21 H s       :     0.913582  s :     0.913582
      pz      :     0.008973  p :     0.040720
      px      :     0.007835
      py      :     0.023912

 22 H s       :     0.895115  s :     0.895115
      pz      :     0.009022  p :     0.040407
      px      :     0.020808
      py      :     0.010578



                     *******************************
                     * LOEWDIN POPULATION ANALYSIS *
                     *******************************

----------------------
LOEWDIN ATOMIC CHARGES
----------------------
   0 C :   -0.126727
   1 C :   -0.047531
   2 C :   -0.047969
   3 C :   -0.056323
   4 C :   -0.025609
   5 C :   -0.054838
   6 C :   -0.012482
   7 C :   -0.035872
   8 C :   -0.030926
   9 O :   -0.075974
  10 C :   -0.061064
  11 H :    0.054392
  12 H :    0.051199
  13 H :    0.054790
  14 H :    0.034311
  15 H :    0.045090
  16 H :    0.043837
  17 H :    0.039546
  18 H :    0.049053
  19 H :    0.047567
  20 H :    0.045633
  21 H :    0.045632
  22 H :    0.064267

-------------------------------
LOEWDIN REDUCED ORBITAL CHARGES
-------------------------------
  0 C s       :     0.778191  s :     0.778191
      pz      :     1.063996  p :     3.109531
      px      :     0.979027
      py      :     1.066508
      dz2     :     0.037241  d :     0.239005
      dxz     :     0.054578
      dyz     :     0.040055
      dx2y2   :     0.047545
      dxy     :     0.059587

  1 C s       :     0.810230  s :     0.810230
      pz      :     1.041992  p :     2.931034
      px      :     0.988935
      py      :     0.900108
      dz2     :     0.070510  d :     0.306267
      dxz     :     0.096301
      dyz     :     0.029920
      dx2y2   :     0.047652
      dxy     :     0.061884

  2 C s       :     0.802606  s :     0.802606
      pz      :     1.036159  p :     2.943660
      px      :     0.986592
      py      :     0.920909
      dz2     :     0.067525  d :     0.301703
      dxz     :     0.093945
      dyz     :     0.031448
      dx2y2   :     0.051908
      dxy     :     0.056876

  3 C s       :     0.781634  s :     0.781634
      pz      :     0.966007  p :     2.901204
      px      :     0.979240
      py      :     0.955958
      dz2     :     0.072150  d :     0.373485
      dxz     :     0.087310
      dyz     :     0.048625
      dx2y2   :     0.083378
      dxy     :     0.082022

  4 C s       :     0.798238  s :     0.798238
      pz      :     0.959749  p :     2.926895
      px      :     1.012325
      py      :     0.954821
      dz2     :     0.039488  d :     0.300476
      dxz     :     0.082615
      dyz     :     0.039727
      dx2y2   :     0.062014
      dxy     :     0.076633

  5 C s       :     0.797942  s :     0.797942
      pz      :     0.979467  p :     2.968106
      px      :     1.020950
      py      :     0.967689
      dz2     :     0.038060  d :     0.288790
      dxz     :     0.084514
      dyz     :     0.036117
      dx2y2   :     0.053994
      dxy     :     0.076105

  6 C s       :     0.775158  s :     0.775158
      pz      :     0.982493  p :     2.745919
      px      :     0.805180
      py      :     0.958245
      dz2     :     0.084950  d :     0.491405
      dxz     :     0.124074
      dyz     :     0.047702
      dx2y2   :     0.112749
      dxy     :     0.121930

  7 C s       :     0.798838  s :     0.798838
      pz      :     0.973138  p :     2.950040
      px      :     1.014809
      py      :     0.962093
      dz2     :     0.038100  d :     0.286994
      dxz     :     0.082811
      dyz     :     0.037409
      dx2y2   :     0.053758
      dxy     :     0.074916

  8 C s       :     0.799119  s :     0.799119
      pz      :     0.965459  p :     2.928759
      px      :     1.018778
      py      :     0.944523
      dz2     :     0.041135  d :     0.303048
      dxz     :     0.089052
      dyz     :     0.035614
      dx2y2   :     0.058598
      dxy     :     0.078648

  9 O s       :     1.393340  s :     1.393340
      pz      :     1.626327  p :     4.581369
      px      :     1.287653
      py      :     1.667390
      dz2     :     0.016449  d :     0.101264
      dxz     :     0.025407
      dyz     :     0.008963
      dx2y2   :     0.026167
      dxy     :     0.024279

 10 C s       :     0.785067  s :     0.785067
      pz      :     0.970385  p :     2.928099
      px      :     0.937744
      py      :     1.019971
      dz2     :     0.113159  d :     0.347897
      dxz     :     0.052326
      dyz     :     0.038736
      dx2y2   :     0.095829
      dxy     :     0.047846

 11 H s       :     0.798968  s :     0.798968
      pz      :     0.055546  p :     0.146641
      px      :     0.041343
      py      :     0.049752

 12 H s       :     0.804155  s :     0.804155
      pz      :     0.058160  p :     0.144646
      px      :     0.042235
      py      :     0.044250

 13 H s       :     0.798745  s :     0.798745
      pz      :     0.041345  p :     0.146466
      px      :     0.043780
      py      :     0.061341

 14 H s       :     0.810931  s :     0.810931
      pz      :     0.061947  p :     0.154758
      px      :     0.046333
      py      :     0.046479

 15 H s       :     0.806694  s :     0.806694
      pz      :     0.060474  p :     0.148215
      px      :     0.042409
      py      :     0.045332

 16 H s       :     0.804220  s :     0.804220
      pz      :     0.054182  p :     0.151943
      px      :     0.042968
      py      :     0.054792

 17 H s       :     0.804348  s :     0.804348
      pz      :     0.056096  p :     0.156106
      px      :     0.047466
      py      :     0.052543

 18 H s       :     0.801024  s :     0.801024
      pz      :     0.054690  p :     0.149922
      px      :     0.040484
      py      :     0.054749

 19 H s       :     0.803812  s :     0.803812
      pz      :     0.053774  p :     0.148622
      px      :     0.045453
      py      :     0.049395

 20 H s       :     0.815659  s :     0.815659
      pz      :     0.066690  p :     0.138708
      px      :     0.033902
      py      :     0.038116

 21 H s       :     0.815644  s :     0.815644
      pz      :     0.034964  p :     0.138724
      px      :     0.033434
      py      :     0.070327

 22 H s       :     0.802426  s :     0.802426
      pz      :     0.035337  p :     0.133307
      px      :     0.058694
      py      :     0.039277



                      *****************************
                      * MAYER POPULATION ANALYSIS *
                      *****************************

  NA   - Mulliken gross atomic population
  ZA   - Total nuclear charge
  QA   - Mulliken gross atomic charge
  VA   - Mayer's total valence
  BVA  - Mayer's bonded valence
  FA   - Mayer's free valence

  ATOM       NA         ZA         QA         VA         BVA        FA
  0 C      4.1178     4.0000    -0.1178     3.9900     3.9900    -0.0000
  1 C      4.0258     4.0000    -0.0258     3.9922     3.9922    -0.0000
  2 C      4.0084     4.0000    -0.0084     4.0329     4.0329    -0.0000
  3 C      4.0772     4.0000    -0.0772     4.1878     4.1878     0.0000
  4 C      4.0033     4.0000    -0.0033     4.1131     4.1131     0.0000
  5 C      4.0327     4.0000    -0.0327     4.0503     4.0503    -0.0000
  6 C      3.9065     4.0000     0.0935     4.1296     4.1296    -0.0000
  7 C      3.9814     4.0000     0.0186     4.0442     4.0442    -0.0000
  8 C      3.9884     4.0000     0.0116     4.0504     4.0504     0.0000
  9 O      6.3423     6.0000    -0.3423     2.0014     2.0014    -0.0000
 10 C      3.9287     4.0000     0.0713     3.9473     3.9473    -0.0000
 11 H      0.9425     1.0000     0.0575     1.0225     1.0225    -0.0000
 12 H      0.9574     1.0000     0.0426     1.0278     1.0278    -0.0000
 13 H      0.9424     1.0000     0.0576     1.0233     1.0233    -0.0000
 14 H      0.9829     1.0000     0.0171     1.0389     1.0389    -0.0000
 15 H      0.9849     1.0000     0.0151     1.0445     1.0445    -0.0000
 16 H      0.9852     1.0000     0.0148     1.0393     1.0393     0.0000
 17 H      0.9882     1.0000     0.0118     1.0446     1.0446    -0.0000
 18 H      0.9791     1.0000     0.0209     1.0583     1.0583    -0.0000
 19 H      0.9804     1.0000     0.0196     1.0438     1.0438     0.0000
 20 H      0.9544     1.0000     0.0456     1.0166     1.0166    -0.0000
 21 H      0.9543     1.0000     0.0457     1.0164     1.0164    -0.0000
 22 H      0.9355     1.0000     0.0645     1.0269     1.0269    -0.0000

  Mayer bond orders larger than 0.100000
B(  0-C ,  1-C ) :   1.0177 B(  0-C , 11-H ) :   0.9841 B(  0-C , 12-H ) :   0.9973 
B(  0-C , 13-H ) :   0.9848 B(  1-C ,  2-C ) :   1.8443 B(  1-C , 14-H ) :   1.0009 
B(  2-C ,  3-C ) :   1.1216 B(  2-C , 15-H ) :   0.9923 B(  3-C ,  4-C ) :   1.4263 
B(  3-C ,  8-C ) :   1.4084 B(  4-C ,  5-C ) :   1.4685 B(  4-C , 16-H ) :   0.9883 
B(  5-C ,  6-C ) :   1.4145 B(  5-C , 17-H ) :   0.9859 B(  6-C ,  7-C ) :   1.4307 
B(  6-C ,  9-O ) :   1.0386 B(  7-C ,  8-C ) :   1.4559 B(  7-C , 18-H ) :   0.9824 
B(  8-C , 19-H ) :   0.9889 B(  9-O , 10-C ) :   0.9309 B( 10-C , 20-H ) :   0.9913 
B( 10-C , 21-H ) :   0.9914 B( 10-C , 22-H ) :   1.0022 

-------
TIMINGS
-------

Total SCF time: 0 days 0 hours 0 min 47 sec 

Total time                  ....      47.013 sec
Sum of individual times     ....      45.176 sec  ( 96.1%)

SCF preparation             ....       2.018 sec  (  4.3%)
Fock matrix formation       ....      41.650 sec  ( 88.6%)
  Startup                   ....       0.173 sec  (  0.4% of F)
  Split-RI-J                ....       1.442 sec  (  3.5% of F)
  Chain of spheres X        ....      18.091 sec  ( 43.4% of F)
  XC integration            ....      21.337 sec  ( 51.2% of F)
    XC Preparation          ....       0.000 sec  (  0.0% of XC)
    Basis function eval.    ....       0.418 sec  (  2.0% of XC)
    Density eval.           ....       0.158 sec  (  0.7% of XC)
    XC-Functional eval.     ....       0.173 sec  (  0.8% of XC)
    XC-Potential eval.      ....       0.209 sec  (  1.0% of XC)
Diagonalization             ....       0.000 sec  (  0.0%)
Density matrix formation    ....       0.269 sec  (  0.6%)
Total Energy calculation    ....       0.299 sec  (  0.6%)
Population analysis         ....       0.153 sec  (  0.3%)
Orbital Transformation      ....       0.055 sec  (  0.1%)
Orbital Orthonormalization  ....       0.000 sec  (  0.0%)
DIIS solution               ....       0.392 sec  (  0.8%)
SOSCF solution              ....       0.339 sec  (  0.7%)
Finished LeanSCF after  47.1 sec

Maximum memory used throughout the entire LEANSCF-calculation: 33.4 MB


           ************************************************************
           *        Program running with 40 parallel MPI-processes    *
           *              working on a common directory               *
           ************************************************************

------------------------------------------------------------------------------
                         ORCA PROPERTY INTEGRAL CALCULATIONS
------------------------------------------------------------------------------

GBWName                                   ... ./output/_e_anethole/_e_anethole.gbw
Number of atoms                           ...     23
Number of basis functions                 ...    203
Max core memory                           ...   1024 MB

Dipole integrals                          ... YES
Quadrupole integrals                      ...  NO
Linear momentum integrals                 ...  NO
Angular momentum integrals                ...  NO
Higher moments length integrals           ...  NO
Higher moments velocity integrals         ...  NO
Kinetic energy integrals                  ...  NO
GIAO right hand sides                     ...  NO
GIAO dipole derivative integrals          ...  NO
SOC integrals                             ...  NO
EPR diamagnetic integrals (GIAO)          ...  NO
EPR gauge integrals                       ...  NO
Field gradient integrals                  ...  NO (   0 nuclei)
Spin-dipole/Fermi contact integrals       ...  NO (   0 nuclei)
Contact density integrals                 ...  NO (   0 nuclei)
Nucleus-orbit integrals                   ...  NO (   0 nuclei)
Geometric perturbations                   ...  NO (  23 nuclei)

Choice of electric origin   ... Center of mass
Position of electric origin ... ( -0.5443,  0.2430,  0.0433) 
Choice of magnetic origin   ... GIAO
Position of magnetic origin ... (  0.0000,  0.0000,  0.0000) 

Calculating integrals                     ... Electric Dipole (Length)     done (  0.0 sec)

Property integrals calculated in   0.0 sec

Maximum memory used throughout the entire PROPINT-calculation: 14.8 MB


-------------------------------------------------------------------------------
                          DFT DISPERSION CORRECTION                            
                                                                               
                                DFTD4 V3.4.0                                   
-------------------------------------------------------------------------------
The wB97X-3c composite method is recognized
Using three-body term ABC
Active option DFTDOPT                   ...         5   

-------------------------   ----------------
Dispersion correction           -0.026804865
-------------------------   ----------------


-------------------------   --------------------
FINAL SINGLE POINT ENERGY       -80.206249689273
-------------------------   --------------------



           ************************************************************
           *        Program running with 40 parallel MPI-processes    *
           *              working on a common directory               *
           ************************************************************
------------------------------------------------------------------------------
                         ORCA SCF GRADIENT CALCULATION
------------------------------------------------------------------------------

Nuc. rep. gradient        (SHARK) ... done (  0.0 sec)
HCore & Overlap gradient  (SHARK) ... done (  0.0 sec)
ECP gradient              (SHARK) ... done (  0.4 sec)
Split-RIJ-J gradient      (SHARK) ... done (  0.3 sec)
COSX-gradient                     ... done (  4.8 sec)
XC gradient                       ... done (  1.4 sec)
Dispersion correction             ... done (  0.1 sec)

-------------------
DISPERSION GRADIENT
-------------------

   1   C   :    0.000428504   -0.000069600    0.000078144
   2   C   :    0.000413581   -0.000098198    0.000202957
   3   C   :    0.000357986    0.000021502   -0.000149815
   4   C   :    0.000162378    0.000022917   -0.000100695
   5   C   :   -0.000079589   -0.000376416    0.000375585
   6   C   :   -0.000079125   -0.000325396    0.000362651
   7   C   :   -0.000264157    0.000116761   -0.000099812
   8   C   :   -0.000121459    0.000398400   -0.000435888
   9   C   :    0.000093516    0.000378989   -0.000459273
  10   O   :   -0.000428768    0.000111514   -0.000072011
  11   C   :   -0.000536971   -0.000090346    0.000169069
  12   H   :    0.000103626   -0.000041781    0.000003361
  13   H   :    0.000078696   -0.000019329    0.000032902
  14   H   :    0.000108221    0.000008663    0.000026015
  15   H   :    0.000096072   -0.000034762    0.000111682
  16   H   :    0.000088646    0.000020761   -0.000095096
  17   H   :   -0.000044529   -0.000135842    0.000130357
  18   H   :   -0.000007361   -0.000114086    0.000127315
  19   H   :   -0.000040944    0.000114480   -0.000123263
  20   H   :    0.000031539    0.000120844   -0.000140036
  21   H   :   -0.000143562    0.000017300    0.000041389
  22   H   :   -0.000147920   -0.000024865    0.000003985
  23   H   :   -0.000068381   -0.000001508    0.000010477

Difference to translation invariance:
           :   -0.0000000000    0.0000000000   -0.0000000000

Difference to rotation invariance:
           :   -0.0000000000    0.0000000000   -0.0000000000

Norm of the Dispersion gradient    ...    0.0016548904
RMS gradient                       ...    0.0001992254
MAX gradient                       ...    0.0005369709

------------------
CARTESIAN GRADIENT
------------------

   1   C   :   -0.009622146    0.003794640   -0.005647495
   2   C   :    0.001403599   -0.008734464    0.018629616
   3   C   :    0.009813230    0.006165637   -0.022251407
   4   C   :   -0.002235502    0.002173336    0.004238818
   5   C   :    0.009793767   -0.014349401    0.015252554
   6   C   :   -0.006227106   -0.007354019    0.008072601
   7   C   :    0.019028896    0.009996574   -0.014521905
   8   C   :   -0.002088065    0.002698685   -0.002926648
   9   C   :    0.016718594    0.009844362   -0.013929183
  10   O   :   -0.018018905   -0.004812379    0.007984566
  11   C   :   -0.014243350    0.006233247   -0.005226267
  12   H   :   -0.000421341   -0.009309417   -0.011131225
  13   H   :    0.001102845   -0.005619117    0.014036284
  14   H   :    0.002132942    0.014190753   -0.001846903
  15   H   :    0.002154087    0.000227294    0.000108446
  16   H   :    0.002460310    0.000076478    0.001140733
  17   H   :   -0.001649882   -0.000975366    0.001370883
  18   H   :    0.001006590   -0.001159021    0.001488469
  19   H   :    0.001716069    0.001536077   -0.001879374
[...]
  6:     49.57   0.000062    0.31  0.000391  ( 0.011071  0.013263  0.009599)
  7:     76.01   0.000646    3.26  0.002651  ( 0.000291 -0.033710 -0.038911)
  8:    114.68   0.000122    0.61  0.000331  (-0.012691  0.004304 -0.012308)
  9:    123.93   0.000213    1.08  0.000536  ( 0.006163 -0.021324 -0.006562)
 10:    196.45   0.000535    2.71  0.000851  (-0.008561 -0.020514 -0.018878)
 11:    211.93   0.000241    1.22  0.000354  (-0.007229 -0.012532 -0.012037)
 12:    258.28   0.000160    0.81  0.000193  (-0.012764  0.003111 -0.004542)
 13:    266.83   0.000175    0.88  0.000205  (-0.003611 -0.010891 -0.008540)
 14:    332.18   0.000462    2.33  0.000434  (-0.016554  0.009359 -0.008491)
 15:    392.15   0.000435    2.20  0.000346  (-0.017497  0.005347  0.003422)
 16:    402.44   0.000051    0.26  0.000040  ( 0.001427 -0.001984  0.005805)
 17:    432.16   0.000070    0.35  0.000051  ( 0.006762 -0.002051  0.000762)
 18:    511.85   0.000069    0.35  0.000042  (-0.000824 -0.000162  0.006410)
 19:    541.18   0.003077   15.55  0.001775  (-0.006896 -0.025287 -0.032979)
 20:    583.96   0.004123   20.84  0.002204  ( 0.042898 -0.018981  0.001730)
 21:    663.39   0.000115    0.58  0.000054  (-0.002701 -0.004868  0.004825)
 22:    743.46   0.000383    1.94  0.000161  ( 0.009766  0.004867  0.006458)
 23:    794.87   0.002072   10.47  0.000813  (-0.024551  0.007051 -0.012690)
 24:    825.97   0.005671   28.66  0.002143  ( 0.000108  0.034177  0.031221)
 25:    841.11   0.000129    0.65  0.000048  (-0.002516 -0.002004 -0.006116)
 26:    872.87   0.004166   21.05  0.001489  ( 0.001627 -0.024216 -0.030006)
 27:    887.53   0.003912   19.77  0.001375  ( 0.016982  0.021492  0.025001)
 28:    975.48   0.001502    7.59  0.000481  ( 0.016049 -0.014471  0.003684)
 29:    983.85   0.001886    9.53  0.000598  ( 0.019384 -0.007613  0.012822)
 30:   1000.20   0.000343    1.73  0.000107  ( 0.000176  0.009348  0.004414)
 31:   1013.44   0.009034   45.65  0.002782  ( 0.006418  0.045649  0.025625)
 32:   1052.03   0.000008    0.04  0.000002  (-0.001148  0.001005  0.000197)
 33:   1091.65   0.000056    0.28  0.000016  ( 0.003742  0.001390  0.000168)
 34:   1123.69   0.010042   50.75  0.002789  (-0.035065 -0.026117  0.029617)
 35:   1146.15   0.000582    2.94  0.000158  ( 0.002398  0.009215 -0.008235)
 36:   1160.21   0.001789    9.04  0.000481  ( 0.006648 -0.014709  0.014857)
 37:   1204.98   0.000158    0.80  0.000041  ( 0.000133  0.004349  0.004699)
 38:   1223.13   0.004120   20.82  0.001051  ( 0.032408  0.000024 -0.000922)
 39:   1233.19   0.002175   10.99  0.000550  ( 0.020594  0.007224 -0.008613)
 40:   1258.30   0.000507    2.56  0.000126  ( 0.004893 -0.005735  0.008304)
 41:   1322.64   0.021766  110.00  0.005135  ( 0.071268  0.000215 -0.007498)
 42:   1350.13   0.026976  136.33  0.006235  (-0.078328 -0.002559  0.009658)
 43:   1357.26   0.000071    0.36  0.000016  ( 0.003391 -0.001712  0.001398)
 44:   1362.73   0.019904  100.59  0.004558  ( 0.067400 -0.001485 -0.003601)
 45:   1381.63   0.006831   34.52  0.001543  ( 0.036233  0.007918 -0.012938)
 46:   1447.43   0.000312    1.58  0.000067  (-0.003109 -0.002315  0.007230)
 47:   1491.59   0.000200    1.01  0.000042  (-0.006394 -0.000832 -0.000416)
 48:   1508.43   0.001725    8.72  0.000357  ( 0.017675 -0.005140  0.004258)
 49:   1509.71   0.002063   10.42  0.000426  ( 0.002858  0.018370  0.008988)
 50:   1523.46   0.003198   16.16  0.000655  ( 0.004114  0.010771 -0.022848)
 51:   1528.87   0.002253   11.39  0.000460  ( 0.000326 -0.014820 -0.015498)
 52:   1537.64   0.008018   40.52  0.001627  (-0.040256  0.002601 -0.000216)
 53:   1598.99   0.035955  181.70  0.007017  ( 0.083578 -0.004904 -0.002792)
 54:   1685.75   0.002391   12.08  0.000443  (-0.016117  0.010737 -0.008223)
 55:   1730.92   0.017342   87.64  0.003126  ( 0.055639 -0.001206 -0.005410)
 56:   1793.22   0.000246    1.25  0.000043  ( 0.006131  0.000748 -0.002176)
 57:   3088.46   0.011635   58.80  0.001176  ( 0.028937  0.011989 -0.013948)
 58:   3099.93   0.008327   42.08  0.000838  ( 0.028102 -0.005182  0.004661)
 59:   3174.88   0.005056   25.55  0.000497  (-0.001873 -0.015207 -0.016194)
 60:   3177.68   0.001581    7.99  0.000155  (-0.001819 -0.011233 -0.005080)
 61:   3201.53   0.000468    2.37  0.000046  ( 0.001625 -0.003292  0.005672)
 62:   3207.34   0.002716   13.72  0.000264  ( 0.013752  0.002061 -0.008419)
 63:   3219.84   0.004056   20.50  0.000393  ( 0.011049  0.004196 -0.015920)
 64:   3228.23   0.001765    8.92  0.000171  (-0.012270  0.003894 -0.002220)
 65:   3246.26   0.001792    9.05  0.000172  (-0.010068 -0.005443  0.006422)
 66:   3259.04   0.001200    6.07  0.000115  ( 0.006727 -0.007018  0.004521)
 67:   3276.45   0.000642    3.25  0.000061  (-0.003753  0.004955 -0.004746)
 68:   3289.19   0.001021    5.16  0.000097  ( 0.007966  0.004149 -0.004026)

* The epsilon (eps) is given for a Dirac delta lineshape.
** The dipole moment derivative (T) already includes vibrational overlap.

The first frequency considered to be a vibration is 6
The total number of vibrations considered is 63


--------------------------
THERMOCHEMISTRY AT 298.15K
--------------------------

Temperature         ...   298.15 K
Pressure            ...     1.00 atm
Total Mass          ...   148.21 AMU
Quasi RRHO          ...     True
Cut-Off Frequency   ...     1.00 cm^-1

Throughout the following assumptions are being made:
  (1) The electronic state is orbitally nondegenerate
  (2) There are no thermally accessible electronically excited states
  (3) Hindered rotations indicated by low frequency modes are not
      treated as such but are treated as vibrations and this may
      cause some error
  (4) All equations used are the standard statistical mechanics
      equations for an ideal gas
  (5) All vibrations are strictly harmonic

freq.      49.57  E(vib)   ...       0.52 
freq.      76.01  E(vib)   ...       0.49 
freq.     114.68  E(vib)   ...       0.44 
freq.     123.93  E(vib)   ...       0.43 
freq.     196.45  E(vib)   ...       0.36 
freq.     211.93  E(vib)   ...       0.34 
freq.     258.28  E(vib)   ...       0.30 
freq.     266.83  E(vib)   ...       0.29 
freq.     332.18  E(vib)   ...       0.24 
freq.     392.15  E(vib)   ...       0.20 
freq.     402.44  E(vib)   ...       0.19 
freq.     432.16  E(vib)   ...       0.18 
freq.     511.85  E(vib)   ...       0.14 
freq.     541.18  E(vib)   ...       0.12 
freq.     583.96  E(vib)   ...       0.11 
freq.     663.39  E(vib)   ...       0.08 
freq.     743.46  E(vib)   ...       0.06 
freq.     794.87  E(vib)   ...       0.05 
freq.     825.97  E(vib)   ...       0.04 
freq.     841.11  E(vib)   ...       0.04 
freq.     872.87  E(vib)   ...       0.04 
freq.     887.53  E(vib)   ...       0.04 
freq.     975.48  E(vib)   ...       0.03 
freq.     983.85  E(vib)   ...       0.02 
freq.    1000.20  E(vib)   ...       0.02 
freq.    1013.44  E(vib)   ...       0.02 
freq.    1052.03  E(vib)   ...       0.02 
freq.    1091.65  E(vib)   ...       0.02 
freq.    1123.69  E(vib)   ...       0.01 
freq.    1146.15  E(vib)   ...       0.01 
freq.    1160.21  E(vib)   ...       0.01 
freq.    1204.98  E(vib)   ...       0.01 
freq.    1223.13  E(vib)   ...       0.01 
freq.    1233.19  E(vib)   ...       0.01 
freq.    1258.30  E(vib)   ...       0.01 
freq.    1322.64  E(vib)   ...       0.01 
freq.    1350.13  E(vib)   ...       0.01 
freq.    1357.26  E(vib)   ...       0.01 
freq.    1362.73  E(vib)   ...       0.01 
freq.    1381.63  E(vib)   ...       0.01 
freq.    1447.43  E(vib)   ...       0.00 
freq.    1491.59  E(vib)   ...       0.00 
freq.    1508.43  E(vib)   ...       0.00 
freq.    1509.71  E(vib)   ...       0.00 
freq.    1523.46  E(vib)   ...       0.00 
freq.    1528.87  E(vib)   ...       0.00 
freq.    1537.64  E(vib)   ...       0.00 
freq.    1598.99  E(vib)   ...       0.00 
freq.    1685.75  E(vib)   ...       0.00 
freq.    1730.92  E(vib)   ...       0.00 
freq.    1793.22  E(vib)   ...       0.00 
freq.    3088.46  E(vib)   ...       0.00 
freq.    3099.93  E(vib)   ...       0.00 
freq.    3174.88  E(vib)   ...       0.00 
freq.    3177.68  E(vib)   ...       0.00 
freq.    3201.53  E(vib)   ...       0.00 
freq.    3207.34  E(vib)   ...       0.00 
freq.    3219.84  E(vib)   ...       0.00 
freq.    3228.23  E(vib)   ...       0.00 
freq.    3246.26  E(vib)   ...       0.00 
freq.    3259.04  E(vib)   ...       0.00 
freq.    3276.45  E(vib)   ...       0.00 
freq.    3289.19  E(vib)   ...       0.00 

------------
INNER ENERGY
------------

The inner energy is: U= E(el) + E(ZPE) + E(vib) + E(rot) + E(trans)
    E(el)   - is the total energy from the electronic structure calculation
              = E(kin-el) + E(nuc-el) + E(el-el) + E(nuc-nuc)
    E(ZPE)  - the the zero temperature vibrational energy from the frequency calculation
    E(vib)  - the the finite temperature correction to E(ZPE) due to population
              of excited vibrational states
    E(rot)  - is the rotational thermal energy
    E(trans)- is the translational thermal energy

Summary of contributions to the inner energy U:
Electronic energy                ...    -80.21957937 Eh
Zero point energy                ...      0.19862960 Eh     124.64 kcal/mol
Thermal vibrational correction   ...      0.00790303 Eh       4.96 kcal/mol
Thermal rotational correction    ...      0.00141627 Eh       0.89 kcal/mol
Thermal translational correction ...      0.00141627 Eh       0.89 kcal/mol
-----------------------------------------------------------------------
Total thermal energy                    -80.01021420 Eh


Summary of corrections to the electronic energy:
(perhaps to be used in another calculation)
Total thermal correction                  0.01073558 Eh       6.74 kcal/mol
Non-thermal (ZPE) correction              0.19862960 Eh     124.64 kcal/mol
-----------------------------------------------------------------------
Total correction                          0.20936517 Eh     131.38 kcal/mol


--------
ENTHALPY
--------

The enthalpy is H = U + kB*T
                kB is Boltzmann's constant
Total thermal energy              ...    -80.01021420 Eh 
Thermal Enthalpy correction       ...      0.00094421 Eh       0.59 kcal/mol
-----------------------------------------------------------------------
Total Enthalpy                    ...    -80.00926999 Eh


Note: Only C1 symmetry has been detected, increase convergence thresholds 
      if your molecule has a higher symmetry. Symmetry factor of 1.0 is   
      used for the rotational entropy correction. 
 

Note: Rotational entropy computed according to Herzberg 
Infrared and Raman Spectra, Chapter V,1, Van Nostrand Reinhold, 1945 
Point Group:  C1, Symmetry Number:   1  
Rotational constants in cm-1:     0.131892     0.015835     0.014263 

Vibrational entropy computed according to the QRRHO of S. Grimme
Chem.Eur.J. 2012 18 9955 using a reference frequency of 100.0 cm-1


-------
ENTROPY
-------

The entropy contributions are T*S = T*(S(el)+S(vib)+S(rot)+S(trans))
     S(el)   - electronic entropy
     S(vib)  - vibrational entropy
     S(rot)  - rotational entropy
     S(trans)- translational entropy
The entropies will be listed as multiplied by the temperature to get
units of energy

Electronic entropy                ...      0.00000000 Eh      0.00 kcal/mol
Vibrational entropy               ...      0.01361801 Eh      8.55 kcal/mol
Rotational entropy                ...      0.01443064 Eh      9.06 kcal/mol
Translational entropy             ...      0.01942844 Eh     12.19 kcal/mol
-----------------------------------------------------------------------
Final entropy term                ...      0.04747709 Eh     29.79 kcal/mol

In case the symmetry of your molecule has not been determined correctly
or in case you have a reason to use a different symmetry number we print 
out the resulting rotational entropy values for sn=1,12:

 non-linear molecules -----------------------------------
|  sn= 1 | S(rot)=       0.01443064 Eh      9.06 kcal/mol|
|  sn= 2 | S(rot)=       0.01377618 Eh      8.64 kcal/mol|
|  sn= 3 | S(rot)=       0.01339335 Eh      8.40 kcal/mol|
|  sn= 4 | S(rot)=       0.01312172 Eh      8.23 kcal/mol|
|  sn= 5 | S(rot)=       0.01291104 Eh      8.10 kcal/mol|
|  sn= 6 | S(rot)=       0.01273889 Eh      7.99 kcal/mol|
|  sn= 7 | S(rot)=       0.01259335 Eh      7.90 kcal/mol|
|  sn= 8 | S(rot)=       0.01246727 Eh      7.82 kcal/mol|
|  sn= 9 | S(rot)=       0.01235606 Eh      7.75 kcal/mol|
|  sn=10 | S(rot)=       0.01225658 Eh      7.69 kcal/mol|
|  sn=11 | S(rot)=       0.01216659 Eh      7.63 kcal/mol|
|  sn=12 | S(rot)=       0.01208444 Eh      7.58 kcal/mol|
 linear molecules ---------------------------------------
|  Dinfh | S(rot)=       0.00933864 Eh      5.86 kcal/mol|
|  Cinfv | S(rot)=       0.00999309 Eh      6.27 kcal/mol|
 --------------------------------------------------------


-------------------
GIBBS FREE ENERGY
-------------------

The Gibbs free energy is G = H - T*S

Total enthalpy                    ...    -80.00926999 Eh 
Total entropy correction          ...     -0.04747709 Eh    -29.79 kcal/mol
-----------------------------------------------------------------------
Final Gibbs free energy         ...    -80.05674708 Eh

For completeness - the Gibbs free energy minus the electronic energy
G-E(el)                           ...      0.16283229 Eh    102.18 kcal/mol


Maximum memory used throughout the entire PROP-calculation: 98.9 MB

--------------------------------
SUGGESTED CITATIONS FOR THIS RUN
--------------------------------

Below you find a list of papers that are relevant to this ORCA run
We neither can nor want to force you to cite these papers, but we appreciate if you do
You receive ORCA, which is the product of decades of hard work by many enthusiastic individuals, for free
The only thing we kindly ask in return is that you cite our papers,
We deeply appreciate it, if you show your appreciation for ORCA by not just citing the generic ORCA reference.

Please note that relegating all ORCA citations to the supporting information does *not* help us.
SI sections are not indexed - citations you put there will not count into any citation statistics
But we need these citations in order to attract the funding resources that allow us to do what we are doing

Therefore, if you are a happy ORCA user, please consider citing a few of the papers listed below in the main body of your paper

In addition to the list printed below, the program has created the file ./output/_e_anethole/_e_anethole.bibtex that contains the list in bibtex format
You can import this file easily into all common literature databanks and citation aid programs


List of essential papers. We consider these as the minimum necessary citations

  1. Neese,F.
     Software update: the ORCA program system, version 5.0
     WIRES Comput. Molec. Sci., 2022 12(1)e1606
     doi.org/10.1002/wcms.1606
  2. Mueller,M.; Hansen,A.; Grimme,S.
     wB97X-3c: A composite range-separated hybrid DFT method with a molecule-optimized polarized valence double-zeta basis set
     J. Chem. Phys., 2023 158 014103
     doi.org/10.1063/5.0133026

List of papers to cite with high priority. The work reported in these papers was absolutely
necessary for this run to complete.
Our perspective: the developers of density functionals and basis sets usually get cited in chemistry papers
Good! But without the algorithms to do something with them, the functionals or basis sets would not do anything.
Hence, in our opinion, the algorithm design and method developments papers are equally worthy of getting cited

  1. Neese,F.
     An improvement of the resolution of the identity approximation for the formation of the Coulomb matrix
     J. Comp. Chem., 2003 24(14)1740-1747
     doi.org/10.1002/jcc.10318
  2. Neese,F.; Wennmohs,F.; Hansen,A.; Becker,U.
     Efficient, approximate and parallel Hartree-Fock and hybrid DFT calculations. A 'chain-of-spheres' algorithm for the Hartree-Fock exchange
     Chem. Phys., 2009 356(1-3)98-109
     doi.org/10.1016/j.chemphys.2008.10.036
  3. Bykov,D.; Petrenko,T.; Izsak,R.; Kossmann,S.; Becker,U.; Valeev,E.; Neese,F.
     Efficient implementation of the analytic second derivatives of Hartree-Fock and hybrid DFT energies: a detailed analysis of different approximations
     Molec. Phys., 2015 113 1961-1977
     doi.org/10.1080/00268976.2015.1025114
  4. Helmich-Paris,B.; de Souza,B.; Neese,F.; Izsák,R.
     An improved chain of spheres for exchange algorithm
     J. Chem. Phys., 2021 155 104109
     doi.org/doi: 10.1063/5.0058766.
  5. Neese,F.
     The SHARK Integral Generation and Digestion System
     J. Comp. Chem., 2022  1-16
     doi.org/10.1002/jcc.26942
  6. Caldeweyher,E.; Bannwarth,C.; Grimme,S.
     Extension of the D3 dispersion coefficient model
     J. Chem. Phys., 2017 147 034112
     doi.org/10.1063/1.4993215
  7. Caldeweyher,E.; Ehlert,S.; Hansen,A.; Neugebauer,H.; Spicher,S.; Bannwarth,C.; Grimme,S.
     A generally applicable atomic-charge dependent London dispersion correction
     J. Chem. Phys., 2019 150 154122
     doi.org/10.1063/1.5090222
  8. Caldeweyher,E.; Mewes,J.; Ehlert,S.; Grimme,S.
     Extension and evaluation of the D4 London-dispersion model for periodic systems
     Phys. Chem. Chem. Phys., 2020 22(16)8499-8512
     doi.org/10.1039/D0CP00502A
  9. Wittmann,L.; Gordiy,I.; Friede,M.; Helmich-Paris,B.; Grimme,S.; Hansen,A.; Bursch,M.
     Extension of the D3 and D4 London Dispersion Corrections to the full Actinides Series
     Phys. Chem. Chem. Phys., 2024 26(32)21379-21394
     doi.org/https://doi.org/10.1039/D4CP01514B 

List of suggested additional citations. These are papers that are important in the 'surrounding' of 
of this run, or papers that preceded the highly important papers. If you like your results we are grateful for a citation.

  1. Izsak,R.; Neese,F.
     An overlap fitted chain of spheres exchange method
     J. Chem. Phys., 2011 135 144105
     doi.org/10.1063/1.3646921
  2. Izsak,R.; Hansen,A.; Neese,F.
     The resolution of identity and chain of spheres approximations for the LPNO-CCSD singles Fock term
     Molec. Phys., 2012 110 2413-2417
     doi.org/10.1080/00268976.2012.687466
  3. Neese,F.
     The ORCA program system
     WIRES Comput. Molec. Sci., 2012 2(1)73-78
     doi.org/10.1002/wcms.81
  4. Izsak,R.; Neese,F.; Klopper,W.
     Robust fitting techniques in the chain of spheres approximation to the Fock exchange: The role of the complementary space
     J. Chem. Phys., 2013 139 
     doi.org/10.1063/1.4819264
  5. Neese,F.
     Software update: the ORCA program system, version 4.0
     WIRES Comput. Molec. Sci., 2018 8(1)1-6
     doi.org/10.1002/wcms.1327
  6. Neese,F.; Wennmohs,F.; Becker,U.; Riplinger,C.
     The ORCA quantum chemistry program package
     J. Chem. Phys., 2020 152 Art. No. L224108
     doi.org/10.1063/5.0004608

List of optional additional citations

  1. Neese,F.
     Approximate second-order SCF convergence for spin unrestricted wavefunctions
     Chem. Phys. Lett., 2000 325(1-3)93-98
     doi.org/10.1016/s0009-2614(00)00662-x

Timings for individual modules:

Sum of individual times          ...     1284.026 sec (=  21.400 min)
Startup calculation              ...       85.703 sec (=   1.428 min)   6.7 %
SCF iterations                   ...      875.111 sec (=  14.585 min)  68.2 %
Property integrals               ...       48.340 sec (=   0.806 min)   3.8 %
SCF Response                     ...       34.650 sec (=   0.578 min)   2.7 %
Property calculations            ...       64.970 sec (=   1.083 min)   5.1 %
SCF Gradient evaluation          ...      174.899 sec (=   2.915 min)  13.6 %
Geometry relaxation              ...        0.353 sec (=   0.006 min)   0.0 %
                             ****ORCA TERMINATED NORMALLY****
TOTAL RUN TIME: 0 days 0 hours 21 minutes 35 seconds 909 msec
