
                                 *****************
                                 * O   R   C   A *
                                 *****************

                                            #,                                       
                                            ###                                      
                                            ####                                     
                                            #####                                    
                                            ######                                   
                                           ########,                                 
                                     ,,################,,,,,                         
                               ,,#################################,,                 
                          ,,##########################################,,             
                       ,#########################################, ''#####,          
                    ,#############################################,,   '####,        
                  ,##################################################,,,,####,       
                ,###########''''           ''''###############################       
              ,#####''   ,,,,##########,,,,          '''####'''          '####       
            ,##' ,,,,###########################,,,                        '##       
           ' ,,###''''                  '''############,,,                           
         ,,##''                                '''############,,,,        ,,,,,,###''
      ,#''                                            '''#######################'''  
     '                                                          ''''####''''         
             ,#######,   #######,   ,#######,      ##                                
            ,#'     '#,  ##    ##  ,#'     '#,    #''#        ,####,   ,####,        
            ##       ##  ##   ,#'  ##            #'  '#       #'       #'  '#        
            ##       ##  #######   ##           ,######,      #####,   #    #        
            '#,     ,#'  ##    ##  '#,     ,#' ,#      #,     #,   #   #,  ,#        
             '#######'   ##     ##  '#######'  #'      '#     '####' # '####'        



                #########################################################
                #                        -***-                          #
                #          Department of theory and spectroscopy        #
                #                                                       #
                #                      Frank Neese                      #
                #                                                       #
                #     Directorship, Architecture, Infrastructure        #
                #                    SHARK, DRIVERS                     #
                #        Core code/Algorithms in most modules           #
                #                                                       #
                #        Max Planck Institute fuer Kohlenforschung      #
                #                Kaiser Wilhelm Platz 1                 #
                #                 D-45470 Muelheim/Ruhr                 #
                #                      Germany                          #
                #                                                       #
                #                  All rights reserved                  #
                #                        -***-                          #
                #########################################################


                         Program Version 6.0.1  -  RELEASE   -


 With contributions from (in alphabetic order):
[Max-Planck-Institut fuer Kohlenforschung]                               
  Daniel Aravena         : Magnetic Suceptibility                        
  Michael Atanasov       : Ab Initio Ligand Field Theory (pilot matlab implementation)
  Alexander A. Auer      : GIAO ZORA, VPT2 properties, NMR spectrum      
  Ute Becker             : All parallelization in ORCA, NUMFREQ, NUMCALC 
  Giovanni Bistoni       : ED, misc. LED, open-shell LED, HFLD           
  Martin Brehm           : Molecular dynamics                            
  Dmytro Bykov           : pre 5.0 version of the SCF Hessian            
  Marcos Casanova-Páez   : Triplet and SCS-CIS(D). UHF-(DLPNO)-IP/EA/STEOM-CCSD. UHF-CVS-IP/STEOM-CCSD   
  Vijay G. Chilkuri      : MRCI spin determinant printing, contributions to CSF-ICE 
  Pauline Colinet        : FMM embedding                                 
  Dipayan Datta          : RHF DLPNO-CCSD density                        
  Achintya Kumar Dutta   : EOM-CC, STEOM-CC                              
  Nicolas Foglia         : Exact transition moments, OPA infrastructure, MCD improvements    
  Dmitry Ganyushin       : Spin-Orbit,Spin-Spin,Magnetic field MRCI      
  Miquel Garcia-Rates    : C-PCM and meta-GGA Hessian, CCSD/C-PCM, Gaussian charge scheme 
  Tiago L. C. Gouveia    : GS-ROHF, GS-ROCIS                             
  Yang Guo               : DLPNO-NEVPT2, F12-NEVPT2, CIM, IAO-localization        
  Andreas Hansen         : Spin unrestricted coupled pair/coupled cluster methods 
  Ingolf Harden          : AUTO-CI MPn and infrastructure                
  Benjamin Helmich-Paris : MC-RPA, TRAH-(SCF,CASSCF), AVAS, COSX integrals, SCF dyn. polar. 
  Lee Huntington         : MR-EOM, pCC                                   
  Robert Izsak           : Overlap fitted RIJCOSX, COSX-SCS-MP3, EOM     
  Riya Kayal             : Wick's Theorem for AUTO-CI, AUTO-CI UHF-CCSDT 
  Emily Kempfer          : AUTO-CI, RHF CISDT and CCSDT                  
  Christian Kollmar      : KDIIS, OOCD, Brueckner-CCSD(T), CCSD density, CASPT2, CASPT2-K, improved NEVPT2 
  Axel Koslowski         : Symmetry handling                             
  Simone Kossmann        : meta-GGA functionals, TD-DFT gradient, OOMP2, (MP2 Hessian; deprecated post 5.0) 
  Lucas Lang             : DCDCAS                                        
  Marvin Lechner         : AUTO-CI (C++ implementation), FIC-MRCC        
  Spencer Leger          : CASSCF response                               
  Dagmar Lenk            : GEPOL surface, SMD, ORCA-2-JSON               
  Dimitrios Liakos       : Extrapolation schemes; Compound Job, initial MDCI parallelization 
  Dimitrios Manganas     : Further ROCIS development; embedding schemes. LFT, Crystal Embedding 
  Dimitrios Pantazis     : SARC Basis sets                               
  Anastasios Papadopoulos: AUTO-CI, single reference methods and gradients 
  Taras Petrenko         : pre 6.0 DFT Hessian and TD-DFT gradient, (ASA, deprecated), ECA, 1-Electron XAS/XES, NRVS 
  Peter Pinski           : DLPNO-MP2, DLPNO-MP2 Gradient                 
  Christoph Reimann      : Effective Core Potentials                     
  Marius Retegan         : Local ZFS, SOC                                
  Christoph Riplinger    : Optimizer, TS searches, QM/MM, DLPNO-CCSD(T), (RO)-DLPNO pert. Triples 
  Michael Roemelt        : Original ROCIS implementation                 
  Masaaki Saitow         : Open-shell DLPNO-CCSD energy and density      
  Barbara Sandhoefer     : DKH picture change effects                    
  Kantharuban Sivalingam : CASSCF convergence/infrastructure, NEVPT2 and variants, FIC-MRCI 
  Bernardo de Souza      : ESD, SOC TD-DFT                               
  Georgi L. Stoychev     : AutoAux, RI-MP2 NMR, DLPNO-MP2 response, X2C  
  Van Anh Tran           : RI-MP2 g-tensors                              
  Willem Van den Heuvel  : Paramagnetic NMR                              
  Zikuan Wang            : NOTCH, Electric field optimization            
  Frank Wennmohs         : Technical directorship and infrastructure     
  Hang Xu                : AUTO-CI-Response properties                   
                                                                         
[FACCTs GmbH]                                                            
  Markus Bursch, Miquel Garcia-Rates, Christoph Riplinger, Bernardo de Souza, Georgi L. Stoychev 
                                                                 
  APM, Basis sets (HGBS, AHGBS, def-TZVP (Ac-Lr), def2-XVPD (La-Lu)), CI-OPT, improved COSX, DLPNO-Multilevel,           
  DOCKER, DRACO, updates on ESD, GOAT, IRC, LR-CPCM, MBIS, meta-GGA TD-DFT gradient, ML-optimized integration grids, 
  MM, NACMEs, nearIR, NEB, NEB-TS, NL-DFT gradient (VV10), 2- and 3-layer-ONIOM, interface openCOSMO-RS, QMMM,   
  Crystal-QMMM, SF, symmetry and pop. for TD-DFT, r2SCAN hybrids, SOLVATOR                                   
                                                                         
[Other institutions]                                                     
  V. Asgeirsson          : NEB                                           
  Christoph Bannwarth    : sTDA-DFT, sTD-DFT, PBEh-3c, B97-3c, D3        
  Sebastian Ehlert       : rSCAN, r2SCAN, r2SCAN-3c, D4, dhf basis sets  
  Marvin Friede          : D4 for Fr, Ra, Ac-Lr                          
  Lars Goerigk           : TD-DFT with DH, B97 family of functionals     
  Stefan Grimme          : VdW corrections, initial TS optimization, DFT functionals, gCP, sTDA/sTD-DF 
  Waldemar Hujo          : DFT-NL                                        
  H. Jonsson             : NEB                                           
  Holger Kruse           : gCP                                           
  Marcel Mueller         : wB97X-3c, vDZP basis set                      
  Hagen Neugebauer       : wr2SCAN                                       
  Tobias Risthaus        : range-separated hybrid DFT                    
  Lukas Wittmann         : regularized MP2, r2SCAN double-hybrids, wr2SCAN        
                                                                         
We gratefully acknowledge several colleagues who have allowed us to      
interface, adapt or use parts of their codes:                            
  Ed Valeev, F. Pavosevic, A. Kumar             : LibInt (2-el integral package), F12 methods 
  Garnet Chan, S. Sharma, J. Yang, R. Olivares  : DMRG                   
  Ulf Ekstrom                                   : XCFun DFT Library      
  Mihaly Kallay                                 : mrcc  (arbitrary order and MRCC methods)
  Frank Weinhold                                : gennbo (NPA and NBO analysis)           
  Simon Mueller                                 : openCOSMO-RS                            
  Christopher J. Cramer and Donald G. Truhlar   : smd solvation model                     
  S Lehtola, MJT Oliveira, MAL Marques          : LibXC Library                           
  Liviu Ungur et al                             : ANISO software                          


 Your calculation uses the libint2 library for the computation of 2-el integrals
 For citations please refer to: http://libint.valeyev.net

 Your ORCA version has been built with support for libXC version: 6.2.2
 For citations please refer to: https://libxc.gitlab.io

 This ORCA versions uses:
   CBLAS   interface :  Fast vector & matrix operations
   LAPACKE interface :  Fast linear algebra routines
   SCALAPACK package :  Parallel linear algebra routines
   Shared memory     :  Shared parallel matrices
   BLAS/LAPACK       :  OpenBLAS 0.3.27  USE64BITINT DYNAMIC_ARCH NO_AFFINITY SkylakeX SINGLE_THREADED
        Core in use  :  SkylakeX
   Copyright (c) 2011-2014, The OpenBLAS Project


Your calculation utilizes the atom-pairwise dispersion correction
based on EEQ partial charges (D4)


================================================================================

cite the ECPs for C  [vDZP-ECP], O  [vDZP-ECP] as follows:
   B-Ne (ecp-2-mwb), Al-Ar (ecp-10-mwb), Ga-Kr (ecp-28-mwb), Y-Cd (ecp-28-mwb), In-Xe (ecp-46-mwb):
     A. Bergner, M. Dolg, W. Küchle, H. Stoll, and H. Preuß, Mol. Phys. 80, 1431 (1993)., T. Leininger, A. Berning, A. Nicklass, H. Stoll, H.-J. Werner, and H.-J.Flad, Chem. Phys. 217, 19 (1997).
   Na-Mg, K-Ca, Rb-Sr, Cs-Ba (CRENBL):
     L. Fernandez Pacios and P. A. Christiansen, J. Chem. Phys. 82, 2664 (1985)., M. M. Hurley, L. F. Pacios, P. A. Christiansen, R. B. Ross, and W. C. Ermler, J. Chem. Phys. 84, 6840 (1986)., L. A. LaJohn, P. A. Christiansen, R. B. Ross, T. Atashroo, and W. C. Ermler, J. Chem. Phys. 87, 2812 (1987)., R. B. Ross, J. M. Powers, T. Atashroo, W. C. Ermler, L. A. LaJohn, and P. A. Christiansen, J. Chem. Phys. 93, 6654 (1990). 
   Sc-Zn (ecp-10-mdf):
     M. Dolg, U. Wedig, H. Stoll, and H. Preuss, J. Chem. Phys. 86, 866 (1986). 
   Y-Cd (ecp-28-mwb), Hf-Hg (ecp-60-mwb):
     D. Andrae, U. Häußermann, M. Dolg, H. Stoll, and H. Preuß, Theor. Chim. Acta 77, 123 (1990). 
   La (ecp-46-mwb):
     M. Dolg, H. Stoll, and H. Preuss, J. Chem. Phys. 90, 1730 (1989)., M. Dolg, H. Stoll, and H. Preuss, Theor. Chim. Acta 85, 441 (1993).
   Ce-Lu (SBKJC-ecp):
     T. R. Cundari and W. J. Stevens, J. Chem. Phys. 98, 5555 (1993).
   Tl-Rn (ecp-78-mwb):
     W. Küchle, M. Dolg, H. Stoll, and H. Preuss, Mol. Phys. 74, 1245 (1991).

ECP parameters for C  [vDZP-ECP], O  [vDZP-ECP] have been obtained from:
MM, AH, SG, J. Chem. Phys. 158, 014103 (2023), 10.1063/5.0133026

----- Orbital basis set information -----
Your calculation utilizes the basis: vDZP
   Marcel Mueller, Andreas Hansen, Stefan Grimme 
   J. Chem. Phys. 158, 014103 (2023). DOI: 10.1063/5.0133026

----- AuxJ basis set information -----
Your calculation utilizes the auxiliary basis: def2/J
   F. Weigend, Phys. Chem. Chem. Phys. 8, 1057 (2006).

================================================================================
                                        WARNINGS
                       Please study these warnings very carefully!
================================================================================

WARNING: Frozen-Core approximation turned on, but there are no core electrons.
  ===> : Turning off frozen-core approximation


WARNING: Geometry Optimization
  ===> : Switching off AutoStart
         For restart on a previous wavefunction, please use MOREAD

================================================================================
                                       INPUT FILE
================================================================================
NAME = ./output/estragole/estragole.inp
|  1> ! wB97X-3c OPT FREQ TightSCF
|  2> %pal
|  3>   nprocs 40
|  4> end
|  5> * xyz 0 1
|  6> C      4.001966     0.628334     1.087029
|  7> O      3.005290     1.155730     0.217599
|  8> C      1.745548     0.573810     0.012079
|  9> C      1.344669    -0.609165     0.662214
| 10> C      0.077604    -1.149833     0.423466
| 11> C     -0.803986    -0.524064    -0.471405
| 12> C     -0.407026     0.660053    -1.111495
| 13> C      0.859765     1.200241    -0.872350
| 14> C     -2.178131    -1.093543    -0.703532
| 15> C     -3.112257    -0.701331     0.406730
| 16> C     -3.563195     0.549884     0.536290
| 17> H      4.298125    -0.389332     0.755541
| 18> H      3.620558     0.595216     2.129460
| 19> H      4.894750     1.285859     1.056174
| 20> H      2.002405    -1.116254     1.354789
| 21> H     -0.218088    -2.056287     0.937391
| 22> H     -1.078105     1.165997    -1.794523
| 23> H      1.154446     2.112652    -1.375217
| 24> H     -2.112991    -2.202346    -0.745335
| 25> H     -2.590071    -0.756322    -1.680032
| 26> H     -3.437479    -1.458037     1.114597
| 27> H     -4.240626     0.801706     1.345644
| 28> H     -3.263172     1.327034    -0.159998
| 29> *
| 30> 
| 31>                          ****END OF INPUT****
================================================================================

                       *****************************
                       * Geometry Optimization Run *
                       *****************************

Geometry optimization settings:
Update method            Update   .... BFGS
Choice of coordinates    CoordSys .... (2022) Redundant Internals
Initial Hessian          InHess   .... Almloef's Model
Max. no of cycles        MaxIter  .... 69

Convergence Tolerances:
Energy Change            TolE     ....  5.0000e-06 Eh
Max. Gradient            TolMAXG  ....  3.0000e-04 Eh/bohr
RMS Gradient             TolRMSG  ....  1.0000e-04 Eh/bohr
Max. Displacement        TolMAXD  ....  4.0000e-03 bohr
RMS Displacement         TolRMSD  ....  2.0000e-03 bohr
Strict Convergence                .... False

------------------------------------------------------------------------------
                        ORCA OPTIMIZATION COORDINATE SETUP
------------------------------------------------------------------------------

The optimization will be done in redundant internal coordinates (2022)
Making redundant internal coordinates   ...  (2022 redundants) done
Evaluating the initial hessian          ...  (Almloef) done
Evaluating the coordinates              ...  done
Calculating the B-matrix                .... done
Calculating the G-matrix                .... done
Diagonalizing the G-matrix              .... done
Small eigenvalue found = 1.409e-02
Small eigenvalue found = 1.608e-02
The first mode is                       ....   40
The number of degrees of freedom        ....   63

    -----------------------------------------------------------------
                    Redundant Internal Coordinates


    -----------------------------------------------------------------
         Definition                    Initial Value    Approx d2E/dq
    -----------------------------------------------------------------
      1. B(O   1,C   0)                  1.4239         0.494119   
      2. B(C   2,O   1)                  1.4028         0.533913   
      3. B(C   3,C   2)                  1.4081         0.584555   
      4. B(C   4,C   3)                  1.3981         0.606405   
      5. B(C   5,C   4)                  1.4034         0.594745   
      6. B(C   6,C   5)                  1.4034         0.594867   
      7. B(C   7,C   2)                  1.3997         0.602860   
      8. B(C   7,C   6)                  1.3978         0.607221   
      9. B(C   8,C   5)                  1.5055         0.408791   
     10. B(C   9,C   8)                  1.5030         0.412481   
     11. B(C  10,C   9)                  1.3363         0.761080   
     12. B(H  11,C   0)                  1.1105         0.333961   
     13. B(H  12,C   0)                  1.1105         0.333965   
     14. B(H  13,C   0)                  1.1092         0.335559   
     15. B(H  14,C   3)                  1.0814         0.371665   
     16. B(H  15,C   4)                  1.0831         0.369278   
     17. B(H  16,C   6)                  1.0830         0.369502   
     18. B(H  17,C   7)                  1.0827         0.369909   
     19. B(H  18,C   8)                  1.1115         0.332751   
     20. B(H  19,C   8)                  1.1122         0.331911   
     21. B(H  20,C   9)                  1.0860         0.365398   
     22. B(H  21,C  10)                  1.0851         0.366679   
     23. B(H  22,C  10)                  1.0857         0.365804   
     24. A(O   1,C   0,H  11)          110.1107         0.333428   
     25. A(O   1,C   0,H  13)          109.0774         0.333692   
     26. A(H  11,C   0,H  12)          110.1492         0.284071   
     27. A(H  11,C   0,H  13)          108.6792         0.284281   
     28. A(O   1,C   0,H  12)          110.1094         0.333428   
     29. A(H  12,C   0,H  13)          108.6768         0.284282   
     30. A(C   0,O   1,C   2)          124.3609         0.400690   
     31. A(C   3,C   2,C   7)          119.1798         0.427345   
     32. A(O   1,C   2,C   7)          118.3732         0.417749   
     33. A(O   1,C   2,C   3)          122.4470         0.415462   
     34. A(C   2,C   3,C   4)          120.2674         0.427794   
     35. A(C   4,C   3,H  14)          118.6357         0.353473   
     36. A(C   2,C   3,H  14)          121.0966         0.351286   
     37. A(C   3,C   4,H  15)          119.3407         0.353088   
     38. A(C   5,C   4,H  15)          120.2786         0.351930   
     39. A(C   3,C   4,C   5)          120.3806         0.429122   
     40. A(C   6,C   5,C   8)          120.4665         0.400094   
     41. A(C   4,C   5,C   8)          120.2002         0.400080   
     42. A(C   4,C   5,C   6)          119.2995         0.427647   
     43. A(C   5,C   6,H  16)          120.4361         0.351978   
     44. A(C   7,C   6,H  16)          119.2717         0.353205   
     45. A(C   5,C   6,C   7)          120.2922         0.429242   
     46. A(C   6,C   7,H  17)          119.5309         0.353270   
     47. A(C   2,C   7,H  17)          119.8934         0.352840   
     48. A(C   2,C   7,C   6)          120.5755         0.430271   
     49. A(C   5,C   8,H  19)          111.0240         0.324776   
     50. A(C   9,C   8,H  18)          108.9364         0.325391   
     51. A(C   5,C   8,H  18)          109.2481         0.324911   
     52. A(C   5,C   8,C   9)          110.7734         0.375352   
     53. A(C   9,C   8,H  19)          109.8310         0.325256   
     54. A(H  18,C   8,H  19)          106.9271         0.283639   
     55. A(C   8,C   9,C  10)          121.7140         0.418607   
     56. A(C  10,C   9,H  20)          119.2196         0.366359   
     57. A(C   8,C   9,H  20)          119.0626         0.330452   
     58. A(H  21,C  10,H  22)          118.9965         0.292390   
     59. A(C   9,C  10,H  22)          120.9835         0.366429   
     60. A(C   9,C  10,H  21)          120.0200         0.366579   
     61. D(C   2,O   1,C   0,H  11)     60.7766         0.019288   
     62. D(C   2,O   1,C   0,H  12)    -60.8721         0.019288   
     63. D(C   2,O   1,C   0,H  13)    179.9541         0.019288   
     64. D(C   3,C   2,O   1,C   0)      0.0566         0.020565   
     65. D(C   7,C   2,O   1,C   0)    179.9607         0.020565   
     66. D(C   4,C   3,C   2,O   1)   -179.9991         0.023494   
     67. D(H  14,C   3,C   2,C   7)   -179.7287         0.023494   
     68. D(H  14,C   3,C   2,O   1)      0.1747         0.023494   
     69. D(C   4,C   3,C   2,C   7)      0.0975         0.023494   
     70. D(H  15,C   4,C   3,H  14)      0.2918         0.025380   
     71. D(H  15,C   4,C   3,C   2)   -179.5386         0.025380   
     72. D(C   5,C   4,C   3,H  14)   -179.8044         0.025380   
     73. D(C   5,C   4,C   3,C   2)      0.3651         0.025380   
     74. D(C   6,C   5,C   4,H  15)    179.0895         0.024362   
     75. D(C   6,C   5,C   4,C   3)     -0.8134         0.024362   
     76. D(C   8,C   5,C   4,H  15)      1.1935         0.024362   
     77. D(C   8,C   5,C   4,C   3)   -178.7094         0.024362   
     78. D(H  16,C   6,C   5,C   8)     -1.2222         0.024373   
     79. D(H  16,C   6,C   5,C   4)   -179.1125         0.024373   
     80. D(C   7,C   6,C   5,C   8)    178.6961         0.024373   
     81. D(C   7,C   6,C   5,C   4)      0.8059         0.024373   
     82. D(H  17,C   7,C   6,H  16)     -0.2734         0.025452   
     83. D(H  17,C   7,C   6,C   5)    179.8072         0.025452   
     84. D(C   2,C   7,C   6,H  16)    179.5686         0.025452   
     85. D(C   2,C   7,C   6,C   5)     -0.3507         0.025452   
     86. D(H  17,C   7,C   2,C   3)    179.7369         0.025068   
     87. D(H  17,C   7,C   2,O   1)     -0.1705         0.025068   
     88. D(C   6,C   7,C   2,C   3)     -0.1046         0.025068   
     89. D(C   6,C   7,C   2,O   1)    179.9881         0.025068   
     90. D(C   9,C   8,C   5,C   6)    -98.0395         0.012380   
     91. D(C   9,C   8,C   5,C   4)     79.8318         0.012380   
     92. D(H  19,C   8,C   5,C   4)   -157.8578         0.012380   
     93. D(H  18,C   8,C   5,C   6)    141.9548         0.012380   
     94. D(H  18,C   8,C   5,C   4)    -40.1740         0.012380   
     95. D(H  20,C   9,C   8,H  18)     11.3370         0.012596   
     96. D(H  20,C   9,C   8,C   5)   -108.8549         0.012596   
     97. D(C  10,C   9,C   8,H  19)    -51.1385         0.012596   
     98. D(C  10,C   9,C   8,H  18)   -167.9429         0.012596   
     99. D(C  10,C   9,C   8,C   5)     71.8652         0.012596   
    100. D(H  22,C  10,C   9,H  20)   -179.4916         0.041428   
    101. D(H  22,C  10,C   9,C   8)     -0.2127         0.041428   
    102. D(H  21,C  10,C   9,H  20)      0.4275         0.041428   
    103. D(H  21,C  10,C   9,C   8)    179.7064         0.041428   
    -----------------------------------------------------------------

Number of atoms                         .... 23
Number of degrees of freedom            .... 103


         *************************************************************
         *                GEOMETRY OPTIMIZATION CYCLE   1            *
         *************************************************************
---------------------------------
CARTESIAN COORDINATES (ANGSTROEM)
---------------------------------
  C      4.001966    0.628334    1.087029
  O      3.005290    1.155730    0.217599
  C      1.745548    0.573810    0.012079
  C      1.344669   -0.609165    0.662214
  C      0.077604   -1.149833    0.423466
  C     -0.803986   -0.524064   -0.471405
  C     -0.407026    0.660053   -1.111495
  C      0.859765    1.200241   -0.872350
  C     -2.178131   -1.093543   -0.703532
  C     -3.112257   -0.701331    0.406730
  C     -3.563195    0.549884    0.536290
  H      4.298125   -0.389332    0.755541
  H      3.620558    0.595216    2.129460
  H      4.894750    1.285859    1.056174
  H      2.002405   -1.116254    1.354789
  H     -0.218088   -2.056287    0.937391
  H     -1.078105    1.165997   -1.794523
  H      1.154446    2.112652   -1.375217
  H     -2.112991   -2.202346   -0.745335
  H     -2.590071   -0.756322   -1.680032
  H     -3.437479   -1.458037    1.114597
  H     -4.240626    0.801706    1.345644
  H     -3.263172    1.327034   -0.159998

----------------------------
CARTESIAN COORDINATES (A.U.)
----------------------------
  NO LB      ZA    FRAG     MASS         X           Y           Z
   0 C     4.0000*   0    12.011    7.562620    1.187379    2.054187
   1 O     6.0000*   0    15.999    5.679175    2.184013    0.411203
   2 C     4.0000*   0    12.011    3.298608    1.084344    0.022826
   3 C     4.0000*   0    12.011    2.541056   -1.151155    1.251403
   4 C     4.0000*   0    12.011    0.146650   -2.172869    0.800235
   5 C     4.0000*   0    12.011   -1.519313   -0.990337   -0.890826
   6 C     4.0000*   0    12.011   -0.769168    1.247319   -2.100421
   7 C     4.0000*   0    12.011    1.624720    2.268127   -1.648503
   8 C     4.0000*   0    12.011   -4.116071   -2.066497   -1.329483
   9 C     4.0000*   0    12.011   -5.881313   -1.325324    0.768608
  10 C     4.0000*   0    12.011   -6.733463    1.039130    1.013441
  11 H     1.0000    0     1.008    8.122279   -0.735731    1.427766
  12 H     1.0000    0     1.008    6.841863    1.124795    4.024096
  13 H     1.0000    0     1.008    9.249737    2.429921    1.995880
  14 H     1.0000    0     1.008    3.783997   -2.109414    2.560180
  15 H     1.0000    0     1.008   -0.412127   -3.885819    1.771412
  16 H     1.0000    0     1.008   -2.037323    2.203415   -3.391157
  17 H     1.0000    0     1.008    2.181587    3.992334   -2.598784
  18 H     1.0000    0     1.008   -3.992974   -4.161831   -1.408479
  19 H     1.0000    0     1.008   -4.894525   -1.429241   -3.174800
  20 H     1.0000    0     1.008   -6.495894   -2.755291    2.106283
  21 H     1.0000    0     1.008   -8.013622    1.515005    2.542899
  22 H     1.0000    0     1.008   -6.166501    2.507731   -0.302352
* core charge reduced due to ECP

--------------------------------
INTERNAL COORDINATES (ANGSTROEM)
--------------------------------
 C      0   0   0     0.000000000000     0.00000000     0.00000000
 O      1   0   0     1.423874332479     0.00000000     0.00000000
 C      2   1   0     1.402789814393   124.36088182     0.00000000
 C      3   2   1     1.408122630132   122.44695596     0.05655142
 C      4   3   2     1.398133115248   120.26740641   180.00089152
 C      5   4   3     1.403417926386   120.38055033     0.36511619
 C      6   5   4     1.403362219596   119.29950546   359.18664385
 C      7   6   5     1.397767092205   120.29217853     0.80586190
 C      6   5   4     1.505477916343   120.20018736   181.29062403
 C      9   6   5     1.503031385389   110.77338077    79.83175857
 C     10   9   6     1.336289583013   121.71401509    71.86516963
 H      1   2   3     1.110512735173   110.11067742    60.77656090
 H      1   2   3     1.110509457028   110.10938693   299.12785247
 H      1   2   3     1.109213427302   109.07744655   179.95411024
 H      4   3   2     1.081395408832   121.09664794     0.17465024
 H      5   4   3     1.083148890322   119.34074592   180.46135747
 H      7   6   5     1.082983658307   120.43608199   180.88749408
 H      8   7   6     1.082684600598   119.53088390   179.80724585
 H      9   6   5     1.111501148546   109.24808274   319.82598713
 H      9   6   5     1.112189199930   111.02398206   202.14217655
 H     10   9   6     1.086024405531   119.06255710   251.14514328
 H     11  10   9     1.085071876311   120.01997006   179.70640359
 H     11  10   9     1.085722295052   120.98347835   359.78731892

---------------------------
INTERNAL COORDINATES (A.U.)
---------------------------
 C      0   0   0     0.000000000000     0.00000000     0.00000000
 O      1   0   0     2.690732537505     0.00000000     0.00000000
 C      2   1   0     2.650888572656   124.36088182     0.00000000
 C      3   2   1     2.660966133927   122.44695596     0.05655142
 C      4   3   2     2.642088686585   120.26740641   180.00089152
 C      5   4   3     2.652075532305   120.38055033     0.36511619
 C      6   5   4     2.651970261728   119.29950546   359.18664385
 C      7   6   5     2.641397003274   120.29217853     0.80586190
 C      6   5   4     2.844940962554   120.20018736   181.29062403
 C      9   6   5     2.840317689073   110.77338077    79.83175857
 C     10   9   6     2.525221347506   121.71401509    71.86516963
 H      1   2   3     2.098564937708   110.11067742    60.77656090
 H      1   2   3     2.098558742913   110.10938693   299.12785247
 H      1   2   3     2.096109601668   109.07744655   179.95411024
 H      4   3   2     2.043541165171   121.09664794     0.17465024
 H      5   4   3     2.046854764969   119.34074592   180.46135747
 H      7   6   5     2.046542521713   120.43608199   180.88749408
 H      8   7   6     2.045977384543   119.53088390   179.80724585
 H      9   6   5     2.100432768290   109.24808274   319.82598713
 H      9   6   5     2.101732996973   111.02398206   202.14217655
 H     10   9   6     2.052288701208   119.06255710   251.14514328
 H     11  10   9     2.050488681848   120.01997006   179.70640359
 H     11  10   9     2.051717795141   120.98347835   359.78731892

---------------------
BASIS SET INFORMATION
---------------------
There are 3 groups of distinct atoms

 Group   1 Type C   : 6s6p2d contracted to 2s2p1d pattern {42/42/2}
 Group   2 Type O   : 6s6p2d contracted to 2s2p1d pattern {42/42/2}
 Group   3 Type H   : 8s2p contracted to 2s1p pattern {53/2}

Atom   0C    basis set group =>   1
Atom   1O    basis set group =>   2
Atom   2C    basis set group =>   1
Atom   3C    basis set group =>   1
Atom   4C    basis set group =>   1
Atom   5C    basis set group =>   1
Atom   6C    basis set group =>   1
Atom   7C    basis set group =>   1
Atom   8C    basis set group =>   1
Atom   9C    basis set group =>   1
Atom  10C    basis set group =>   1
Atom  11H    basis set group =>   3
Atom  12H    basis set group =>   3
Atom  13H    basis set group =>   3
Atom  14H    basis set group =>   3
Atom  15H    basis set group =>   3
Atom  16H    basis set group =>   3
Atom  17H    basis set group =>   3
Atom  18H    basis set group =>   3
Atom  19H    basis set group =>   3
Atom  20H    basis set group =>   3
Atom  21H    basis set group =>   3
Atom  22H    basis set group =>   3
---------------------------------
AUXILIARY/J BASIS SET INFORMATION
---------------------------------
There are 3 groups of distinct atoms

 Group   1 Type C   : 12s5p4d2f1g contracted to 6s4p3d1f1g pattern {711111/2111/211/2/1}
 Group   2 Type O   : 12s5p4d2f1g contracted to 6s4p3d1f1g pattern {711111/2111/211/2/1}
 Group   3 Type H   : 5s2p1d contracted to 3s1p1d pattern {311/2/1}

Atom   0C    basis set group =>   1
Atom   1O    basis set group =>   2
Atom   2C    basis set group =>   1
Atom   3C    basis set group =>   1
Atom   4C    basis set group =>   1
Atom   5C    basis set group =>   1
Atom   6C    basis set group =>   1
Atom   7C    basis set group =>   1
Atom   8C    basis set group =>   1
Atom   9C    basis set group =>   1
Atom  10C    basis set group =>   1
Atom  11H    basis set group =>   3
Atom  12H    basis set group =>   3
Atom  13H    basis set group =>   3
Atom  14H    basis set group =>   3
Atom  15H    basis set group =>   3
Atom  16H    basis set group =>   3
Atom  17H    basis set group =>   3
Atom  18H    basis set group =>   3
Atom  19H    basis set group =>   3
Atom  20H    basis set group =>   3
Atom  21H    basis set group =>   3
Atom  22H    basis set group =>   3
-------------------------
ECP PARAMETER INFORMATION
-------------------------

 Group 1, Type C  ECP vDZP-ECP (replacing 2 core electrons, lmax=3)
 Group 2, Type O  ECP vDZP-ECP (replacing 2 core electrons, lmax=3)

Atom   0C    ECP group =>   1
Atom   1O    ECP group =>   2
Atom   2C    ECP group =>   1
Atom   3C    ECP group =>   1
Atom   4C    ECP group =>   1
Atom   5C    ECP group =>   1
Atom   6C    ECP group =>   1
Atom   7C    ECP group =>   1
Atom   8C    ECP group =>   1
Atom   9C    ECP group =>   1
Atom  10C    ECP group =>   1



           ************************************************************
           *        Program running with 40 parallel MPI-processes    *
           *              working on a common directory               *
           ************************************************************
------------------------------------------------------------------------------
                             ORCA STARTUP CALCULATIONS
                           -- RI-GTO INTEGRALS CHOSEN --
------------------------------------------------------------------------------
------------------------------------------------------------------------------
                   ___                                                        
                  /   \      - P O W E R E D   B Y -                         
                 /     \                                                     
                 |  |  |   _    _      __       _____    __    __             
                 |  |  |  | |  | |    /  \     |  _  \  |  |  /  |          
                  \  \/   | |  | |   /    \    | | | |  |  | /  /          
                 / \  \   | |__| |  /  /\  \   | |_| |  |  |/  /          
                |  |  |   |  __  | /  /__\  \  |    /   |      \           
                |  |  |   | |  | | |   __   |  |    \   |  |\   \          
                \     /   | |  | | |  |  |  |  | |\  \  |  | \   \       
                 \___/    |_|  |_| |__|  |__|  |_| \__\ |__|  \__/        
                                                                              
                      - O R C A' S   B I G   F R I E N D -                    
                                      &                                       
                       - I N T E G R A L  F E E D E R -                       
                                                                              
 v1 FN, 2020, v2 2021, v3 2022-2024                                           
------------------------------------------------------------------------------


----------------------
SHARK INTEGRAL PACKAGE
----------------------

Number of atoms                             ...     23
Number of basis functions                   ...    203
Number of shells                            ...     91
Maximum angular momentum                    ...      2
Integral batch strategy                     ... SHARK/LIBINT Hybrid
RI-J (if used) integral strategy            ... SPLIT-RIJ (Revised 2003 algorithm where possible)
Printlevel                                  ...      1
Contraction scheme used                     ... SEGMENTED contraction
Prescreening option                         ... SCHWARTZ
   Thresh                                   ... 2.500e-11
   Tcut                                     ... 2.500e-12
   Tpresel                                  ... 2.500e-12 
Coulomb Range Separation                    ... NOT USED
Exchange Range Separation                   ... Long Range
   Mu parameter                             ... 3.000e-01
   Scaling (regular/separated)              ... 1.670e-01 8.330e-01
Multipole approximations                    ... NOT USED
Finite Nucleus Model                        ... NOT USED
CABS basis                                  ... NOT available
Auxiliary Coulomb fitting basis             ... AVAILABLE
   # of basis functions in Aux-J            ...    671
   # of shells in Aux-J                     ...    225
   Maximum angular momentum in Aux-J        ...      4
Auxiliary J/K fitting basis                 ... NOT available
Auxiliary Correlation fitting basis         ... NOT available
Auxiliary 'external' fitting basis          ... NOT available

Checking pre-screening integrals            ... done (  0.0 sec) Dimension = 91
Check shell pair data                       ... done (  0.0 sec)
Shell pair information
Shell pair cut-off parameter TPreSel        ...   2.5e-12
Total number of shell pairs                 ...      4186
Shell pairs after pre-screening             ...      4117
Total number of primitive shell pairs       ...     38008
Primitive shell pairs kept                  ...     29706
          la=0 lb=0:   1074 shell pairs
          la=1 lb=0:   1537 shell pairs
          la=1 lb=1:    570 shell pairs
          la=2 lb=0:    502 shell pairs
          la=2 lb=1:    368 shell pairs
          la=2 lb=2:     66 shell pairs

Calculating one electron integrals          ... done (  0.0 sec)
Calculating ECP integrals                   ... done (  0.1 sec)
Calculating RI/J V-Matrix + Cholesky decomp.... done (  0.0 sec)
Calculating Nuclear repulsion               ... done (  0.0 sec) ENN=    292.738442200438 Eh

Diagonalization of the overlap matrix:
Smallest eigenvalue                        ... 3.802e-04
Time for diagonalization                   ...    0.006 sec
Threshold for overlap eigenvalues          ... 1.000e-07
Number of eigenvalues below threshold      ... 0
Time for construction of square roots      ...    0.004 sec
Total time needed                          ...    0.045 sec

-------------------
DFT GRID GENERATION
-------------------

General Integration Accuracy     IntAcc      ... 4.388
Radial Grid Type                 RadialGrid  ... OptM3 with GC (2021)
Angular Grid (max. ang.)         AngularGrid ... 4 (Lebedev-302)
Angular grid pruning method      GridPruning ... 4 (adaptive)
Weight generation scheme         WeightScheme... mBecke (2022)
Basis function cutoff            BFCut       ... 1.0000e-11
Integration weight cutoff        WCut        ... 1.0000e-14
Partially contracted basis set               ... off
Rotationally invariant grid construction     ... off
Angular grids for H and He will be reduced by one unit

Total number of grid points                  ...   104717
Total number of batches                      ...     1649
Average number of points per batch           ...       63
Average number of grid points per atom       ...     4553

--------------------
COSX GRID GENERATION
--------------------

GRIDX 1
-------
General Integration Accuracy     IntAcc      ... 3.816
Radial Grid Type                 RadialGrid  ... OptM3 with GC (2021)
Angular Grid (max. ang.)         AngularGrid ... 1 (Lebedev-50)
Angular grid pruning method      GridPruning ... 4 (adaptive)
Weight generation scheme         WeightScheme... mBecke (2022)
Basis function cutoff            BFCut       ... 1.0000e-11
Integration weight cutoff        WCut        ... 1.0000e-14
Partially contracted basis set               ... on
Rotationally invariant grid construction     ... off
Angular grids for H and He will be reduced by one unit

Total number of grid points                  ...    13371
Total number of batches                      ...      118
Average number of points per batch           ...      113
Average number of grid points per atom       ...      581
UseSFitting                                  ... on

GRIDX 2
-------
General Integration Accuracy     IntAcc      ... 4.020
Radial Grid Type                 RadialGrid  ... OptM3 with GC (2021)
Angular Grid (max. ang.)         AngularGrid ... 2 (Lebedev-110)
Angular grid pruning method      GridPruning ... 4 (adaptive)
Weight generation scheme         WeightScheme... mBecke (2022)
Basis function cutoff            BFCut       ... 1.0000e-11
Integration weight cutoff        WCut        ... 1.0000e-14
Partially contracted basis set               ... on
Rotationally invariant grid construction     ... off
Angular grids for H and He will be reduced by one unit

Total number of grid points                  ...    28718
Total number of batches                      ...      237
Average number of points per batch           ...      121
Average number of grid points per atom       ...     1249
UseSFitting                                  ... on

GRIDX 3
-------
General Integration Accuracy     IntAcc      ... 4.338
Radial Grid Type                 RadialGrid  ... OptM3 with GC (2021)
Angular Grid (max. ang.)         AngularGrid ... 3 (Lebedev-194)
Angular grid pruning method      GridPruning ... 4 (adaptive)
Weight generation scheme         WeightScheme... mBecke (2022)
Basis function cutoff            BFCut       ... 1.0000e-11
Integration weight cutoff        WCut        ... 1.0000e-14
Partially contracted basis set               ... on
Rotationally invariant grid construction     ... off
Angular grids for H and He will be reduced by one unit

Total number of grid points                  ...    62893
Total number of batches                      ...      504
Average number of points per batch           ...      124
Average number of grid points per atom       ...     2734
UseSFitting                                  ... on
Initializing property integral containers    ... done (  0.0 sec)

SHARK setup successfully completed in   3.5 seconds

Maximum memory used throughout the entire STARTUP-calculation: 30.1 MB


           ************************************************************
           *        Program running with 40 parallel MPI-processes    *
           *              working on a common directory               *
           ************************************************************
-------------------------------------------------------------------------------
                                 ORCA GUESS
                   Start orbitals & Density for SCF / CASSCF
-------------------------------------------------------------------------------

------------
SCF SETTINGS
------------
Hamiltonian:
 Density Functional     Method          .... DFT(GTOs)
 Exchange Functional    Exchange        .... WB97X-V
 Correlation Functional Correlation     .... WB97X-V
 Gradients option       PostSCFGGA      .... off
 Hybrid DFT is turned on
   Fraction HF Exchange ScalHFX         ....  0.167000
   Scaling of DF-GGA-X  ScalDFX         ....  0.000000
   Scaling of DF-GGA-C  ScalDFC         ....  1.000000
   Scaling of DF-LDA-C  ScalLDAC        ....  1.000000
   Perturbative correction              ....  0.000000
 Long-range corrected/Screened/Range-Separated Hybrid DFT is turned on
   Amount of maximum screened exact exchange              ....  0.833000
   Range separation parameter mu (erf(mu*r12)/r12)        ....  0.300000
   NL short-range parameter             ....  6.000000
   NL long-range parameter              ....  0.010000
 RI-approximation to the Coulomb term is turned on
   Number of AuxJ basis functions       .... 671
   RIJ-COSX (HFX calculated with COS-X)).... on


General Settings:
 Integral files         IntName         .... ./output/estragole/estragole
 Hartree-Fock type      HFTyp           .... RHF
 Total Charge           Charge          ....    0
 Multiplicity           Mult            ....    1
 Number of Electrons    NEL             ....   58
 Basis Dimension        Dim             ....  203
 Nuclear Repulsion      ENuc            ....    292.7384422004 Eh

Convergence Acceleration:
 AO-DIIS                CNVDIIS         .... on
   Start iteration      DIISMaxIt       ....    12
   Startup error        DIISStart       ....  0.200000
   # of expansion vecs  DIISMaxEq       ....     5
   Bias factor          DIISBfac        ....   1.050
   Max. coefficient     DIISMaxC        ....  10.000
 MO-DIIS                CNVKDIIS        .... off
 Trust-Rad. Augm. Hess. CNVTRAH         .... auto
   Auto Start mean grad. ratio tolernc. ....  1.125000
   Auto Start start iteration           ....    50
   Auto Start num. interpolation iter.  ....    10
   Max. Number of Micro iterations      ....    24
   Max. Number of Macro iterations      .... Maxiter - #DIIS iter
   Number of Davidson start vectors     ....     2
   Converg. threshold    (grad. norm)   ....   1.000e-05
   Grad. Scal. Fac. for Micro threshold ....   0.100
   Minimum threshold for Micro iter.    ....   1.000e-02
   NR start threshold (gradient norm)   ....   1.000e-04
   Initial trust radius                 ....   0.400
   Minimum AH scaling param. (alpha)    ....   1.000
   Maximum AH scaling param. (alpha)    .... 1000.000
   Quad. conv. algorithm                .... NR
   White noise on init. David. guess    .... on
   Maximum white noise                  ....   0.010
   Pseudo random numbers                .... off
   Inactive MOs                         .... canonical
   Orbital update algorithm             .... Taylor
   Preconditioner                       .... Diag
   Full preconditioner red. dimension   ....   250
 SOSCF                  CNVSOSCF        .... on
   Start iteration      SOSCFMaxIt      ....   150
   Startup grad/error   SOSCFStart      ....  0.003300
   Hessian update       SOSCFHessUp     .... L-BFGS
 Level Shifting         CNVShift        .... on
   Level shift para.    LevelShift      ....    0.2500
   Turn off err/grad.   ShiftErr        ....    0.0010
 Zerner damping         CNVZerner       .... off
 Static damping         CNVDamp         .... on
   Fraction old density DampFac         ....    0.7000
   Max. Damping (<1)    DampMax         ....    0.9800
   Min. Damping (>=0)   DampMin         ....    0.0000
   Turn off err/grad.   DampErr         ....    0.1000

SCF Procedure:
 Maximum # iterations   MaxIter         ....   125
 SCF integral mode      SCFMode         .... Direct
   Integral package                     .... SHARK and LIBINT hybrid scheme
 Reset frequency        DirectResetFreq ....    20
 Integral Threshold     Thresh          ....  2.500e-11 Eh
 Primitive CutOff       TCut            ....  2.500e-12 Eh

Convergence Tolerance:
 Convergence Check Mode ConvCheckMode   .... Total+1el-Energy
 Convergence forced     ConvForced      .... 0
 Energy Change          TolE            ....  1.000e-08 Eh
 1-El. energy change                    ....  1.000e-05 Eh
 Orbital Gradient       TolG            ....  1.000e-05
 Orbital Rotation angle TolX            ....  1.000e-05
 DIIS Error             TolErr          ....  5.000e-07

------------------------------
INITIAL GUESS: MODEL POTENTIAL
------------------------------
Loading Hartree-Fock densities                     ... done
Atomic calculation to generate a density for atom 0 (C  with ECP)
  Multiplicity assumed   :    1
  Atomic configuration   : 1s2 2s2 2p2 
  Number of open shells  : 1
  Command: /home/aspe232/Project/Software/ORCA/6_0_1/build/orca ./output/estragole/estragole_atom6.inp "" > ./output/estragole/estragole_atom6.out
Returned from the atomic calculation with res=0
Atomic calculation to generate a density for atom 1 (O  with ECP)
  Multiplicity assumed   :    3
  Atomic configuration   : 1s2 2s2 2p4 
  Number of open shells  : 1
  Command: /home/aspe232/Project/Software/ORCA/6_0_1/build/orca ./output/estragole/estragole_atom8.inp "" > ./output/estragole/estragole_atom8.out
Returned from the atomic calculation with res=0
Calculating cut-offs                               ... done
Initializing the effective Hamiltonian             ... done
Setting up the integral package (SHARK)            ... done
Starting the Coulomb interaction                   ... done (   0.0 sec)
Making the grid                                    ... done (   0.8 sec)
Mapping shells                                     ... done
Starting the XC term evaluation                    ... done (   0.0 sec)
  promolecular density results
     # of electrons  =     79.989533549
     EX              =    -42.089568471
     EC              =     -3.250686095
     EX+EC           =    -45.340254566
Transforming the Hamiltonian                       ... done (   0.1 sec)
Diagonalizing the Hamiltonian                      ... done (   0.0 sec)
Back transforming the eigenvectors                 ... done (   0.0 sec)
Now organizing SCF variables                       ... done
                      ------------------
                      INITIAL GUESS DONE (   2.3 sec)
                      ------------------
             **** ENERGY FILE WAS UPDATED (./output/estragole/estragole.en.tmp) ****
Finished Guess after   2.8 sec
Maximum memory used throughout the entire GUESS-calculation: 18.3 MB


           ************************************************************
           *        Program running with 40 parallel MPI-processes    *
           *              working on a common directory               *
           ************************************************************

-------------------------------------------------------------------------------------------
                                      ORCA LEAN-SCF
                              memory conserving SCF solver
-------------------------------------------------------------------------------------------

----------------------------------------D-I-I-S--------------------------------------------
Iteration    Energy (Eh)           Delta-E    RMSDP     MaxDP     DIISErr   Damp  Time(sec)
-------------------------------------------------------------------------------------------
               ***  Starting incremental Fock matrix formation  ***
    1    -79.8183103505464828     0.00e+00  4.00e-03  6.84e-02  1.83e-01  0.700   3.4
    2    -79.9560984522574927    -1.38e-01  3.00e-03  5.14e-02  1.14e-01  0.700   3.0
                               ***Turning on AO-DIIS***
    3    -80.0314211819666070    -7.53e-02  1.66e-03  2.87e-02  6.14e-02  0.700   2.8
    4    -80.0763703973336760    -4.49e-02  3.61e-03  6.10e-02  3.97e-02  0.000   2.9
                              *** Initializing SOSCF ***
---------------------------------------S-O-S-C-F--------------------------------------
Iteration    Energy (Eh)           Delta-E    RMSDP     MaxDP     MaxGrad    Time(sec)
--------------------------------------------------------------------------------------
    5    -80.1708653531629238    -9.45e-02  2.32e-04  3.46e-03  3.20e-03     3.0
               *** Restarting incremental Fock matrix formation ***
    6    -80.1711040496488181    -2.39e-04  1.52e-04  2.68e-03  9.67e-04     3.4
    7    -80.1711420461641637    -3.80e-05  7.97e-05  1.56e-03  9.18e-04     3.8
    8    -80.1711604952193966    -1.84e-05  2.05e-05  2.87e-04  1.68e-04     3.2
    9    -80.1711612258109767    -7.31e-07  9.16e-06  1.38e-04  4.77e-05     3.3
   10    -80.1711614277836020    -2.02e-07  2.68e-06  4.65e-05  2.15e-05     3.1
   11    -80.1711614441435927    -1.64e-08  1.22e-06  3.11e-05  8.02e-06     3.1
   12    -80.1711614509947026    -6.85e-09  4.06e-07  1.44e-05  3.61e-06     2.9
                 **** Energy Check signals convergence ****

               *****************************************************
               *                     SUCCESS                       *
               *           SCF CONVERGED AFTER  12 CYCLES          *
               *****************************************************

Recomputing exchange energy using gridx3       ... done (    2.865 sec)
Old exchange energy                            :    -11.150353905 Eh
New exchange energy                            :    -11.150337339 Eh
Exchange energy change after final integration :      0.000016566 Eh
Total energy after final integration           :    -80.171144885 Eh
             **** ENERGY FILE WAS UPDATED (./output/estragole/estragole.en.tmp) ****

----------------
TOTAL SCF ENERGY
----------------

Total Energy       :        -80.17114488478836 Eh           -2181.56776 eV

Components:
Nuclear Repulsion  :        292.73844220043804 Eh            7965.81799 eV
Electronic Energy  :       -372.90960365143275 Eh          -10147.38620 eV
One Electron Energy:       -701.51146033968212 Eh          -19089.09731 eV
Two Electron Energy:        328.60185668824937 Eh            8941.71111 eV

Virial components:
Potential Energy   :       -142.13414530827646 Eh           -3867.66672 eV
Kinetic Energy     :         61.96300042348808 Eh            1686.09896 eV
Virial Ratio       :          2.29385511251644

DFT components:
N(Alpha)           :       28.999972473667 electrons
N(Beta)            :       28.999972473667 electrons
N(Total)           :       57.999944947333 electrons
E(X)               :      -11.975557741287 Eh       
E(C)               :       -2.195350157019 Eh       
E(XC)              :      -14.170907898305 Eh       

---------------
SCF CONVERGENCE
---------------

  Last Energy change         ...    6.8511e-09  Tolerance :   1.0000e-08
  Last MAX-Density change    ...    1.4407e-05  Tolerance :   1.0000e-07
  Last RMS-Density change    ...    4.0614e-07  Tolerance :   5.0000e-09
  Last DIIS Error            ...    3.2029e-03  Tolerance :   5.0000e-07
  Last Orbital Gradient      ...    3.6066e-06  Tolerance :   1.0000e-05
  Last Orbital Rotation      ...    1.1789e-05  Tolerance :   1.0000e-05


----------------
ORBITAL ENERGIES
----------------

  NO   OCC          E(Eh)            E(eV) 
   0   2.0000      -1.171025       -31.8652 
   1   2.0000      -1.000724       -27.2311 
   2   2.0000      -0.942623       -25.6501 
   3   2.0000      -0.891373       -24.2555 
   4   2.0000      -0.885154       -24.0863 
   5   2.0000      -0.838703       -22.8223 
   6   2.0000      -0.793389       -21.5892 
   7   2.0000      -0.743174       -20.2228 
   8   2.0000      -0.711017       -19.3478 
   9   2.0000      -0.676807       -18.4168 
  10   2.0000      -0.646158       -17.5828 
  11   2.0000      -0.606041       -16.4912 
  12   2.0000      -0.587000       -15.9731 
  13   2.0000      -0.583001       -15.8643 
  14   2.0000      -0.580211       -15.7883 
  15   2.0000      -0.559513       -15.2251 
  16   2.0000      -0.545200       -14.8357 
  17   2.0000      -0.537686       -14.6312 
  18   2.0000      -0.524257       -14.2658 
  19   2.0000      -0.496693       -13.5157 
  20   2.0000      -0.486843       -13.2477 
  21   2.0000      -0.476531       -12.9671 
  22   2.0000      -0.458929       -12.4881 
  23   2.0000      -0.448662       -12.2087 
  24   2.0000      -0.425701       -11.5839 
  25   2.0000      -0.420894       -11.4531 
  26   2.0000      -0.361137        -9.8270 
  27   2.0000      -0.350528        -9.5384 
  28   2.0000      -0.308247        -8.3878 
  29   0.0000       0.058244         1.5849 
  30   0.0000       0.069595         1.8938 
  31   0.0000       0.086014         2.3405 
  32   0.0000       0.091602         2.4926 
  33   0.0000       0.096599         2.6286 
  34   0.0000       0.103975         2.8293 
  35   0.0000       0.117648         3.2014 
  36   0.0000       0.122549         3.3347 
  37   0.0000       0.127249         3.4626 
  38   0.0000       0.144266         3.9257 
  39   0.0000       0.148343         4.0366 
*Only the first 10 virtual orbitals were printed.

                    ********************************
                    * MULLIKEN POPULATION ANALYSIS *
                    ********************************

-----------------------
MULLIKEN ATOMIC CHARGES
-----------------------
   0 C :    0.071514
   1 O :   -0.343423
   2 C :    0.092310
   3 C :   -0.029160
   4 C :    0.013333
   5 C :   -0.063323
   6 C :   -0.000064
   7 C :    0.017679
   8 C :   -0.086486
   9 C :   -0.038111
  10 C :   -0.027085
  11 H :    0.045128
  12 H :    0.045225
  13 H :    0.064232
  14 H :    0.012948
  15 H :    0.012003
  16 H :    0.015329
  17 H :    0.020069
  18 H :    0.054325
  19 H :    0.057849
  20 H :    0.015662
  21 H :    0.030730
  22 H :    0.019317
Sum of atomic charges:    0.0000000

--------------------------------
MULLIKEN REDUCED ORBITAL CHARGES
--------------------------------
  0 C s       :     0.984704  s :     0.984704
      pz      :     0.916573  p :     2.828085
      px      :     0.890043
      py      :     1.021469
      dz2     :     0.037858  d :     0.115698
      dxz     :     0.019397
      dyz     :     0.011177
      dx2y2   :     0.019458
      dxy     :     0.027807

  1 O s       :     1.709694  s :     1.709694
      pz      :     1.655383  p :     4.596005
      px      :     1.262809
      py      :     1.677813
      dz2     :     0.006205  d :     0.037724
      dxz     :     0.007815
      dyz     :     0.005373
      dx2y2   :     0.006486
      dxy     :     0.011846

  2 C s       :     1.061038  s :     1.061038
      pz      :     0.977235  p :     2.679192
      px      :     0.748118
      py      :     0.953840
      dz2     :     0.026263  d :     0.167459
      dxz     :     0.035565
      dyz     :     0.021440
      dx2y2   :     0.043212
      dxy     :     0.040981

  3 C s       :     0.991838  s :     0.991838
      pz      :     0.998358  p :     2.948381
      px      :     0.983166
      py      :     0.966857
      dz2     :     0.010158  d :     0.088941
      dxz     :     0.020816
      dyz     :     0.013587
      dx2y2   :     0.022715
      dxy     :     0.021664

  4 C s       :     1.006633  s :     1.006633
      pz      :     0.962654  p :     2.885409
      px      :     0.949472
      py      :     0.973282
      dz2     :     0.014840  d :     0.094626
      dxz     :     0.020411
      dyz     :     0.013631
      dx2y2   :     0.024228
      dxy     :     0.021515

  5 C s       :     1.042416  s :     1.042416
      pz      :     0.991061  p :     2.901085
      px      :     0.938376
      py      :     0.971648
      dz2     :     0.021728  d :     0.119822
      dxz     :     0.022929
      dyz     :     0.016635
      dx2y2   :     0.030180
      dxy     :     0.028350

  6 C s       :     1.005166  s :     1.005166
      pz      :     0.981439  p :     2.899863
      px      :     0.962240
      py      :     0.956185
      dz2     :     0.010574  d :     0.095035
      dxz     :     0.021245
      dyz     :     0.014751
      dx2y2   :     0.023579
      dxy     :     0.024885

  7 C s       :     0.999967  s :     0.999967
      pz      :     0.965232  p :     2.894674
      px      :     0.948118
      py      :     0.981324
      dz2     :     0.014244  d :     0.087680
      dxz     :     0.019399
      dyz     :     0.011810
      dx2y2   :     0.020511
      dxy     :     0.021716

  8 C s       :     0.975362  s :     0.975362
      pz      :     1.012312  p :     3.009772
      px      :     0.941649
      py      :     1.055810
      dz2     :     0.023256  d :     0.101352
      dxz     :     0.024897
      dyz     :     0.010615
      dx2y2   :     0.027863
      dxy     :     0.014720

  9 C s       :     1.061896  s :     1.061896
      pz      :     0.947470  p :     2.881282
      px      :     0.942135
      py      :     0.991677
      dz2     :     0.014061  d :     0.094933
      dxz     :     0.010293
      dyz     :     0.030801
      dx2y2   :     0.019497
      dxy     :     0.020281

 10 C s       :     1.008914  s :     1.008914
      pz      :     0.991894  p :     2.953208
      px      :     0.975861
      py      :     0.985452
      dz2     :     0.005060  d :     0.064963
      dxz     :     0.008098
      dyz     :     0.023667
      dx2y2   :     0.012992
      dxy     :     0.015147

 11 H s       :     0.914172  s :     0.914172
      pz      :     0.009756  p :     0.040700
      px      :     0.008885
      py      :     0.022059

 12 H s       :     0.914067  s :     0.914067
      pz      :     0.021829  p :     0.040708
      px      :     0.008983
      py      :     0.009896

 13 H s       :     0.895375  s :     0.895375
      pz      :     0.008415  p :     0.040392
      px      :     0.017537
      py      :     0.014440

 14 H s       :     0.934364  s :     0.934364
      pz      :     0.020038  p :     0.052688
      px      :     0.017244
      py      :     0.015406

 15 H s       :     0.937916  s :     0.937916
      pz      :     0.016104  p :     0.050081
      px      :     0.011575
      py      :     0.022402

 16 H s       :     0.934759  s :     0.934759
      pz      :     0.019171  p :     0.049912
      px      :     0.016362
      py      :     0.014378

 17 H s       :     0.929305  s :     0.929305
      pz      :     0.015998  p :     0.050626
      px      :     0.011671
      py      :     0.022957

 18 H s       :     0.902433  s :     0.902433
      pz      :     0.009514  p :     0.043242
      px      :     0.010219
      py      :     0.023509

 19 H s       :     0.898909  s :     0.898909
      pz      :     0.020736  p :     0.043242
      px      :     0.012012
      py      :     0.010494

 20 H s       :     0.936365  s :     0.936365
      pz      :     0.017572  p :     0.047973
      px      :     0.013295
      py      :     0.017106

 21 H s       :     0.918877  s :     0.918877
      pz      :     0.020559  p :     0.050393
      px      :     0.019017
      py      :     0.010817

 22 H s       :     0.930257  s :     0.930257
      pz      :     0.017900  p :     0.050426
      px      :     0.014094
      py      :     0.018432



                     *******************************
                     * LOEWDIN POPULATION ANALYSIS *
                     *******************************

----------------------
LOEWDIN ATOMIC CHARGES
----------------------
   0 C :   -0.061344
   1 O :   -0.077157
   2 C :   -0.013185
   3 C :   -0.054028
   4 C :   -0.031881
   5 C :   -0.044803
   6 C :   -0.035469
   7 C :   -0.033686
   8 C :   -0.093434
   9 C :   -0.046981
  10 C :   -0.068044
  11 H :    0.045403
  12 H :    0.045499
  13 H :    0.064079
  14 H :    0.039135
  15 H :    0.045378
  16 H :    0.043846
  17 H :    0.048704
  18 H :    0.057999
  19 H :    0.061876
  20 H :    0.037610
  21 H :    0.036136
  22 H :    0.034347

-------------------------------
LOEWDIN REDUCED ORBITAL CHARGES
-------------------------------
  0 C s       :     0.785032  s :     0.785032
      pz      :     0.962628  p :     2.928156
      px      :     0.917802
      py      :     1.047726
      dz2     :     0.110833  d :     0.348155
      dxz     :     0.059930
      dyz     :     0.035950
      dx2y2   :     0.054831
      dxy     :     0.086611

  1 O s       :     1.393176  s :     1.393176
      pz      :     1.614279  p :     4.582703
      px      :     1.323779
      py      :     1.644646
      dz2     :     0.016820  d :     0.101277
      dxz     :     0.023395
      dyz     :     0.010616
      dx2y2   :     0.022243
      dxy     :     0.028203

  2 C s       :     0.775275  s :     0.775275
      pz      :     0.953214  p :     2.747854
      px      :     0.824541
      py      :     0.970098
      dz2     :     0.076137  d :     0.490056
      dxz     :     0.096800
      dyz     :     0.066685
      dx2y2   :     0.121582
      dxy     :     0.128852

  3 C s       :     0.798264  s :     0.798264
      pz      :     0.971590  p :     2.967611
      px      :     1.012771
      py      :     0.983250
      dz2     :     0.029080  d :     0.288153
      dxz     :     0.065367
      dyz     :     0.046683
      dx2y2   :     0.070690
      dxy     :     0.076333

  4 C s       :     0.797257  s :     0.797257
      pz      :     0.946701  p :     2.931512
      px      :     0.994215
      py      :     0.990597
      dz2     :     0.041929  d :     0.303112
      dxz     :     0.068914
      dyz     :     0.044788
      dx2y2   :     0.079527
      dxy     :     0.067953

  5 C s       :     0.781921  s :     0.781921
      pz      :     0.947574  p :     2.885462
      px      :     0.958002
      py      :     0.979886
      dz2     :     0.061852  d :     0.377420
      dxz     :     0.072906
      dyz     :     0.058081
      dx2y2   :     0.094732
      dxy     :     0.089848

  6 C s       :     0.797840  s :     0.797840
      pz      :     0.949638  p :     2.934930
      px      :     1.004011
      py      :     0.981281
      dz2     :     0.031178  d :     0.302699
      dxz     :     0.066032
      dyz     :     0.048007
      dx2y2   :     0.071987
      dxy     :     0.085495

  7 C s       :     0.799165  s :     0.799165
      pz      :     0.951963  p :     2.947515
      px      :     0.996777
      py      :     0.998776
      dz2     :     0.039897  d :     0.287006
      dxz     :     0.065279
      dyz     :     0.041625
      dx2y2   :     0.070774
      dxy     :     0.069430

  8 C s       :     0.758240  s :     0.758240
      pz      :     1.016264  p :     3.021519
      px      :     0.966681
      py      :     1.038574
      dz2     :     0.073896  d :     0.313675
      dxz     :     0.076445
      dyz     :     0.031631
      dx2y2   :     0.085857
      dxy     :     0.045846

  9 C s       :     0.815558  s :     0.815558
      pz      :     0.954872  p :     2.924123
      px      :     0.909413
      py      :     1.059838
      dz2     :     0.047636  d :     0.307300
      dxz     :     0.033579
      dyz     :     0.099746
      dx2y2   :     0.064210
      dxy     :     0.062130

 10 C s       :     0.832949  s :     0.832949
      pz      :     1.007388  p :     3.019198
      px      :     0.960047
      py      :     1.051762
      dz2     :     0.017669  d :     0.215897
      dxz     :     0.027411
      dyz     :     0.078049
      dx2y2   :     0.046284
      dxy     :     0.046483

 11 H s       :     0.815878  s :     0.815878
      pz      :     0.036161  p :     0.138719
      px      :     0.035824
      py      :     0.066734

 12 H s       :     0.815787  s :     0.815787
      pz      :     0.065257  p :     0.138714
      px      :     0.034878
      py      :     0.038580

 13 H s       :     0.802621  s :     0.802621
      pz      :     0.033802  p :     0.133300
      px      :     0.051627
      py      :     0.047872

 14 H s       :     0.804491  s :     0.804491
      pz      :     0.057687  p :     0.156374
      px      :     0.051786
      py      :     0.046901

 15 H s       :     0.806009  s :     0.806009
      pz      :     0.047560  p :     0.148613
      px      :     0.038171
      py      :     0.062883

 16 H s       :     0.806890  s :     0.806890
      pz      :     0.054895  p :     0.149264
      px      :     0.049922
      py      :     0.044447

 17 H s       :     0.801335  s :     0.801335
      pz      :     0.047958  p :     0.149961
      px      :     0.038103
      py      :     0.063900

 18 H s       :     0.797806  s :     0.797806
      pz      :     0.038781  p :     0.144194
      px      :     0.037462
      py      :     0.067951

 19 H s       :     0.795471  s :     0.795471
      pz      :     0.061259  p :     0.142653
      px      :     0.040111
      py      :     0.041284

 20 H s       :     0.811024  s :     0.811024
      pz      :     0.054947  p :     0.151366
      px      :     0.044382
      py      :     0.052036

 21 H s       :     0.811254  s :     0.811254
      pz      :     0.059142  p :     0.152610
      px      :     0.055215
      py      :     0.038253

 22 H s       :     0.815984  s :     0.815984
      pz      :     0.053818  p :     0.149669
      px      :     0.043980
      py      :     0.051871



                      *****************************
                      * MAYER POPULATION ANALYSIS *
                      *****************************

  NA   - Mulliken gross atomic population
  ZA   - Total nuclear charge
  QA   - Mulliken gross atomic charge
  VA   - Mayer's total valence
  BVA  - Mayer's bonded valence
  FA   - Mayer's free valence

  ATOM       NA         ZA         QA         VA         BVA        FA
  0 C      3.9285     4.0000     0.0715     3.9482     3.9482     0.0000
  1 O      6.3434     6.0000    -0.3434     1.9992     1.9992    -0.0000
  2 C      3.9077     4.0000     0.0923     4.1278     4.1278     0.0000
  3 C      4.0292     4.0000    -0.0292     4.0502     4.0502     0.0000
  4 C      3.9867     4.0000     0.0133     4.0789     4.0789     0.0000
  5 C      4.0633     4.0000    -0.0633     4.1134     4.1134     0.0000
  6 C      4.0001     4.0000    -0.0001     4.0658     4.0658     0.0000
  7 C      3.9823     4.0000     0.0177     4.0516     4.0516     0.0000
  8 C      4.0865     4.0000    -0.0865     3.9895     3.9895     0.0000
  9 C      4.0381     4.0000    -0.0381     4.0153     4.0153    -0.0000
 10 C      4.0271     4.0000    -0.0271     3.9862     3.9862    -0.0000
 11 H      0.9549     1.0000     0.0451     1.0166     1.0166     0.0000
 12 H      0.9548     1.0000     0.0452     1.0168     1.0168     0.0000
 13 H      0.9358     1.0000     0.0642     1.0268     1.0268     0.0000
 14 H      0.9871     1.0000     0.0129     1.0458     1.0458     0.0000
 15 H      0.9880     1.0000     0.0120     1.0443     1.0443     0.0000
 16 H      0.9847     1.0000     0.0153     1.0401     1.0401     0.0000
 17 H      0.9799     1.0000     0.0201     1.0587     1.0587     0.0000
 18 H      0.9457     1.0000     0.0543     1.0185     1.0185    -0.0000
 19 H      0.9422     1.0000     0.0578     1.0259     1.0259     0.0000
 20 H      0.9843     1.0000     0.0157     1.0458     1.0458    -0.0000
 21 H      0.9693     1.0000     0.0307     1.0380     1.0380    -0.0000
 22 H      0.9807     1.0000     0.0193     1.0410     1.0410    -0.0000

  Mayer bond orders larger than 0.100000
B(  0-C ,  1-O ) :   0.9313 B(  0-C , 11-H ) :   0.9914 B(  0-C , 12-H ) :   0.9915 
B(  0-C , 13-H ) :   1.0021 B(  1-O ,  2-C ) :   1.0357 B(  2-C ,  3-C ) :   1.4209 
B(  2-C ,  7-C ) :   1.4323 B(  3-C ,  4-C ) :   1.4584 B(  3-C , 14-H ) :   0.9862 
B(  4-C ,  5-C ) :   1.4449 B(  4-C , 15-H ) :   0.9869 B(  5-C ,  6-C ) :   1.4406 
B(  5-C ,  8-C ) :   1.0105 B(  6-C ,  7-C ) :   1.4575 B(  6-C , 16-H ) :   0.9881 
B(  7-C , 17-H ) :   0.9832 B(  8-C ,  9-C ) :   0.9955 B(  8-C , 18-H ) :   0.9935 
B(  8-C , 19-H ) :   0.9869 B(  9-C , 10-C ) :   1.9416 B(  9-C , 20-H ) :   1.0064 
B( 10-C , 21-H ) :   0.9988 B( 10-C , 22-H ) :   1.0015 

-------
TIMINGS
-------

Total SCF time: 0 days 0 hours 0 min 44 sec 

Total time                  ....      44.777 sec
Sum of individual times     ....      43.000 sec  ( 96.0%)

SCF preparation             ....       2.117 sec  (  4.7%)
Fock matrix formation       ....      39.533 sec  ( 88.3%)
  Startup                   ....       0.161 sec  (  0.4% of F)
  Split-RI-J                ....       1.362 sec  (  3.4% of F)
  Chain of spheres X        ....      17.834 sec  ( 45.1% of F)
  XC integration            ....      19.374 sec  ( 49.0% of F)
    XC Preparation          ....       0.000 sec  (  0.0% of XC)
    Basis function eval.    ....       0.428 sec  (  2.2% of XC)
    Density eval.           ....       0.165 sec  (  0.9% of XC)
    XC-Functional eval.     ....       0.157 sec  (  0.8% of XC)
    XC-Potential eval.      ....       0.216 sec  (  1.1% of XC)
Diagonalization             ....       0.000 sec  (  0.0%)
Density matrix formation    ....       0.199 sec  (  0.4%)
Total Energy calculation    ....       0.393 sec  (  0.9%)
Population analysis         ....       0.087 sec  (  0.2%)
Orbital Transformation      ....       0.060 sec  (  0.1%)
Orbital Orthonormalization  ....       0.000 sec  (  0.0%)
DIIS solution               ....       0.355 sec  (  0.8%)
SOSCF solution              ....       0.256 sec  (  0.6%)
Finished LeanSCF after  44.9 sec

Maximum memory used throughout the entire LEANSCF-calculation: 33.8 MB


           ************************************************************
           *        Program running with 40 parallel MPI-processes    *
           *              working on a common directory               *
           ************************************************************

------------------------------------------------------------------------------
                         ORCA PROPERTY INTEGRAL CALCULATIONS
------------------------------------------------------------------------------

GBWName                                   ... ./output/estragole/estragole.gbw
Number of atoms                           ...     23
Number of basis functions                 ...    203
Max core memory                           ...   1024 MB

Dipole integrals                          ... YES
Quadrupole integrals                      ...  NO
Linear momentum integrals                 ...  NO
Angular momentum integrals                ...  NO
Higher moments length integrals           ...  NO
Higher moments velocity integrals         ...  NO
Kinetic energy integrals                  ...  NO
GIAO right hand sides                     ...  NO
GIAO dipole derivative integrals          ...  NO
SOC integrals                             ...  NO
EPR diamagnetic integrals (GIAO)          ...  NO
EPR gauge integrals                       ...  NO
Field gradient integrals                  ...  NO (   0 nuclei)
Spin-dipole/Fermi contact integrals       ...  NO (   0 nuclei)
Contact density integrals                 ...  NO (   0 nuclei)
Nucleus-orbit integrals                   ...  NO (   0 nuclei)
Geometric perturbations                   ...  NO (  23 nuclei)

Choice of electric origin   ... Center of mass
Position of electric origin ... (  0.2889,  0.1556,  0.0774) 
Choice of magnetic origin   ... GIAO
Position of magnetic origin ... (  0.0000,  0.0000,  0.0000) 

Calculating integrals                     ... Electric Dipole (Length)     done (  0.1 sec)

Property integrals calculated in   0.1 sec

Maximum memory used throughout the entire PROPINT-calculation: 15.0 MB


-------------------------------------------------------------------------------
                          DFT DISPERSION CORRECTION                            
                                                                               
                                DFTD4 V3.4.0                                   
-------------------------------------------------------------------------------
The wB97X-3c composite method is recognized
Using three-body term ABC
Active option DFTDOPT                   ...         5   

-------------------------   ----------------
Dispersion correction           -0.027481051
-------------------------   ----------------


-------------------------   --------------------
FINAL SINGLE POINT ENERGY       -80.198625935659
-------------------------   --------------------



           ************************************************************
           *        Program running with 40 parallel MPI-processes    *
           *              working on a common directory               *
           ************************************************************
------------------------------------------------------------------------------
                         ORCA SCF GRADIENT CALCULATION
------------------------------------------------------------------------------

Nuc. rep. gradient        (SHARK) ... done (  0.0 sec)
HCore & Overlap gradient  (SHARK) ... done (  0.0 sec)
ECP gradient              (SHARK) ... done (  0.3 sec)
Split-RIJ-J gradient      (SHARK) ... done (  0.4 sec)
COSX-gradient                     ... done (  4.5 sec)
XC gradient                       ... done (  1.5 sec)
Dispersion correction             ... done (  0.1 sec)

-------------------
DISPERSION GRADIENT
-------------------

   1   C   :    0.000520745    0.000027522    0.000238295
   2   O   :    0.000380647    0.000242592    0.000016126
   3   C   :    0.000238493    0.000198368   -0.000032172
   4   C   :    0.000137417   -0.000380311    0.000309936
   5   C   :    0.000217003   -0.000537521    0.000296383
   6   C   :   -0.000017783   -0.000227841   -0.000208340
   7   C   :    0.000066451    0.000403235   -0.000524040
   8   C   :    0.000083620    0.000499618   -0.000364889
   9   C   :   -0.000370162   -0.000386082   -0.000270112
  10   C   :   -0.000594900   -0.000123073    0.000191181
  11   C   :   -0.000586975    0.000310082    0.000266317
  12   H   :    0.000146174    0.000017325    0.000024152
  13   H   :    0.000126311    0.000047202    0.000065026
  14   H   :    0.000063610    0.000015569    0.000021318
  15   H   :    0.000023782   -0.000127699    0.000109177
  16   H   :    0.000060837   -0.000166002    0.000112658
  17   H   :    0.000001857    0.000141064   -0.000169484
  18   H   :    0.000019466    0.000144201   -0.000090197
  19   H   :   -0.000080784   -0.000146269   -0.000070331
  20   H   :   -0.000097193   -0.000080713   -0.000125262
  21   H   :   -0.000114310   -0.000045432    0.000086182
  22   H   :   -0.000058174    0.000057531    0.000056135
  23   H   :   -0.000166134    0.000116635    0.000061941

Difference to translation invariance:
           :    0.0000000000    0.0000000000   -0.0000000000

Difference to rotation invariance:
           :   -0.0000000000   -0.0000000000    0.0000000000

Norm of the Dispersion gradient    ...    0.0019643705
RMS gradient                       ...    0.0002364824
MAX gradient                       ...    0.0005948995

------------------
CARTESIAN GRADIENT
------------------

   1   C   :    0.012333096    0.010765525   -0.001637675
   2   O   :    0.017013041   -0.001469227    0.009697798
   3   C   :   -0.018012357    0.008865167   -0.015498931
   4   C   :    0.004868232   -0.007998508    0.007283336
   5   C   :   -0.004979836   -0.019041364    0.012228306
   6   C   :   -0.007090545   -0.001373570    0.001680147
   7   C   :   -0.016049181    0.011182234   -0.015098739
   8   C   :    0.000687966    0.003886442   -0.003318664
   9   C   :    0.001441040    0.013961947    0.005601388
  10   C   :    0.010660788   -0.019751040    0.002563395
  11   C   :   -0.001272578    0.017455660   -0.003076192
  12   H   :    0.002732645   -0.010676489   -0.005724687
  13   H   :   -0.005539862    0.001320958    0.011033353
  14   H   :    0.016062263    0.005510422    0.003977836
  15   H   :   -0.001057366   -0.001924154    0.000960001
  16   H   :   -0.000100522   -0.000785437    0.001263271
  17   H   :   -0.000950649    0.001461226   -0.000337174
  18   H   :   -0.002041268    0.001341296   -0.001799350
  19   H   :    0.000628714   -0.013578830    0.001875987
  20   H   :   -0.006697147    0.003758766   -0.012633126
[...]
  6:     28.92   0.000067    0.34  0.000723  (-0.005513  0.009903  0.024388)
  7:     73.44   0.000177    0.89  0.000751  ( 0.003445 -0.014329 -0.023115)
  8:     82.60   0.000498    2.52  0.001882  (-0.013320  0.009784  0.040110)
  9:    125.42   0.000231    1.17  0.000574  (-0.006722  0.006735  0.021997)
 10:    210.34   0.000175    0.88  0.000259  ( 0.005713  0.013577  0.006491)
 11:    229.00   0.000225    1.14  0.000307  (-0.011040 -0.008649  0.010502)
 12:    266.48   0.000018    0.09  0.000022  (-0.001238  0.001068  0.004340)
 13:    340.27   0.000597    3.02  0.000547  (-0.011914 -0.013795 -0.014666)
 14:    371.34   0.000253    1.28  0.000213  ( 0.004626  0.006627 -0.012151)
 15:    410.62   0.000647    3.27  0.000492  (-0.020442  0.000796  0.008560)
 16:    434.92   0.000117    0.59  0.000084  ( 0.008658  0.000579 -0.002951)
 17:    466.05   0.000106    0.53  0.000071  ( 0.008334  0.001058  0.000474)
 18:    536.88   0.002700   13.65  0.001569  (-0.025564  0.006508  0.029556)
 19:    552.24   0.002101   10.62  0.001187  (-0.003203  0.006571  0.033673)
 20:    653.70   0.004762   24.07  0.002273  ( 0.025224  0.040394  0.002331)
 21:    664.22   0.000256    1.30  0.000120  ( 0.007768  0.006900  0.003534)
 22:    742.26   0.000306    1.54  0.000128  (-0.009428 -0.005125  0.003650)
 23:    798.01   0.001709    8.63  0.000668  (-0.019902  0.003341  0.016153)
 24:    840.82   0.002550   12.89  0.000946  (-0.003953  0.012906  0.027645)
 25:    860.09   0.005744   29.03  0.002084  (-0.004226  0.021052  0.040286)
 26:    882.56   0.004408   22.27  0.001558  ( 0.021131  0.003781 -0.033131)
 27:    934.62   0.002706   13.68  0.000904  (-0.025539 -0.011216 -0.011205)
 28:    963.28   0.008992   45.44  0.002913  (-0.032122 -0.042828  0.006867)
 29:    973.06   0.000332    1.68  0.000107  ( 0.000841 -0.008402  0.005939)
 30:    979.30   0.000417    2.11  0.000133  ( 0.000228 -0.009581  0.006407)
 31:   1006.67   0.000023    0.12  0.000007  (-0.000655 -0.000966 -0.002393)
 32:   1049.48   0.002683   13.56  0.000798  ( 0.017891  0.021568 -0.003522)
 33:   1053.93   0.001256    6.35  0.000372  ( 0.017194  0.008692  0.000766)
 34:   1123.62   0.009826   49.65  0.002729  ( 0.039525 -0.027536  0.020209)
 35:   1146.82   0.001422    7.19  0.000387  (-0.011980  0.014710 -0.005207)
 36:   1158.71   0.001783    9.01  0.000480  ( 0.009113  0.018459 -0.007509)
 37:   1205.09   0.000162    0.82  0.000042  ( 0.001513 -0.002086 -0.005946)
 38:   1223.46   0.003716   18.78  0.000948  ( 0.030255  0.001311  0.005543)
 39:   1233.64   0.001519    7.68  0.000384  (-0.017181  0.007070 -0.006261)
 40:   1257.81   0.000396    2.00  0.000098  ( 0.007035 -0.004591  0.005272)
 41:   1262.22   0.000076    0.39  0.000019  ( 0.004033  0.001600 -0.000238)
 42:   1319.14   0.032520  164.34  0.007693  ( 0.083980  0.019522  0.016103)
 43:   1341.62   0.002408   12.17  0.000560  (-0.023548 -0.000998 -0.002164)
 44:   1355.65   0.003000   15.16  0.000691  ( 0.024412 -0.004408  0.008676)
 45:   1362.07   0.019093   96.49  0.004374  (-0.064283 -0.011354 -0.010640)
 46:   1392.41   0.009272   46.86  0.002078  ( 0.044421 -0.001261  0.010155)
 47:   1477.27   0.001399    7.07  0.000296  ( 0.013526 -0.005906  0.008820)
 48:   1495.36   0.000584    2.95  0.000122  ( 0.010871  0.001579 -0.001108)
 49:   1507.57   0.001694    8.56  0.000351  ( 0.015298  0.010793  0.000384)
 50:   1511.12   0.002441   12.34  0.000504  (-0.012020 -0.013150 -0.013667)
 51:   1528.47   0.002263   11.44  0.000462  ( 0.005781 -0.006648 -0.019606)
 52:   1537.66   0.006940   35.07  0.001408  ( 0.035772  0.009971  0.005413)
 53:   1598.80   0.035679  180.31  0.006964  (-0.080213 -0.019477 -0.012276)
 54:   1692.84   0.003268   16.51  0.000602  ( 0.015794  0.018717 -0.001604)
 55:   1733.69   0.010224   51.67  0.001840  ( 0.041027  0.010530  0.006807)
 56:   1768.68   0.004316   21.81  0.000761  ( 0.025112 -0.010581  0.004343)
 57:   3087.75   0.010965   55.41  0.001108  (-0.029840  0.009865 -0.010975)
 58:   3104.64   0.004354   22.00  0.000438  (-0.006752 -0.017724 -0.008824)
 59:   3159.16   0.001130    5.71  0.000112  ( 0.002096 -0.005513  0.008766)
 60:   3173.53   0.005132   25.93  0.000505  (-0.005245  0.007241  0.020608)
 61:   3202.78   0.001952    9.86  0.000190  (-0.007956  0.001761 -0.011125)
 62:   3219.23   0.001031    5.21  0.000100  ( 0.003915 -0.000524 -0.009182)
 63:   3228.09   0.001838    9.29  0.000178  (-0.011039 -0.007470 -0.000121)
 64:   3242.99   0.001932    9.77  0.000186  ( 0.006006  0.012021 -0.002318)
 65:   3248.06   0.000925    4.68  0.000089  ( 0.007902 -0.003212  0.004017)
 66:   3275.19   0.000480    2.43  0.000046  (-0.002315 -0.005989  0.002130)
 67:   3288.87   0.000984    4.97  0.000093  ( 0.008370 -0.003717  0.003079)
 68:   3303.76   0.000987    4.99  0.000093  (-0.003746  0.003422  0.008214)

* The epsilon (eps) is given for a Dirac delta lineshape.
** The dipole moment derivative (T) already includes vibrational overlap.

The first frequency considered to be a vibration is 6
The total number of vibrations considered is 63


--------------------------
THERMOCHEMISTRY AT 298.15K
--------------------------

Temperature         ...   298.15 K
Pressure            ...     1.00 atm
Total Mass          ...   148.21 AMU
Quasi RRHO          ...     True
Cut-Off Frequency   ...     1.00 cm^-1

Throughout the following assumptions are being made:
  (1) The electronic state is orbitally nondegenerate
  (2) There are no thermally accessible electronically excited states
  (3) Hindered rotations indicated by low frequency modes are not
      treated as such but are treated as vibrations and this may
      cause some error
  (4) All equations used are the standard statistical mechanics
      equations for an ideal gas
  (5) All vibrations are strictly harmonic

freq.      28.92  E(vib)   ...       0.55 
freq.      73.44  E(vib)   ...       0.49 
freq.      82.60  E(vib)   ...       0.48 
freq.     125.42  E(vib)   ...       0.43 
freq.     210.34  E(vib)   ...       0.34 
freq.     229.00  E(vib)   ...       0.32 
freq.     266.48  E(vib)   ...       0.29 
freq.     340.27  E(vib)   ...       0.23 
freq.     371.34  E(vib)   ...       0.21 
freq.     410.62  E(vib)   ...       0.19 
freq.     434.92  E(vib)   ...       0.17 
freq.     466.05  E(vib)   ...       0.16 
freq.     536.88  E(vib)   ...       0.12 
freq.     552.24  E(vib)   ...       0.12 
freq.     653.70  E(vib)   ...       0.08 
freq.     664.22  E(vib)   ...       0.08 
freq.     742.26  E(vib)   ...       0.06 
freq.     798.01  E(vib)   ...       0.05 
freq.     840.82  E(vib)   ...       0.04 
freq.     860.09  E(vib)   ...       0.04 
freq.     882.56  E(vib)   ...       0.04 
freq.     934.62  E(vib)   ...       0.03 
freq.     963.28  E(vib)   ...       0.03 
freq.     973.06  E(vib)   ...       0.03 
freq.     979.30  E(vib)   ...       0.03 
freq.    1006.67  E(vib)   ...       0.02 
freq.    1049.48  E(vib)   ...       0.02 
freq.    1053.93  E(vib)   ...       0.02 
freq.    1123.62  E(vib)   ...       0.01 
freq.    1146.82  E(vib)   ...       0.01 
freq.    1158.71  E(vib)   ...       0.01 
freq.    1205.09  E(vib)   ...       0.01 
freq.    1223.46  E(vib)   ...       0.01 
freq.    1233.64  E(vib)   ...       0.01 
freq.    1257.81  E(vib)   ...       0.01 
freq.    1262.22  E(vib)   ...       0.01 
freq.    1319.14  E(vib)   ...       0.01 
freq.    1341.62  E(vib)   ...       0.01 
freq.    1355.65  E(vib)   ...       0.01 
freq.    1362.07  E(vib)   ...       0.01 
freq.    1392.41  E(vib)   ...       0.00 
freq.    1477.27  E(vib)   ...       0.00 
freq.    1495.36  E(vib)   ...       0.00 
freq.    1507.57  E(vib)   ...       0.00 
freq.    1511.12  E(vib)   ...       0.00 
freq.    1528.47  E(vib)   ...       0.00 
freq.    1537.66  E(vib)   ...       0.00 
freq.    1598.80  E(vib)   ...       0.00 
freq.    1692.84  E(vib)   ...       0.00 
freq.    1733.69  E(vib)   ...       0.00 
freq.    1768.68  E(vib)   ...       0.00 
freq.    3087.75  E(vib)   ...       0.00 
freq.    3104.64  E(vib)   ...       0.00 
freq.    3159.16  E(vib)   ...       0.00 
freq.    3173.53  E(vib)   ...       0.00 
freq.    3202.78  E(vib)   ...       0.00 
freq.    3219.23  E(vib)   ...       0.00 
freq.    3228.09  E(vib)   ...       0.00 
freq.    3242.99  E(vib)   ...       0.00 
freq.    3248.06  E(vib)   ...       0.00 
freq.    3275.19  E(vib)   ...       0.00 
freq.    3288.87  E(vib)   ...       0.00 
freq.    3303.76  E(vib)   ...       0.00 

------------
INNER ENERGY
------------

The inner energy is: U= E(el) + E(ZPE) + E(vib) + E(rot) + E(trans)
    E(el)   - is the total energy from the electronic structure calculation
              = E(kin-el) + E(nuc-el) + E(el-el) + E(nuc-nuc)
    E(ZPE)  - the the zero temperature vibrational energy from the frequency calculation
    E(vib)  - the the finite temperature correction to E(ZPE) due to population
              of excited vibrational states
    E(rot)  - is the rotational thermal energy
    E(trans)- is the translational thermal energy

Summary of contributions to the inner energy U:
Electronic energy                ...    -80.21275959 Eh
Zero point energy                ...      0.19888009 Eh     124.80 kcal/mol
Thermal vibrational correction   ...      0.00768035 Eh       4.82 kcal/mol
Thermal rotational correction    ...      0.00141627 Eh       0.89 kcal/mol
Thermal translational correction ...      0.00141627 Eh       0.89 kcal/mol
-----------------------------------------------------------------------
Total thermal energy                    -80.00336661 Eh


Summary of corrections to the electronic energy:
(perhaps to be used in another calculation)
Total thermal correction                  0.01051289 Eh       6.60 kcal/mol
Non-thermal (ZPE) correction              0.19888009 Eh     124.80 kcal/mol
-----------------------------------------------------------------------
Total correction                          0.20939298 Eh     131.40 kcal/mol


--------
ENTHALPY
--------

The enthalpy is H = U + kB*T
                kB is Boltzmann's constant
Total thermal energy              ...    -80.00336661 Eh 
Thermal Enthalpy correction       ...      0.00094421 Eh       0.59 kcal/mol
-----------------------------------------------------------------------
Total Enthalpy                    ...    -80.00242240 Eh


Note: Only C1 symmetry has been detected, increase convergence thresholds 
      if your molecule has a higher symmetry. Symmetry factor of 1.0 is   
      used for the rotational entropy correction. 
 

Note: Rotational entropy computed according to Herzberg 
Infrared and Raman Spectra, Chapter V,1, Van Nostrand Reinhold, 1945 
Point Group:  C1, Symmetry Number:   1  
Rotational constants in cm-1:     0.124602     0.016923     0.015447 

Vibrational entropy computed according to the QRRHO of S. Grimme
Chem.Eur.J. 2012 18 9955 using a reference frequency of 100.0 cm-1


-------
ENTROPY
-------

The entropy contributions are T*S = T*(S(el)+S(vib)+S(rot)+S(trans))
     S(el)   - electronic entropy
     S(vib)  - vibrational entropy
     S(rot)  - rotational entropy
     S(trans)- translational entropy
The entropies will be listed as multiplied by the temperature to get
units of energy

Electronic entropy                ...      0.00000000 Eh      0.00 kcal/mol
Vibrational entropy               ...      0.01332144 Eh      8.36 kcal/mol
Rotational entropy                ...      0.01438848 Eh      9.03 kcal/mol
Translational entropy             ...      0.01942844 Eh     12.19 kcal/mol
-----------------------------------------------------------------------
Final entropy term                ...      0.04713836 Eh     29.58 kcal/mol

In case the symmetry of your molecule has not been determined correctly
or in case you have a reason to use a different symmetry number we print 
out the resulting rotational entropy values for sn=1,12:

 non-linear molecules -----------------------------------
|  sn= 1 | S(rot)=       0.01438848 Eh      9.03 kcal/mol|
|  sn= 2 | S(rot)=       0.01373402 Eh      8.62 kcal/mol|
|  sn= 3 | S(rot)=       0.01335119 Eh      8.38 kcal/mol|
|  sn= 4 | S(rot)=       0.01307957 Eh      8.21 kcal/mol|
|  sn= 5 | S(rot)=       0.01286888 Eh      8.08 kcal/mol|
|  sn= 6 | S(rot)=       0.01269673 Eh      7.97 kcal/mol|
|  sn= 7 | S(rot)=       0.01255119 Eh      7.88 kcal/mol|
|  sn= 8 | S(rot)=       0.01242511 Eh      7.80 kcal/mol|
|  sn= 9 | S(rot)=       0.01231390 Eh      7.73 kcal/mol|
|  sn=10 | S(rot)=       0.01221442 Eh      7.66 kcal/mol|
|  sn=11 | S(rot)=       0.01212443 Eh      7.61 kcal/mol|
|  sn=12 | S(rot)=       0.01204228 Eh      7.56 kcal/mol|
 linear molecules ---------------------------------------
|  Dinfh | S(rot)=       0.00926335 Eh      5.81 kcal/mol|
|  Cinfv | S(rot)=       0.00991781 Eh      6.22 kcal/mol|
 --------------------------------------------------------


-------------------
GIBBS FREE ENERGY
-------------------

The Gibbs free energy is G = H - T*S

Total enthalpy                    ...    -80.00242240 Eh 
Total entropy correction          ...     -0.04713836 Eh    -29.58 kcal/mol
-----------------------------------------------------------------------
Final Gibbs free energy         ...    -80.04956076 Eh

For completeness - the Gibbs free energy minus the electronic energy
G-E(el)                           ...      0.16319884 Eh    102.41 kcal/mol


Maximum memory used throughout the entire PROP-calculation: 99.2 MB

--------------------------------
SUGGESTED CITATIONS FOR THIS RUN
--------------------------------

Below you find a list of papers that are relevant to this ORCA run
We neither can nor want to force you to cite these papers, but we appreciate if you do
You receive ORCA, which is the product of decades of hard work by many enthusiastic individuals, for free
The only thing we kindly ask in return is that you cite our papers,
We deeply appreciate it, if you show your appreciation for ORCA by not just citing the generic ORCA reference.

Please note that relegating all ORCA citations to the supporting information does *not* help us.
SI sections are not indexed - citations you put there will not count into any citation statistics
But we need these citations in order to attract the funding resources that allow us to do what we are doing

Therefore, if you are a happy ORCA user, please consider citing a few of the papers listed below in the main body of your paper

In addition to the list printed below, the program has created the file ./output/estragole/estragole.bibtex that contains the list in bibtex format
You can import this file easily into all common literature databanks and citation aid programs


List of essential papers. We consider these as the minimum necessary citations

  1. Neese,F.
     Software update: the ORCA program system, version 5.0
     WIRES Comput. Molec. Sci., 2022 12(1)e1606
     doi.org/10.1002/wcms.1606
  2. Mueller,M.; Hansen,A.; Grimme,S.
     wB97X-3c: A composite range-separated hybrid DFT method with a molecule-optimized polarized valence double-zeta basis set
     J. Chem. Phys., 2023 158 014103
     doi.org/10.1063/5.0133026

List of papers to cite with high priority. The work reported in these papers was absolutely
necessary for this run to complete.
Our perspective: the developers of density functionals and basis sets usually get cited in chemistry papers
Good! But without the algorithms to do something with them, the functionals or basis sets would not do anything.
Hence, in our opinion, the algorithm design and method developments papers are equally worthy of getting cited

  1. Neese,F.
     An improvement of the resolution of the identity approximation for the formation of the Coulomb matrix
     J. Comp. Chem., 2003 24(14)1740-1747
     doi.org/10.1002/jcc.10318
  2. Neese,F.; Wennmohs,F.; Hansen,A.; Becker,U.
     Efficient, approximate and parallel Hartree-Fock and hybrid DFT calculations. A 'chain-of-spheres' algorithm for the Hartree-Fock exchange
     Chem. Phys., 2009 356(1-3)98-109
     doi.org/10.1016/j.chemphys.2008.10.036
  3. Bykov,D.; Petrenko,T.; Izsak,R.; Kossmann,S.; Becker,U.; Valeev,E.; Neese,F.
     Efficient implementation of the analytic second derivatives of Hartree-Fock and hybrid DFT energies: a detailed analysis of different approximations
     Molec. Phys., 2015 113 1961-1977
     doi.org/10.1080/00268976.2015.1025114
  4. Helmich-Paris,B.; de Souza,B.; Neese,F.; Izsák,R.
     An improved chain of spheres for exchange algorithm
     J. Chem. Phys., 2021 155 104109
     doi.org/doi: 10.1063/5.0058766.
  5. Neese,F.
     The SHARK Integral Generation and Digestion System
     J. Comp. Chem., 2022  1-16
     doi.org/10.1002/jcc.26942
  6. Caldeweyher,E.; Bannwarth,C.; Grimme,S.
     Extension of the D3 dispersion coefficient model
     J. Chem. Phys., 2017 147 034112
     doi.org/10.1063/1.4993215
  7. Caldeweyher,E.; Ehlert,S.; Hansen,A.; Neugebauer,H.; Spicher,S.; Bannwarth,C.; Grimme,S.
     A generally applicable atomic-charge dependent London dispersion correction
     J. Chem. Phys., 2019 150 154122
     doi.org/10.1063/1.5090222
  8. Caldeweyher,E.; Mewes,J.; Ehlert,S.; Grimme,S.
     Extension and evaluation of the D4 London-dispersion model for periodic systems
     Phys. Chem. Chem. Phys., 2020 22(16)8499-8512
     doi.org/10.1039/D0CP00502A
  9. Wittmann,L.; Gordiy,I.; Friede,M.; Helmich-Paris,B.; Grimme,S.; Hansen,A.; Bursch,M.
     Extension of the D3 and D4 London Dispersion Corrections to the full Actinides Series
     Phys. Chem. Chem. Phys., 2024 26(32)21379-21394
     doi.org/https://doi.org/10.1039/D4CP01514B 

List of suggested additional citations. These are papers that are important in the 'surrounding' of 
of this run, or papers that preceded the highly important papers. If you like your results we are grateful for a citation.

  1. Izsak,R.; Neese,F.
     An overlap fitted chain of spheres exchange method
     J. Chem. Phys., 2011 135 144105
     doi.org/10.1063/1.3646921
  2. Izsak,R.; Hansen,A.; Neese,F.
     The resolution of identity and chain of spheres approximations for the LPNO-CCSD singles Fock term
     Molec. Phys., 2012 110 2413-2417
     doi.org/10.1080/00268976.2012.687466
  3. Neese,F.
     The ORCA program system
     WIRES Comput. Molec. Sci., 2012 2(1)73-78
     doi.org/10.1002/wcms.81
  4. Izsak,R.; Neese,F.; Klopper,W.
     Robust fitting techniques in the chain of spheres approximation to the Fock exchange: The role of the complementary space
     J. Chem. Phys., 2013 139 
     doi.org/10.1063/1.4819264
  5. Neese,F.
     Software update: the ORCA program system, version 4.0
     WIRES Comput. Molec. Sci., 2018 8(1)1-6
     doi.org/10.1002/wcms.1327
  6. Neese,F.; Wennmohs,F.; Becker,U.; Riplinger,C.
     The ORCA quantum chemistry program package
     J. Chem. Phys., 2020 152 Art. No. L224108
     doi.org/10.1063/5.0004608

List of optional additional citations

  1. Neese,F.
     Approximate second-order SCF convergence for spin unrestricted wavefunctions
     Chem. Phys. Lett., 2000 325(1-3)93-98
     doi.org/10.1016/s0009-2614(00)00662-x

Timings for individual modules:

Sum of individual times          ...     1048.908 sec (=  17.482 min)
Startup calculation              ...       65.133 sec (=   1.086 min)   6.2 %
SCF iterations                   ...      707.568 sec (=  11.793 min)  67.5 %
Property integrals               ...       45.359 sec (=   0.756 min)   4.3 %
SCF Response                     ...       33.874 sec (=   0.565 min)   3.2 %
Property calculations            ...       65.488 sec (=   1.091 min)   6.2 %
SCF Gradient evaluation          ...      131.240 sec (=   2.187 min)  12.5 %
Geometry relaxation              ...        0.246 sec (=   0.004 min)   0.0 %
                             ****ORCA TERMINATED NORMALLY****
TOTAL RUN TIME: 0 days 0 hours 17 minutes 37 seconds 735 msec
