
                                 *****************
                                 * O   R   C   A *
                                 *****************

                                            #,                                       
                                            ###                                      
                                            ####                                     
                                            #####                                    
                                            ######                                   
                                           ########,                                 
                                     ,,################,,,,,                         
                               ,,#################################,,                 
                          ,,##########################################,,             
                       ,#########################################, ''#####,          
                    ,#############################################,,   '####,        
                  ,##################################################,,,,####,       
                ,###########''''           ''''###############################       
              ,#####''   ,,,,##########,,,,          '''####'''          '####       
            ,##' ,,,,###########################,,,                        '##       
           ' ,,###''''                  '''############,,,                           
         ,,##''                                '''############,,,,        ,,,,,,###''
      ,#''                                            '''#######################'''  
     '                                                          ''''####''''         
             ,#######,   #######,   ,#######,      ##                                
            ,#'     '#,  ##    ##  ,#'     '#,    #''#        ,####,   ,####,        
            ##       ##  ##   ,#'  ##            #'  '#       #'       #'  '#        
            ##       ##  #######   ##           ,######,      #####,   #    #        
            '#,     ,#'  ##    ##  '#,     ,#' ,#      #,     #,   #   #,  ,#        
             '#######'   ##     ##  '#######'  #'      '#     '####' # '####'        



                #########################################################
                #                        -***-                          #
                #          Department of theory and spectroscopy        #
                #                                                       #
                #                      Frank Neese                      #
                #                                                       #
                #     Directorship, Architecture, Infrastructure        #
                #                    SHARK, DRIVERS                     #
                #        Core code/Algorithms in most modules           #
                #                                                       #
                #        Max Planck Institute fuer Kohlenforschung      #
                #                Kaiser Wilhelm Platz 1                 #
                #                 D-45470 Muelheim/Ruhr                 #
                #                      Germany                          #
                #                                                       #
                #                  All rights reserved                  #
                #                        -***-                          #
                #########################################################


                         Program Version 6.0.1  -  RELEASE   -


 With contributions from (in alphabetic order):
[Max-Planck-Institut fuer Kohlenforschung]                               
  Daniel Aravena         : Magnetic Suceptibility                        
  Michael Atanasov       : Ab Initio Ligand Field Theory (pilot matlab implementation)
  Alexander A. Auer      : GIAO ZORA, VPT2 properties, NMR spectrum      
  Ute Becker             : All parallelization in ORCA, NUMFREQ, NUMCALC 
  Giovanni Bistoni       : ED, misc. LED, open-shell LED, HFLD           
  Martin Brehm           : Molecular dynamics                            
  Dmytro Bykov           : pre 5.0 version of the SCF Hessian            
  Marcos Casanova-Páez   : Triplet and SCS-CIS(D). UHF-(DLPNO)-IP/EA/STEOM-CCSD. UHF-CVS-IP/STEOM-CCSD   
  Vijay G. Chilkuri      : MRCI spin determinant printing, contributions to CSF-ICE 
  Pauline Colinet        : FMM embedding                                 
  Dipayan Datta          : RHF DLPNO-CCSD density                        
  Achintya Kumar Dutta   : EOM-CC, STEOM-CC                              
  Nicolas Foglia         : Exact transition moments, OPA infrastructure, MCD improvements    
  Dmitry Ganyushin       : Spin-Orbit,Spin-Spin,Magnetic field MRCI      
  Miquel Garcia-Rates    : C-PCM and meta-GGA Hessian, CCSD/C-PCM, Gaussian charge scheme 
  Tiago L. C. Gouveia    : GS-ROHF, GS-ROCIS                             
  Yang Guo               : DLPNO-NEVPT2, F12-NEVPT2, CIM, IAO-localization        
  Andreas Hansen         : Spin unrestricted coupled pair/coupled cluster methods 
  Ingolf Harden          : AUTO-CI MPn and infrastructure                
  Benjamin Helmich-Paris : MC-RPA, TRAH-(SCF,CASSCF), AVAS, COSX integrals, SCF dyn. polar. 
  Lee Huntington         : MR-EOM, pCC                                   
  Robert Izsak           : Overlap fitted RIJCOSX, COSX-SCS-MP3, EOM     
  Riya Kayal             : Wick's Theorem for AUTO-CI, AUTO-CI UHF-CCSDT 
  Emily Kempfer          : AUTO-CI, RHF CISDT and CCSDT                  
  Christian Kollmar      : KDIIS, OOCD, Brueckner-CCSD(T), CCSD density, CASPT2, CASPT2-K, improved NEVPT2 
  Axel Koslowski         : Symmetry handling                             
  Simone Kossmann        : meta-GGA functionals, TD-DFT gradient, OOMP2, (MP2 Hessian; deprecated post 5.0) 
  Lucas Lang             : DCDCAS                                        
  Marvin Lechner         : AUTO-CI (C++ implementation), FIC-MRCC        
  Spencer Leger          : CASSCF response                               
  Dagmar Lenk            : GEPOL surface, SMD, ORCA-2-JSON               
  Dimitrios Liakos       : Extrapolation schemes; Compound Job, initial MDCI parallelization 
  Dimitrios Manganas     : Further ROCIS development; embedding schemes. LFT, Crystal Embedding 
  Dimitrios Pantazis     : SARC Basis sets                               
  Anastasios Papadopoulos: AUTO-CI, single reference methods and gradients 
  Taras Petrenko         : pre 6.0 DFT Hessian and TD-DFT gradient, (ASA, deprecated), ECA, 1-Electron XAS/XES, NRVS 
  Peter Pinski           : DLPNO-MP2, DLPNO-MP2 Gradient                 
  Christoph Reimann      : Effective Core Potentials                     
  Marius Retegan         : Local ZFS, SOC                                
  Christoph Riplinger    : Optimizer, TS searches, QM/MM, DLPNO-CCSD(T), (RO)-DLPNO pert. Triples 
  Michael Roemelt        : Original ROCIS implementation                 
  Masaaki Saitow         : Open-shell DLPNO-CCSD energy and density      
  Barbara Sandhoefer     : DKH picture change effects                    
  Kantharuban Sivalingam : CASSCF convergence/infrastructure, NEVPT2 and variants, FIC-MRCI 
  Bernardo de Souza      : ESD, SOC TD-DFT                               
  Georgi L. Stoychev     : AutoAux, RI-MP2 NMR, DLPNO-MP2 response, X2C  
  Van Anh Tran           : RI-MP2 g-tensors                              
  Willem Van den Heuvel  : Paramagnetic NMR                              
  Zikuan Wang            : NOTCH, Electric field optimization            
  Frank Wennmohs         : Technical directorship and infrastructure     
  Hang Xu                : AUTO-CI-Response properties                   
                                                                         
[FACCTs GmbH]                                                            
  Markus Bursch, Miquel Garcia-Rates, Christoph Riplinger, Bernardo de Souza, Georgi L. Stoychev 
                                                                 
  APM, Basis sets (HGBS, AHGBS, def-TZVP (Ac-Lr), def2-XVPD (La-Lu)), CI-OPT, improved COSX, DLPNO-Multilevel,           
  DOCKER, DRACO, updates on ESD, GOAT, IRC, LR-CPCM, MBIS, meta-GGA TD-DFT gradient, ML-optimized integration grids, 
  MM, NACMEs, nearIR, NEB, NEB-TS, NL-DFT gradient (VV10), 2- and 3-layer-ONIOM, interface openCOSMO-RS, QMMM,   
  Crystal-QMMM, SF, symmetry and pop. for TD-DFT, r2SCAN hybrids, SOLVATOR                                   
                                                                         
[Other institutions]                                                     
  V. Asgeirsson          : NEB                                           
  Christoph Bannwarth    : sTDA-DFT, sTD-DFT, PBEh-3c, B97-3c, D3        
  Sebastian Ehlert       : rSCAN, r2SCAN, r2SCAN-3c, D4, dhf basis sets  
  Marvin Friede          : D4 for Fr, Ra, Ac-Lr                          
  Lars Goerigk           : TD-DFT with DH, B97 family of functionals     
  Stefan Grimme          : VdW corrections, initial TS optimization, DFT functionals, gCP, sTDA/sTD-DF 
  Waldemar Hujo          : DFT-NL                                        
  H. Jonsson             : NEB                                           
  Holger Kruse           : gCP                                           
  Marcel Mueller         : wB97X-3c, vDZP basis set                      
  Hagen Neugebauer       : wr2SCAN                                       
  Tobias Risthaus        : range-separated hybrid DFT                    
  Lukas Wittmann         : regularized MP2, r2SCAN double-hybrids, wr2SCAN        
                                                                         
We gratefully acknowledge several colleagues who have allowed us to      
interface, adapt or use parts of their codes:                            
  Ed Valeev, F. Pavosevic, A. Kumar             : LibInt (2-el integral package), F12 methods 
  Garnet Chan, S. Sharma, J. Yang, R. Olivares  : DMRG                   
  Ulf Ekstrom                                   : XCFun DFT Library      
  Mihaly Kallay                                 : mrcc  (arbitrary order and MRCC methods)
  Frank Weinhold                                : gennbo (NPA and NBO analysis)           
  Simon Mueller                                 : openCOSMO-RS                            
  Christopher J. Cramer and Donald G. Truhlar   : smd solvation model                     
  S Lehtola, MJT Oliveira, MAL Marques          : LibXC Library                           
  Liviu Ungur et al                             : ANISO software                          


 Your calculation uses the libint2 library for the computation of 2-el integrals
 For citations please refer to: http://libint.valeyev.net

 Your ORCA version has been built with support for libXC version: 6.2.2
 For citations please refer to: https://libxc.gitlab.io

 This ORCA versions uses:
   CBLAS   interface :  Fast vector & matrix operations
   LAPACKE interface :  Fast linear algebra routines
   SCALAPACK package :  Parallel linear algebra routines
   Shared memory     :  Shared parallel matrices
   BLAS/LAPACK       :  OpenBLAS 0.3.27  USE64BITINT DYNAMIC_ARCH NO_AFFINITY SkylakeX SINGLE_THREADED
        Core in use  :  SkylakeX
   Copyright (c) 2011-2014, The OpenBLAS Project


Your calculation utilizes the atom-pairwise dispersion correction
based on EEQ partial charges (D4)


================================================================================

cite the ECPs for C  [vDZP-ECP] as follows:
   B-Ne (ecp-2-mwb), Al-Ar (ecp-10-mwb), Ga-Kr (ecp-28-mwb), Y-Cd (ecp-28-mwb), In-Xe (ecp-46-mwb):
     A. Bergner, M. Dolg, W. Küchle, H. Stoll, and H. Preuß, Mol. Phys. 80, 1431 (1993)., T. Leininger, A. Berning, A. Nicklass, H. Stoll, H.-J. Werner, and H.-J.Flad, Chem. Phys. 217, 19 (1997).
   Na-Mg, K-Ca, Rb-Sr, Cs-Ba (CRENBL):
     L. Fernandez Pacios and P. A. Christiansen, J. Chem. Phys. 82, 2664 (1985)., M. M. Hurley, L. F. Pacios, P. A. Christiansen, R. B. Ross, and W. C. Ermler, J. Chem. Phys. 84, 6840 (1986)., L. A. LaJohn, P. A. Christiansen, R. B. Ross, T. Atashroo, and W. C. Ermler, J. Chem. Phys. 87, 2812 (1987)., R. B. Ross, J. M. Powers, T. Atashroo, W. C. Ermler, L. A. LaJohn, and P. A. Christiansen, J. Chem. Phys. 93, 6654 (1990). 
   Sc-Zn (ecp-10-mdf):
     M. Dolg, U. Wedig, H. Stoll, and H. Preuss, J. Chem. Phys. 86, 866 (1986). 
   Y-Cd (ecp-28-mwb), Hf-Hg (ecp-60-mwb):
     D. Andrae, U. Häußermann, M. Dolg, H. Stoll, and H. Preuß, Theor. Chim. Acta 77, 123 (1990). 
   La (ecp-46-mwb):
     M. Dolg, H. Stoll, and H. Preuss, J. Chem. Phys. 90, 1730 (1989)., M. Dolg, H. Stoll, and H. Preuss, Theor. Chim. Acta 85, 441 (1993).
   Ce-Lu (SBKJC-ecp):
     T. R. Cundari and W. J. Stevens, J. Chem. Phys. 98, 5555 (1993).
   Tl-Rn (ecp-78-mwb):
     W. Küchle, M. Dolg, H. Stoll, and H. Preuss, Mol. Phys. 74, 1245 (1991).

ECP parameters for C  [vDZP-ECP] have been obtained from:
MM, AH, SG, J. Chem. Phys. 158, 014103 (2023), 10.1063/5.0133026

----- Orbital basis set information -----
Your calculation utilizes the basis: vDZP
   Marcel Mueller, Andreas Hansen, Stefan Grimme 
   J. Chem. Phys. 158, 014103 (2023). DOI: 10.1063/5.0133026

----- AuxJ basis set information -----
Your calculation utilizes the auxiliary basis: def2/J
   F. Weigend, Phys. Chem. Chem. Phys. 8, 1057 (2006).

================================================================================
                                        WARNINGS
                       Please study these warnings very carefully!
================================================================================

WARNING: Frozen-Core approximation turned on, but there are no core electrons.
  ===> : Turning off frozen-core approximation


WARNING: Geometry Optimization
  ===> : Switching off AutoStart
         For restart on a previous wavefunction, please use MOREAD

================================================================================
                                       INPUT FILE
================================================================================
NAME = ./output/_z_beta_ocimene/_z_beta_ocimene.inp
|  1> ! wB97X-3c OPT FREQ TightSCF
|  2> %pal
|  3>   nprocs 40
|  4> end
|  5> * xyz 0 1
|  6> C     -3.185961     0.082845    -1.011948
|  7> C     -2.463006     0.582492     0.216318
|  8> C     -1.142282     0.859349     0.194137
|  9> C     -0.286362     0.694874    -1.038394
| 10> C      1.146666     1.061043    -0.758506
| 11> C      2.032536     0.263008    -0.128179
| 12> C      1.657360    -1.121190     0.353599
| 13> C      3.427170     0.754387     0.018541
| 14> C      4.464759    -0.038497     0.288363
| 15> C     -3.222437     0.778915     1.502691
| 16> H     -4.264696    -0.082639    -0.810601
| 17> H     -3.101260     0.827364    -1.831120
| 18> H     -2.747958    -0.882027    -1.343080
| 19> H     -0.668955     1.214327     1.107797
| 20> H     -0.345662    -0.344077    -1.427607
| 21> H     -0.671158     1.374397    -1.828641
| 22> H      1.471272     2.032876    -1.114590
| 23> H      2.220692    -1.377060     1.274873
| 24> H      0.584681    -1.200291     0.620075
| 25> H      1.890162    -1.864633    -0.436968
| 26> H      3.628349     1.809182    -0.131349
| 27> H      4.357379    -1.107833     0.407767
| 28> H      5.457053     0.385936     0.369881
| 29> H     -2.787544     0.135697     2.296891
| 30> H     -4.294840     0.515828     1.390910
| 31> H     -3.155958     1.841452     1.819139
| 32> *
| 33> 
| 34>                          ****END OF INPUT****
================================================================================

                       *****************************
                       * Geometry Optimization Run *
                       *****************************

Geometry optimization settings:
Update method            Update   .... BFGS
Choice of coordinates    CoordSys .... (2022) Redundant Internals
Initial Hessian          InHess   .... Almloef's Model
Max. no of cycles        MaxIter  .... 78

Convergence Tolerances:
Energy Change            TolE     ....  5.0000e-06 Eh
Max. Gradient            TolMAXG  ....  3.0000e-04 Eh/bohr
RMS Gradient             TolRMSG  ....  1.0000e-04 Eh/bohr
Max. Displacement        TolMAXD  ....  4.0000e-03 bohr
RMS Displacement         TolRMSD  ....  2.0000e-03 bohr
Strict Convergence                .... False

------------------------------------------------------------------------------
                        ORCA OPTIMIZATION COORDINATE SETUP
------------------------------------------------------------------------------

The optimization will be done in redundant internal coordinates (2022)
Making redundant internal coordinates   ...  (2022 redundants) done
Evaluating the initial hessian          ...  (Almloef) done
Evaluating the coordinates              ...  done
Calculating the B-matrix                .... done
Calculating the G-matrix                .... done
Diagonalizing the G-matrix              .... done
Small eigenvalue found = 6.260e-03
Small eigenvalue found = 8.967e-03
Small eigenvalue found = 2.542e-02
Small eigenvalue found = 2.585e-02
The first mode is                       ....   36
The number of degrees of freedom        ....   72

    -----------------------------------------------------------------
                    Redundant Internal Coordinates


    -----------------------------------------------------------------
         Definition                    Initial Value    Approx d2E/dq
    -----------------------------------------------------------------
      1. B(C   1,C   0)                  1.5103         0.401641   
      2. B(C   2,C   1)                  1.3496         0.724727   
      3. B(C   3,C   2)                  1.5096         0.402700   
      4. B(C   4,C   3)                  1.5053         0.409029   
      5. B(C   5,C   4)                  1.3487         0.727214   
      6. B(C   6,C   5)                  1.5129         0.397793   
      7. B(C   7,C   5)                  1.4859         0.439228   
      8. B(C   8,C   7)                  1.3334         0.769091   
      9. B(C   9,C   1)                  1.5067         0.406995   
     10. B(H  10,C   0)                  1.1098         0.334871   
     11. B(H  11,C   0)                  1.1102         0.334356   
     12. B(H  12,C   0)                  1.1102         0.334385   
     13. B(H  13,C   2)                  1.0885         0.362096   
     14. B(H  14,C   3)                  1.1110         0.333308   
     15. B(H  15,C   3)                  1.1110         0.333370   
     16. B(H  16,C   4)                  1.0847         0.367149   
     17. B(H  17,C   6)                  1.1098         0.334891   
     18. B(H  18,C   6)                  1.1081         0.336923   
     19. B(H  19,C   6)                  1.1099         0.334702   
     20. B(H  20,C   7)                  1.0842         0.367828   
     21. B(H  21,C   8)                  1.0813         0.371759   
     22. B(H  22,C   8)                  1.0823         0.370392   
     23. B(H  23,C   9)                  1.1107         0.333754   
     24. B(H  24,C   9)                  1.1098         0.334781   
     25. B(H  25,C   9)                  1.1107         0.333793   
     26. A(C   1,C   0,H  10)          111.5357         0.324308   
     27. A(H  11,C   0,H  12)          109.4307         0.284178   
     28. A(C   1,C   0,H  12)          109.9529         0.324231   
     29. A(H  10,C   0,H  11)          107.9407         0.284243   
     30. A(H  10,C   0,H  12)          107.9399         0.284246   
     31. A(C   1,C   0,H  11)          109.9805         0.324226   
     32. A(C   2,C   1,C   9)          118.7209         0.413989   
     33. A(C   0,C   1,C   9)          119.7492         0.373348   
     34. A(C   0,C   1,C   2)          121.5298         0.413017   
     35. A(C   1,C   2,C   3)          123.0882         0.413210   
     36. A(C   3,C   2,H  13)          118.3146         0.328651   
     37. A(C   1,C   2,H  13)          118.5967         0.362741   
     38. A(C   2,C   3,C   4)          111.1896         0.373839   
     39. A(H  14,C   3,H  15)          107.7151         0.283906   
     40. A(C   4,C   3,H  15)          108.2517         0.325041   
     41. A(C   4,C   3,H  14)          110.0848         0.325031   
     42. A(C   2,C   3,H  15)          108.5262         0.324209   
     43. A(C   2,C   3,H  14)          110.9557         0.324200   
     44. A(C   5,C   4,H  16)          119.1433         0.363814   
     45. A(C   3,C   4,H  16)          116.2174         0.330254   
     46. A(C   3,C   4,C   5)          124.6291         0.414608   
     47. A(C   6,C   5,C   7)          120.2558         0.377666   
     48. A(C   4,C   5,C   7)          117.8372         0.419901   
     49. A(C   4,C   5,C   6)          121.8247         0.412562   
     50. A(H  17,C   6,H  19)          109.2929         0.284291   
     51. A(C   5,C   6,H  19)          109.5119         0.323769   
     52. A(H  17,C   6,H  18)          105.9795         0.284584   
     53. A(C   5,C   6,H  18)          112.4543         0.324121   
     54. A(C   5,C   6,H  17)          110.4524         0.323799   
     55. A(H  18,C   6,H  19)          109.0574         0.284559   
     56. A(C   5,C   7,C   8)          123.6191         0.424121   
     57. A(C   8,C   7,H  20)          117.5207         0.367435   
     58. A(C   5,C   7,H  20)          118.8302         0.334278   
     59. A(H  21,C   8,H  22)          118.0684         0.293601   
     60. A(C   7,C   8,H  22)          119.7003         0.367873   
     61. A(C   7,C   8,H  21)          122.2148         0.368105   
     62. A(H  24,C   9,H  25)          108.2590         0.284156   
     63. A(H  23,C   9,H  25)          109.0783         0.284021   
     64. A(C   1,C   9,H  25)          109.7436         0.324843   
     65. A(H  23,C   9,H  24)          108.2452         0.284151   
     66. A(C   1,C   9,H  24)          111.7245         0.325000   
     67. A(C   1,C   9,H  23)          109.7333         0.324836   
     68. D(C   9,C   1,C   0,H  11)    120.2823         0.011967   
     69. D(C   9,C   1,C   0,H  10)      0.5571         0.011967   
     70. D(C   2,C   1,C   0,H  10)   -179.5171         0.011967   
     71. D(C   2,C   1,C   0,H  11)    -59.7920         0.011967   
     72. D(C   2,C   1,C   0,H  12)     60.7769         0.011967   
     73. D(H  13,C   2,C   1,C   0)   -179.8374         0.037217   
     74. D(C   3,C   2,C   1,C   9)    179.8391         0.037217   
     75. D(H  13,C   2,C   1,C   9)      0.0890         0.037217   
     76. D(C   3,C   2,C   1,C   0)     -0.0873         0.037217   
     77. D(H  15,C   3,C   2,C   1)     61.8130         0.012028   
     78. D(H  14,C   3,C   2,H  13)    123.4007         0.012028   
     79. D(H  14,C   3,C   2,C   1)    -56.3500         0.012028   
     80. D(C   4,C   3,C   2,H  13)      0.5218         0.012028   
     81. D(C   4,C   3,C   2,C   1)   -179.2289         0.012028   
     82. D(C   5,C   4,C   3,C   2)     78.7179         0.012393   
     83. D(H  16,C   4,C   3,H  14)    134.1665         0.012393   
     84. D(H  16,C   4,C   3,C   2)   -102.4550         0.012393   
     85. D(C   5,C   4,C   3,H  15)   -162.1597         0.012393   
     86. D(C   5,C   4,C   3,H  14)    -44.6605         0.012393   
     87. D(C   7,C   5,C   4,H  16)     -1.3017         0.037496   
     88. D(C   7,C   5,C   4,C   3)    177.4935         0.037496   
     89. D(C   6,C   5,C   4,H  16)   -178.0088         0.037496   
     90. D(C   6,C   5,C   4,C   3)      0.7864         0.037496   
     91. D(H  19,C   6,C   5,C   4)     91.7955         0.011749   
     92. D(H  18,C   6,C   5,C   7)    153.7490         0.011749   
     93. D(H  18,C   6,C   5,C   4)    -29.6221         0.011749   
     94. D(H  17,C   6,C   5,C   7)     35.5819         0.011749   
     95. D(H  17,C   6,C   5,C   4)   -147.7893         0.011749   
     96. D(H  20,C   7,C   5,C   4)     16.2924         0.013165   
     97. D(C   8,C   7,C   5,C   6)     15.0973         0.013165   
     98. D(C   8,C   7,C   5,C   4)   -161.6636         0.013165   
     99. D(H  20,C   7,C   5,C   6)   -166.9467         0.013165   
    100. D(H  22,C   8,C   7,H  20)      1.2732         0.042393   
    101. D(H  22,C   8,C   7,C   5)    179.2541         0.042393   
    102. D(H  21,C   8,C   7,H  20)   -177.2231         0.042393   
    103. D(H  21,C   8,C   7,C   5)      0.7577         0.042393   
    104. D(H  25,C   9,C   1,C   0)   -120.0536         0.012275   
    105. D(H  24,C   9,C   1,C   2)   -179.8929         0.012275   
    106. D(H  24,C   9,C   1,C   0)      0.0349         0.012275   
    107. D(H  23,C   9,C   1,C   2)    -59.8285         0.012275   
    108. D(H  23,C   9,C   1,C   0)    120.0993         0.012275   
    -----------------------------------------------------------------

Number of atoms                         .... 26
Number of degrees of freedom            .... 108


         *************************************************************
         *                GEOMETRY OPTIMIZATION CYCLE   1            *
         *************************************************************
---------------------------------
CARTESIAN COORDINATES (ANGSTROEM)
---------------------------------
  C     -3.185961    0.082845   -1.011948
  C     -2.463006    0.582492    0.216318
  C     -1.142282    0.859349    0.194137
  C     -0.286362    0.694874   -1.038394
  C      1.146666    1.061043   -0.758506
  C      2.032536    0.263008   -0.128179
  C      1.657360   -1.121190    0.353599
  C      3.427170    0.754387    0.018541
  C      4.464759   -0.038497    0.288363
  C     -3.222437    0.778915    1.502691
  H     -4.264696   -0.082639   -0.810601
  H     -3.101260    0.827364   -1.831120
  H     -2.747958   -0.882027   -1.343080
  H     -0.668955    1.214327    1.107797
  H     -0.345662   -0.344077   -1.427607
  H     -0.671158    1.374397   -1.828641
  H      1.471272    2.032876   -1.114590
  H      2.220692   -1.377060    1.274873
  H      0.584681   -1.200291    0.620075
  H      1.890162   -1.864633   -0.436968
  H      3.628349    1.809182   -0.131349
  H      4.357379   -1.107833    0.407767
  H      5.457053    0.385936    0.369881
  H     -2.787544    0.135697    2.296891
  H     -4.294840    0.515828    1.390910
  H     -3.155958    1.841452    1.819139

----------------------------
CARTESIAN COORDINATES (A.U.)
----------------------------
  NO LB      ZA    FRAG     MASS         X           Y           Z
   0 C     4.0000*   0    12.011   -6.020594    0.156554   -1.912305
   1 C     4.0000*   0    12.011   -4.654407    1.100750    0.408782
   2 C     4.0000*   0    12.011   -2.158600    1.623934    0.366866
   3 C     4.0000*   0    12.011   -0.541146    1.313122   -1.962280
   4 C     4.0000*   0    12.011    2.166885    2.005081   -1.433369
   5 C     4.0000*   0    12.011    3.840936    0.497013   -0.242223
   6 C     4.0000*   0    12.011    3.131957   -2.118742    0.668205
   7 C     4.0000*   0    12.011    6.476413    1.425585    0.035037
   8 C     4.0000*   0    12.011    8.437172   -0.072749    0.544927
   9 C     4.0000*   0    12.011   -6.089523    1.471936    2.839674
  10 H     1.0000    0     1.008   -8.059107   -0.156165   -1.531814
  11 H     1.0000    0     1.008   -5.860532    1.563491   -3.460315
  12 H     1.0000    0     1.008   -5.192888   -1.666789   -2.538053
  13 H     1.0000    0     1.008   -1.264142    2.294745    2.093433
  14 H     1.0000    0     1.008   -0.653207   -0.650211   -2.697786
  15 H     1.0000    0     1.008   -1.268305    2.597234   -3.455631
  16 H     1.0000    0     1.008    2.780301    3.841579   -2.106270
  17 H     1.0000    0     1.008    4.196500   -2.602266    2.409161
  18 H     1.0000    0     1.008    1.104887   -2.268221    1.171772
  19 H     1.0000    0     1.008    3.571889   -3.523646   -0.825750
  20 H     1.0000    0     1.008    6.856586    3.418859   -0.248214
  21 H     1.0000    0     1.008    8.234253   -2.093501    0.770568
  22 H     1.0000    0     1.008   10.312336    0.729313    0.698974
  23 H     1.0000    0     1.008   -5.267695    0.256430    4.340495
  24 H     1.0000    0     1.008   -8.116071    0.974774    2.628439
  25 H     1.0000    0     1.008   -5.963896    3.479840    3.437675
* core charge reduced due to ECP

--------------------------------
INTERNAL COORDINATES (ANGSTROEM)
--------------------------------
 C      0   0   0     0.000000000000     0.00000000     0.00000000
 C      1   0   0     1.510280908768     0.00000000     0.00000000
 C      2   1   0     1.349612418210   121.52984061     0.00000000
 C      3   2   1     1.509564088731   123.08821191   359.91266876
 C      4   3   2     1.505319327548   111.18956260   180.77106110
 C      5   4   3     1.348679963911   124.62910773    78.71790953
 C      6   5   4     1.512901574943   121.82471066     0.78642744
 C      6   5   4     1.485928690751   117.83716929   177.49345333
 C      8   6   5     1.333439118243   123.61913630   198.33639892
 C      2   1   3     1.506676121075   119.74922317   180.07428495
 H      1   2   3     1.109772395084   111.53570840   180.48285107
 H      1   2   3     1.110191680002   109.98050243   300.20802733
 H      1   2   3     1.110168007924   109.95286736    60.77687627
 H      3   2   1     1.088495486905   118.59670081   180.16257069
 H      4   3   2     1.111045647024   110.95571930   303.64998528
 H      4   3   2     1.110994955053   108.52620682    61.81298876
 H      5   4   3     1.084723121437   116.21744582   257.54495585
 H      7   6   5     1.109755911090   110.45244188   212.21066615
 H      7   6   5     1.108109499922   112.45426398   330.37785435
 H      7   6   5     1.109910107595   109.51192441    91.79553236
 H      8   6   5     1.084219762855   118.83015260    16.29237031
 H      9   8   6     1.081326620643   122.21482001     0.75772053
 H      9   8   6     1.082328941796   119.70031164   179.25410247
 H     10   2   1     1.110682203411   109.73328888   120.09934762
 H     10   2   1     1.109845915404   111.72453181     0.03494648
 H     10   2   1     1.110650111653   109.74360455   239.94637532

---------------------------
INTERNAL COORDINATES (A.U.)
---------------------------
 C      0   0   0     0.000000000000     0.00000000     0.00000000
 C      1   0   0     2.854017302862     0.00000000     0.00000000
 C      2   1   0     2.550397857356   121.52984061     0.00000000
 C      3   2   1     2.852662709304   123.08821191   359.91266876
 C      4   3   2     2.844641273164   111.18956260   180.77106110
 C      5   4   3     2.548635774098   124.62910773    78.71790953
 C      6   5   4     2.858969644220   121.82471066     0.78642744
 C      6   5   4     2.807998280056   117.83716929   177.49345333
 C      8   6   5     2.519834749737   123.61913630   198.33639892
 C      2   1   3     2.847205241351   119.74922317   180.07428495
 H      1   2   3     2.097165897694   111.53570840   180.48285107
 H      1   2   3     2.097958231362   109.98050243   300.20802733
 H      1   2   3     2.097913497616   109.95286736    60.77687627
 H      3   2   1     2.056958368260   118.59670081   180.16257069
 H      4   3   2     2.099571995160   110.95571930   303.64998528
 H      4   3   2     2.099476201219   108.52620682    61.81298876
 H      5   4   3     2.049829630649   116.21744582   257.54495585
 H      7   6   5     2.097134747461   110.45244188   212.21066615
 H      7   6   5     2.094023481250   112.45426398   330.37785435
 H      7   6   5     2.097426136626   109.51192441    91.79553236
 H      8   6   5     2.048878420782   118.83015260    16.29237031
 H      9   8   6     2.043411174335   122.21482001     0.75772053
 H      9   8   6     2.045305286811   119.70031164   179.25410247
 H     10   2   1     2.098885186266   109.73328888   120.09934762
 H     10   2   1     2.097304830965   111.72453181     0.03494648
 H     10   2   1     2.098824541633   109.74360455   239.94637532

---------------------
BASIS SET INFORMATION
---------------------
There are 2 groups of distinct atoms

 Group   1 Type C   : 6s6p2d contracted to 2s2p1d pattern {42/42/2}
 Group   2 Type H   : 8s2p contracted to 2s1p pattern {53/2}

Atom   0C    basis set group =>   1
Atom   1C    basis set group =>   1
Atom   2C    basis set group =>   1
Atom   3C    basis set group =>   1
Atom   4C    basis set group =>   1
Atom   5C    basis set group =>   1
Atom   6C    basis set group =>   1
Atom   7C    basis set group =>   1
Atom   8C    basis set group =>   1
Atom   9C    basis set group =>   1
Atom  10H    basis set group =>   2
Atom  11H    basis set group =>   2
Atom  12H    basis set group =>   2
Atom  13H    basis set group =>   2
Atom  14H    basis set group =>   2
Atom  15H    basis set group =>   2
Atom  16H    basis set group =>   2
Atom  17H    basis set group =>   2
Atom  18H    basis set group =>   2
Atom  19H    basis set group =>   2
Atom  20H    basis set group =>   2
Atom  21H    basis set group =>   2
Atom  22H    basis set group =>   2
Atom  23H    basis set group =>   2
Atom  24H    basis set group =>   2
Atom  25H    basis set group =>   2
---------------------------------
AUXILIARY/J BASIS SET INFORMATION
---------------------------------
There are 2 groups of distinct atoms

 Group   1 Type C   : 12s5p4d2f1g contracted to 6s4p3d1f1g pattern {711111/2111/211/2/1}
 Group   2 Type H   : 5s2p1d contracted to 3s1p1d pattern {311/2/1}

Atom   0C    basis set group =>   1
Atom   1C    basis set group =>   1
Atom   2C    basis set group =>   1
Atom   3C    basis set group =>   1
Atom   4C    basis set group =>   1
Atom   5C    basis set group =>   1
Atom   6C    basis set group =>   1
Atom   7C    basis set group =>   1
Atom   8C    basis set group =>   1
Atom   9C    basis set group =>   1
Atom  10H    basis set group =>   2
Atom  11H    basis set group =>   2
Atom  12H    basis set group =>   2
Atom  13H    basis set group =>   2
Atom  14H    basis set group =>   2
Atom  15H    basis set group =>   2
Atom  16H    basis set group =>   2
Atom  17H    basis set group =>   2
Atom  18H    basis set group =>   2
Atom  19H    basis set group =>   2
Atom  20H    basis set group =>   2
Atom  21H    basis set group =>   2
Atom  22H    basis set group =>   2
Atom  23H    basis set group =>   2
Atom  24H    basis set group =>   2
Atom  25H    basis set group =>   2
-------------------------
ECP PARAMETER INFORMATION
-------------------------

 Group 1, Type C  ECP vDZP-ECP (replacing 2 core electrons, lmax=3)

Atom   0C    ECP group =>   1
Atom   1C    ECP group =>   1
Atom   2C    ECP group =>   1
Atom   3C    ECP group =>   1
Atom   4C    ECP group =>   1
Atom   5C    ECP group =>   1
Atom   6C    ECP group =>   1
Atom   7C    ECP group =>   1
Atom   8C    ECP group =>   1
Atom   9C    ECP group =>   1



           ************************************************************
           *        Program running with 40 parallel MPI-processes    *
           *              working on a common directory               *
           ************************************************************
------------------------------------------------------------------------------
                             ORCA STARTUP CALCULATIONS
                           -- RI-GTO INTEGRALS CHOSEN --
------------------------------------------------------------------------------
------------------------------------------------------------------------------
                   ___                                                        
                  /   \      - P O W E R E D   B Y -                         
                 /     \                                                     
                 |  |  |   _    _      __       _____    __    __             
                 |  |  |  | |  | |    /  \     |  _  \  |  |  /  |          
                  \  \/   | |  | |   /    \    | | | |  |  | /  /          
                 / \  \   | |__| |  /  /\  \   | |_| |  |  |/  /          
                |  |  |   |  __  | /  /__\  \  |    /   |      \           
                |  |  |   | |  | | |   __   |  |    \   |  |\   \          
                \     /   | |  | | |  |  |  |  | |\  \  |  | \   \       
                 \___/    |_|  |_| |__|  |__|  |_| \__\ |__|  \__/        
                                                                              
                      - O R C A' S   B I G   F R I E N D -                    
                                      &                                       
                       - I N T E G R A L  F E E D E R -                       
                                                                              
 v1 FN, 2020, v2 2021, v3 2022-2024                                           
------------------------------------------------------------------------------


----------------------
SHARK INTEGRAL PACKAGE
----------------------

Number of atoms                             ...     26
Number of basis functions                   ...    210
Number of shells                            ...     98
Maximum angular momentum                    ...      2
Integral batch strategy                     ... SHARK/LIBINT Hybrid
RI-J (if used) integral strategy            ... SPLIT-RIJ (Revised 2003 algorithm where possible)
Printlevel                                  ...      1
Contraction scheme used                     ... SEGMENTED contraction
Prescreening option                         ... SCHWARTZ
   Thresh                                   ... 2.500e-11
   Tcut                                     ... 2.500e-12
   Tpresel                                  ... 2.500e-12 
Coulomb Range Separation                    ... NOT USED
Exchange Range Separation                   ... Long Range
   Mu parameter                             ... 3.000e-01
   Scaling (regular/separated)              ... 1.670e-01 8.330e-01
Multipole approximations                    ... NOT USED
Finite Nucleus Model                        ... NOT USED
CABS basis                                  ... NOT available
Auxiliary Coulomb fitting basis             ... AVAILABLE
   # of basis functions in Aux-J            ...    666
   # of shells in Aux-J                     ...    230
   Maximum angular momentum in Aux-J        ...      4
Auxiliary J/K fitting basis                 ... NOT available
Auxiliary Correlation fitting basis         ... NOT available
Auxiliary 'external' fitting basis          ... NOT available

Checking pre-screening integrals            ... done (  0.0 sec) Dimension = 98
Check shell pair data                       ... done (  0.0 sec)
Shell pair information
Shell pair cut-off parameter TPreSel        ...   2.5e-12
Total number of shell pairs                 ...      4851
Shell pairs after pre-screening             ...      4755
Total number of primitive shell pairs       ...     45524
Primitive shell pairs kept                  ...     34866
          la=0 lb=0:   1362 shell pairs
          la=1 lb=0:   1832 shell pairs
          la=1 lb=1:    638 shell pairs
          la=2 lb=0:    516 shell pairs
          la=2 lb=1:    352 shell pairs
          la=2 lb=2:     55 shell pairs

Calculating one electron integrals          ... done (  0.0 sec)
Calculating ECP integrals                   ... done (  0.1 sec)
Calculating RI/J V-Matrix + Cholesky decomp.... done (  0.0 sec)
Calculating Nuclear repulsion               ... done (  0.0 sec) ENN=    265.479582439564 Eh

Diagonalization of the overlap matrix:
Smallest eigenvalue                        ... 1.049e-03
Time for diagonalization                   ...    0.006 sec
Threshold for overlap eigenvalues          ... 1.000e-07
Number of eigenvalues below threshold      ... 0
Time for construction of square roots      ...    0.004 sec
Total time needed                          ...    0.014 sec

-------------------
DFT GRID GENERATION
-------------------

General Integration Accuracy     IntAcc      ... 4.388
Radial Grid Type                 RadialGrid  ... OptM3 with GC (2021)
Angular Grid (max. ang.)         AngularGrid ... 4 (Lebedev-302)
Angular grid pruning method      GridPruning ... 4 (adaptive)
Weight generation scheme         WeightScheme... mBecke (2022)
Basis function cutoff            BFCut       ... 1.0000e-11
Integration weight cutoff        WCut        ... 1.0000e-14
Partially contracted basis set               ... off
Rotationally invariant grid construction     ... off
Angular grids for H and He will be reduced by one unit

Total number of grid points                  ...   111264
Total number of batches                      ...     1750
Average number of points per batch           ...       63
Average number of grid points per atom       ...     4279

--------------------
COSX GRID GENERATION
--------------------

GRIDX 1
-------
General Integration Accuracy     IntAcc      ... 3.816
Radial Grid Type                 RadialGrid  ... OptM3 with GC (2021)
Angular Grid (max. ang.)         AngularGrid ... 1 (Lebedev-50)
Angular grid pruning method      GridPruning ... 4 (adaptive)
Weight generation scheme         WeightScheme... mBecke (2022)
Basis function cutoff            BFCut       ... 1.0000e-11
Integration weight cutoff        WCut        ... 1.0000e-14
Partially contracted basis set               ... on
Rotationally invariant grid construction     ... off
Angular grids for H and He will be reduced by one unit

Total number of grid points                  ...    14279
Total number of batches                      ...      129
Average number of points per batch           ...      110
Average number of grid points per atom       ...      549
UseSFitting                                  ... on

GRIDX 2
-------
General Integration Accuracy     IntAcc      ... 4.020
Radial Grid Type                 RadialGrid  ... OptM3 with GC (2021)
Angular Grid (max. ang.)         AngularGrid ... 2 (Lebedev-110)
Angular grid pruning method      GridPruning ... 4 (adaptive)
Weight generation scheme         WeightScheme... mBecke (2022)
Basis function cutoff            BFCut       ... 1.0000e-11
Integration weight cutoff        WCut        ... 1.0000e-14
Partially contracted basis set               ... on
Rotationally invariant grid construction     ... off
Angular grids for H and He will be reduced by one unit

Total number of grid points                  ...    29833
Total number of batches                      ...      246
Average number of points per batch           ...      121
Average number of grid points per atom       ...     1147
UseSFitting                                  ... on

GRIDX 3
-------
General Integration Accuracy     IntAcc      ... 4.338
Radial Grid Type                 RadialGrid  ... OptM3 with GC (2021)
Angular Grid (max. ang.)         AngularGrid ... 3 (Lebedev-194)
Angular grid pruning method      GridPruning ... 4 (adaptive)
Weight generation scheme         WeightScheme... mBecke (2022)
Basis function cutoff            BFCut       ... 1.0000e-11
Integration weight cutoff        WCut        ... 1.0000e-14
Partially contracted basis set               ... on
Rotationally invariant grid construction     ... off
Angular grids for H and He will be reduced by one unit

Total number of grid points                  ...    64962
Total number of batches                      ...      522
Average number of points per batch           ...      124
Average number of grid points per atom       ...     2499
UseSFitting                                  ... on
Initializing property integral containers    ... done (  0.0 sec)

SHARK setup successfully completed in   3.3 seconds

Maximum memory used throughout the entire STARTUP-calculation: 31.3 MB


           ************************************************************
           *        Program running with 40 parallel MPI-processes    *
           *              working on a common directory               *
           ************************************************************
-------------------------------------------------------------------------------
                                 ORCA GUESS
                   Start orbitals & Density for SCF / CASSCF
-------------------------------------------------------------------------------

------------
SCF SETTINGS
------------
Hamiltonian:
 Density Functional     Method          .... DFT(GTOs)
 Exchange Functional    Exchange        .... WB97X-V
 Correlation Functional Correlation     .... WB97X-V
 Gradients option       PostSCFGGA      .... off
 Hybrid DFT is turned on
   Fraction HF Exchange ScalHFX         ....  0.167000
   Scaling of DF-GGA-X  ScalDFX         ....  0.000000
   Scaling of DF-GGA-C  ScalDFC         ....  1.000000
   Scaling of DF-LDA-C  ScalLDAC        ....  1.000000
   Perturbative correction              ....  0.000000
 Long-range corrected/Screened/Range-Separated Hybrid DFT is turned on
   Amount of maximum screened exact exchange              ....  0.833000
   Range separation parameter mu (erf(mu*r12)/r12)        ....  0.300000
   NL short-range parameter             ....  6.000000
   NL long-range parameter              ....  0.010000
 RI-approximation to the Coulomb term is turned on
   Number of AuxJ basis functions       .... 666
   RIJ-COSX (HFX calculated with COS-X)).... on


General Settings:
 Integral files         IntName         .... ./output/_z_beta_ocimene/_z_beta_ocimene
 Hartree-Fock type      HFTyp           .... RHF
 Total Charge           Charge          ....    0
 Multiplicity           Mult            ....    1
 Number of Electrons    NEL             ....   56
 Basis Dimension        Dim             ....  210
 Nuclear Repulsion      ENuc            ....    265.4795824396 Eh

Convergence Acceleration:
 AO-DIIS                CNVDIIS         .... on
   Start iteration      DIISMaxIt       ....    12
   Startup error        DIISStart       ....  0.200000
   # of expansion vecs  DIISMaxEq       ....     5
   Bias factor          DIISBfac        ....   1.050
   Max. coefficient     DIISMaxC        ....  10.000
 MO-DIIS                CNVKDIIS        .... off
 Trust-Rad. Augm. Hess. CNVTRAH         .... auto
   Auto Start mean grad. ratio tolernc. ....  1.125000
   Auto Start start iteration           ....    50
   Auto Start num. interpolation iter.  ....    10
   Max. Number of Micro iterations      ....    24
   Max. Number of Macro iterations      .... Maxiter - #DIIS iter
   Number of Davidson start vectors     ....     2
   Converg. threshold    (grad. norm)   ....   1.000e-05
   Grad. Scal. Fac. for Micro threshold ....   0.100
   Minimum threshold for Micro iter.    ....   1.000e-02
   NR start threshold (gradient norm)   ....   1.000e-04
   Initial trust radius                 ....   0.400
   Minimum AH scaling param. (alpha)    ....   1.000
   Maximum AH scaling param. (alpha)    .... 1000.000
   Quad. conv. algorithm                .... NR
   White noise on init. David. guess    .... on
   Maximum white noise                  ....   0.010
   Pseudo random numbers                .... off
   Inactive MOs                         .... canonical
   Orbital update algorithm             .... Taylor
   Preconditioner                       .... Diag
   Full preconditioner red. dimension   ....   250
 SOSCF                  CNVSOSCF        .... on
   Start iteration      SOSCFMaxIt      ....   150
   Startup grad/error   SOSCFStart      ....  0.003300
   Hessian update       SOSCFHessUp     .... L-BFGS
 Level Shifting         CNVShift        .... on
   Level shift para.    LevelShift      ....    0.2500
   Turn off err/grad.   ShiftErr        ....    0.0010
 Zerner damping         CNVZerner       .... off
 Static damping         CNVDamp         .... on
   Fraction old density DampFac         ....    0.7000
   Max. Damping (<1)    DampMax         ....    0.9800
   Min. Damping (>=0)   DampMin         ....    0.0000
   Turn off err/grad.   DampErr         ....    0.1000

SCF Procedure:
 Maximum # iterations   MaxIter         ....   125
 SCF integral mode      SCFMode         .... Direct
   Integral package                     .... SHARK and LIBINT hybrid scheme
 Reset frequency        DirectResetFreq ....    20
 Integral Threshold     Thresh          ....  2.500e-11 Eh
 Primitive CutOff       TCut            ....  2.500e-12 Eh

Convergence Tolerance:
 Convergence Check Mode ConvCheckMode   .... Total+1el-Energy
 Convergence forced     ConvForced      .... 0
 Energy Change          TolE            ....  1.000e-08 Eh
 1-El. energy change                    ....  1.000e-05 Eh
 Orbital Gradient       TolG            ....  1.000e-05
 Orbital Rotation angle TolX            ....  1.000e-05
 DIIS Error             TolErr          ....  5.000e-07

------------------------------
INITIAL GUESS: MODEL POTENTIAL
------------------------------
Loading Hartree-Fock densities                     ... done
Atomic calculation to generate a density for atom 0 (C  with ECP)
  Multiplicity assumed   :    1
  Atomic configuration   : 1s2 2s2 2p2 
  Number of open shells  : 1
  Command: /home/aspe232/Project/Software/ORCA/6_0_1/build/orca ./output/_z_beta_ocimene/_z_beta_ocimene_atom6.inp "" > ./output/_z_beta_ocimene/_z_beta_ocimene_atom6.out
Returned from the atomic calculation with res=0
Calculating cut-offs                               ... done
Initializing the effective Hamiltonian             ... done
Setting up the integral package (SHARK)            ... done
Starting the Coulomb interaction                   ... done (   0.0 sec)
Making the grid                                    ... done (   0.8 sec)
Mapping shells                                     ... done
Starting the XC term evaluation                    ... done (   0.0 sec)
  promolecular density results
     # of electrons  =     75.997754362
     EX              =    -36.859330076
     EC              =     -3.002753129
     EX+EC           =    -39.862083205
Transforming the Hamiltonian                       ... done (   0.1 sec)
Diagonalizing the Hamiltonian                      ... done (   0.0 sec)
Back transforming the eigenvectors                 ... done (   0.0 sec)
Now organizing SCF variables                       ... done
                      ------------------
                      INITIAL GUESS DONE (   1.7 sec)
                      ------------------
             **** ENERGY FILE WAS UPDATED (./output/_z_beta_ocimene/_z_beta_ocimene.en.tmp) ****
Finished Guess after   2.2 sec
Maximum memory used throughout the entire GUESS-calculation: 19.4 MB


           ************************************************************
           *        Program running with 40 parallel MPI-processes    *
           *              working on a common directory               *
           ************************************************************

-------------------------------------------------------------------------------------------
                                      ORCA LEAN-SCF
                              memory conserving SCF solver
-------------------------------------------------------------------------------------------

----------------------------------------D-I-I-S--------------------------------------------
Iteration    Energy (Eh)           Delta-E    RMSDP     MaxDP     DIISErr   Damp  Time(sec)
-------------------------------------------------------------------------------------------
               ***  Starting incremental Fock matrix formation  ***
    1    -66.0877115191215694     0.00e+00  4.16e-03  7.32e-02  1.77e-01  0.700   4.3
    2    -66.2621055878480547    -1.74e-01  3.06e-03  5.19e-02  1.10e-01  0.700   3.8
                               ***Turning on AO-DIIS***
    3    -66.3568663125394664    -9.48e-02  1.57e-03  2.71e-02  5.98e-02  0.700   2.9
    4    -66.4128875162509189    -5.60e-02  3.34e-03  5.53e-02  3.83e-02  0.000   3.0
    5    -66.5297388777082119    -1.17e-01  2.31e-04  3.96e-03  4.25e-03  0.000   3.2
                              *** Initializing SOSCF ***
---------------------------------------S-O-S-C-F--------------------------------------
Iteration    Energy (Eh)           Delta-E    RMSDP     MaxDP     MaxGrad    Time(sec)
--------------------------------------------------------------------------------------
    6    -66.5300159299027314    -2.77e-04  1.11e-04  1.96e-03  1.65e-03     2.8
               *** Restarting incremental Fock matrix formation ***
    7    -66.5300406458434850    -2.47e-05  6.52e-05  1.29e-03  7.42e-04     3.7
    8    -66.5300518386025601    -1.12e-05  4.09e-05  8.69e-04  3.29e-04     3.4
    9    -66.5300554774997863    -3.64e-06  1.01e-05  1.75e-04  6.07e-05     3.6
   10    -66.5300556828843241    -2.05e-07  3.43e-06  7.28e-05  2.07e-05     3.4
   11    -66.5300557162347559    -3.34e-08  1.08e-06  2.22e-05  9.59e-06     3.2
   12    -66.5300557271037860    -1.09e-08  3.52e-07  1.38e-05  4.03e-06     3.2
   13    -66.5300557293078327    -2.20e-09  1.76e-07  4.49e-06  1.15e-06     3.1
                 **** Energy Check signals convergence ****

               *****************************************************
               *                     SUCCESS                       *
               *           SCF CONVERGED AFTER  13 CYCLES          *
               *****************************************************

Recomputing exchange energy using gridx3       ... done (    3.258 sec)
Old exchange energy                            :    -10.562038012 Eh
New exchange energy                            :    -10.562031237 Eh
Exchange energy change after final integration :      0.000006775 Eh
Total energy after final integration           :    -66.530048955 Eh
             **** ENERGY FILE WAS UPDATED (./output/_z_beta_ocimene/_z_beta_ocimene.en.tmp) ****

----------------
TOTAL SCF ENERGY
----------------

Total Energy       :        -66.53004895452655 Eh           -1810.37467 eV

Components:
Nuclear Repulsion  :        265.47958243956435 Eh            7224.06670 eV
Electronic Energy  :       -332.00963816887219 Eh           -9034.44156 eV
One Electron Energy:       -623.32055934795278 Eh          -16961.41472 eV
Two Electron Energy:        291.31092117908059 Eh            7926.97316 eV

Virial components:
Potential Energy   :       -118.33297401106182 Eh           -3220.00392 eV
Kinetic Energy     :         51.80292505653528 Eh            1409.62925 eV
Virial Ratio       :          2.28429135771617

DFT components:
N(Alpha)           :       28.000011630150 electrons
N(Beta)            :       28.000011630150 electrons
N(Total)           :       56.000023260301 electrons
E(X)               :      -10.674749439950 Eh       
E(C)               :       -2.061103307295 Eh       
E(XC)              :      -12.735852747245 Eh       

---------------
SCF CONVERGENCE
---------------

  Last Energy change         ...    2.2040e-09  Tolerance :   1.0000e-08
  Last MAX-Density change    ...    4.4950e-06  Tolerance :   1.0000e-07
  Last RMS-Density change    ...    1.7627e-07  Tolerance :   5.0000e-09
  Last DIIS Error            ...    1.6499e-03  Tolerance :   5.0000e-07
  Last Orbital Gradient      ...    1.1524e-06  Tolerance :   1.0000e-05
  Last Orbital Rotation      ...    1.6278e-06  Tolerance :   1.0000e-05


----------------
ORBITAL ENERGIES
----------------

  NO   OCC          E(Eh)            E(eV) 
   0   2.0000      -0.970374       -26.4052 
   1   2.0000      -0.948043       -25.7976 
   2   2.0000      -0.898496       -24.4493 
   3   2.0000      -0.855456       -23.2782 
   4   2.0000      -0.826517       -22.4907 
   5   2.0000      -0.813627       -22.1399 
   6   2.0000      -0.764122       -20.7928 
   7   2.0000      -0.693274       -18.8649 
   8   2.0000      -0.639893       -17.4124 
   9   2.0000      -0.635027       -17.2800 
  10   2.0000      -0.605177       -16.4677 
  11   2.0000      -0.573959       -15.6182 
  12   2.0000      -0.555179       -15.1072 
  13   2.0000      -0.548502       -14.9255 
  14   2.0000      -0.532995       -14.5035 
  15   2.0000      -0.529098       -14.3975 
  16   2.0000      -0.521558       -14.1923 
  17   2.0000      -0.504167       -13.7191 
  18   2.0000      -0.491039       -13.3618 
  19   2.0000      -0.482839       -13.1387 
  20   2.0000      -0.474497       -12.9117 
  21   2.0000      -0.463749       -12.6193 
  22   2.0000      -0.462030       -12.5725 
  23   2.0000      -0.438299       -11.9267 
  24   2.0000      -0.432275       -11.7628 
  25   2.0000      -0.405357       -11.0303 
  26   2.0000      -0.325806        -8.8656 
  27   2.0000      -0.314909        -8.5691 
  28   0.0000       0.056884         1.5479 
  29   0.0000       0.080593         2.1930 
  30   0.0000       0.085860         2.3364 
  31   0.0000       0.096861         2.6357 
  32   0.0000       0.104242         2.8366 
  33   0.0000       0.105423         2.8687 
  34   0.0000       0.118823         3.2333 
  35   0.0000       0.125781         3.4227 
  36   0.0000       0.132095         3.5945 
  37   0.0000       0.140983         3.8363 
  38   0.0000       0.152223         4.1422 
*Only the first 10 virtual orbitals were printed.

                    ********************************
                    * MULLIKEN POPULATION ANALYSIS *
                    ********************************

-----------------------
MULLIKEN ATOMIC CHARGES
-----------------------
   0 C :   -0.095327
   1 C :   -0.083549
   2 C :   -0.020971
   3 C :   -0.117476
   4 C :   -0.002537
   5 C :   -0.067557
   6 C :   -0.104429
   7 C :   -0.019892
   8 C :   -0.047021
   9 C :   -0.093683
  10 H :    0.036140
  11 H :    0.051862
  12 H :    0.051702
  13 H :    0.024082
  14 H :    0.052861
  15 H :    0.056195
  16 H :    0.014959
  17 H :    0.053170
  18 H :    0.048774
  19 H :    0.060078
  20 H :    0.012739
  21 H :    0.021141
  22 H :    0.026457
  23 H :    0.053132
  24 H :    0.033416
  25 H :    0.055734
Sum of atomic charges:    0.0000000

--------------------------------
MULLIKEN REDUCED ORBITAL CHARGES
--------------------------------
  0 C s       :     0.957663  s :     0.957663
      pz      :     0.990782  p :     3.064484
      px      :     1.036195
      py      :     1.037508
      dz2     :     0.015443  d :     0.073179
      dxz     :     0.011411
      dyz     :     0.020134
      dx2y2   :     0.017459
      dxy     :     0.008732

  1 C s       :     1.107326  s :     1.107326
      pz      :     0.915945  p :     2.858036
      px      :     0.990313
      py      :     0.951778
      dz2     :     0.025822  d :     0.118187
      dxz     :     0.037273
      dyz     :     0.015969
      dx2y2   :     0.015949
      dxy     :     0.023174

  2 C s       :     1.030904  s :     1.030904
      pz      :     0.940918  p :     2.899601
      px      :     0.943723
      py      :     1.014961
      dz2     :     0.018193  d :     0.090465
      dxz     :     0.032152
      dyz     :     0.009973
      dx2y2   :     0.012065
      dxy     :     0.018082

  3 C s       :     0.984095  s :     0.984095
      pz      :     1.005581  p :     3.031819
      px      :     0.969152
      py      :     1.057086
      dz2     :     0.016278  d :     0.101563
      dxz     :     0.024207
      dyz     :     0.022268
      dx2y2   :     0.022875
      dxy     :     0.015934

  4 C s       :     1.037062  s :     1.037062
      pz      :     0.973055  p :     2.872058
      px      :     0.927073
      py      :     0.971930
      dz2     :     0.012424  d :     0.093417
      dxz     :     0.019484
      dyz     :     0.009113
      dx2y2   :     0.029078
      dxy     :     0.023318

  5 C s       :     1.063699  s :     1.063699
      pz      :     0.965136  p :     2.883716
      px      :     0.957313
      py      :     0.961267
      dz2     :     0.016568  d :     0.120142
      dxz     :     0.019990
      dyz     :     0.018272
      dx2y2   :     0.034093
      dxy     :     0.031220

  6 C s       :     0.951926  s :     0.951926
      pz      :     1.049426  p :     3.079785
      px      :     1.056588
      py      :     0.973771
      dz2     :     0.011138  d :     0.072718
      dxz     :     0.011380
      dyz     :     0.020325
      dx2y2   :     0.019978
      dxy     :     0.009897

  7 C s       :     1.024660  s :     1.024660
      pz      :     0.941125  p :     2.896808
      px      :     0.972991
      py      :     0.982692
      dz2     :     0.007352  d :     0.098424
      dxz     :     0.022942
      dyz     :     0.007816
      dx2y2   :     0.036760
      dxy     :     0.023554

  8 C s       :     0.997709  s :     0.997709
      pz      :     0.994762  p :     2.983610
      px      :     0.991158
      py      :     0.997691
      dz2     :     0.004959  d :     0.065702
      dxz     :     0.009475
      dyz     :     0.006013
      dx2y2   :     0.029873
      dxy     :     0.015381

  9 C s       :     0.959638  s :     0.959638
      pz      :     0.982099  p :     3.060311
      px      :     1.026303
      py      :     1.051910
      dz2     :     0.016571  d :     0.073734
      dxz     :     0.013482
      dyz     :     0.017774
      dx2y2   :     0.018442
      dxy     :     0.007465

 10 H s       :     0.919605  s :     0.919605
      pz      :     0.010458  p :     0.044255
      px      :     0.023098
      py      :     0.010699

 11 H s       :     0.903681  s :     0.903681
      pz      :     0.018094  p :     0.044458
      px      :     0.010147
      py      :     0.016216

 12 H s       :     0.903799  s :     0.903799
      pz      :     0.011815  p :     0.044500
      px      :     0.012094
      py      :     0.020591

 13 H s       :     0.927241  s :     0.927241
      pz      :     0.020525  p :     0.048676
      px      :     0.012791
      py      :     0.015359

 14 H s       :     0.903509  s :     0.903509
      pz      :     0.011387  p :     0.043630
      px      :     0.009909
      py      :     0.022334

 15 H s       :     0.900569  s :     0.900569
      pz      :     0.016772  p :     0.043236
      px      :     0.011814
      py      :     0.014650

 16 H s       :     0.936049  s :     0.936049
      pz      :     0.014620  p :     0.048992
      px      :     0.011887
      py      :     0.022485

 17 H s       :     0.902084  s :     0.902084
      pz      :     0.019787  p :     0.044746
      px      :     0.014188
      py      :     0.010770

 18 H s       :     0.905071  s :     0.905071
      pz      :     0.011526  p :     0.046155
      px      :     0.024171
      py      :     0.010458

 19 H s       :     0.895972  s :     0.895972
      pz      :     0.016859  p :     0.043949
      px      :     0.010745
      py      :     0.016346

 20 H s       :     0.938678  s :     0.938678
      pz      :     0.013516  p :     0.048584
      px      :     0.010121
      py      :     0.024947

 21 H s       :     0.926630  s :     0.926630
      pz      :     0.015000  p :     0.052229
      px      :     0.011079
      py      :     0.026151

 22 H s       :     0.923305  s :     0.923305
      pz      :     0.014736  p :     0.050238
      px      :     0.023030
      py      :     0.012472

 23 H s       :     0.902865  s :     0.902865
      pz      :     0.017383  p :     0.044003
      px      :     0.011960
      py      :     0.014660

 24 H s       :     0.922407  s :     0.922407
      pz      :     0.010064  p :     0.044177
      px      :     0.022904
      py      :     0.011210

 25 H s       :     0.900173  s :     0.900173
      pz      :     0.011536  p :     0.044094
      px      :     0.010078
      py      :     0.022479



                     *******************************
                     * LOEWDIN POPULATION ANALYSIS *
                     *******************************

----------------------
LOEWDIN ATOMIC CHARGES
----------------------
   0 C :   -0.116028
   1 C :   -0.054561
   2 C :   -0.058459
   3 C :   -0.100227
   4 C :   -0.034947
   5 C :   -0.052923
   6 C :   -0.110007
   7 C :   -0.049636
   8 C :   -0.078228
   9 C :   -0.119938
  10 H :    0.050310
  11 H :    0.053837
  12 H :    0.053202
  13 H :    0.038425
  14 H :    0.053322
  15 H :    0.055922
  16 H :    0.036552
  17 H :    0.053866
  18 H :    0.055173
  19 H :    0.053599
  20 H :    0.047484
  21 H :    0.031297
  22 H :    0.034884
  23 H :    0.054307
  24 H :    0.047704
  25 H :    0.055070

-------------------------------
LOEWDIN REDUCED ORBITAL CHARGES
-------------------------------
  0 C s       :     0.777529  s :     0.777529
      pz      :     1.008591  p :     3.103240
      px      :     1.040418
      py      :     1.054231
      dz2     :     0.051444  d :     0.235258
      dxz     :     0.033869
      dyz     :     0.065216
      dx2y2   :     0.057838
      dxy     :     0.026890

  1 C s       :     0.801635  s :     0.801635
      pz      :     0.957656  p :     2.876953
      px      :     1.034565
      py      :     0.884732
      dz2     :     0.082540  d :     0.375973
      dxz     :     0.118099
      dyz     :     0.052715
      dx2y2   :     0.055984
      dxy     :     0.066635

  2 C s       :     0.806030  s :     0.806030
      pz      :     0.990345  p :     2.954261
      px      :     1.024743
      py      :     0.939173
      dz2     :     0.060067  d :     0.298168
      dxz     :     0.106437
      dyz     :     0.034509
      dx2y2   :     0.045500
      dxy     :     0.051654

  3 C s       :     0.757473  s :     0.757473
      pz      :     1.009434  p :     3.026705
      px      :     0.963465
      py      :     1.053806
      dz2     :     0.051312  d :     0.316050
      dxz     :     0.072990
      dyz     :     0.070559
      dx2y2   :     0.072206
      dxy     :     0.048982

  4 C s       :     0.806550  s :     0.806550
      pz      :     0.920174  p :     2.925351
      px      :     0.980209
      py      :     1.024968
      dz2     :     0.033203  d :     0.303046
      dxz     :     0.064450
      dyz     :     0.031541
      dx2y2   :     0.098692
      dxy     :     0.075161

  5 C s       :     0.795497  s :     0.795497
      pz      :     0.916684  p :     2.883867
      px      :     0.989573
      py      :     0.977610
      dz2     :     0.046459  d :     0.373560
      dxz     :     0.059367
      dyz     :     0.059128
      dx2y2   :     0.109152
      dxy     :     0.099454

  6 C s       :     0.774202  s :     0.774202
      pz      :     1.056911  p :     3.102989
      px      :     1.060668
      py      :     0.985410
      dz2     :     0.035163  d :     0.232816
      dxz     :     0.036136
      dyz     :     0.065111
      dx2y2   :     0.063803
      dxy     :     0.032604

  7 C s       :     0.808983  s :     0.808983
      pz      :     0.871913  p :     2.929100
      px      :     1.007364
      py      :     1.049823
      dz2     :     0.025039  d :     0.311554
      dxz     :     0.063500
      dyz     :     0.018486
      dx2y2   :     0.127394
      dxy     :     0.077135

  8 C s       :     0.829648  s :     0.829648
      pz      :     0.915994  p :     3.031276
      px      :     1.056250
      py      :     1.059032
      dz2     :     0.017531  d :     0.217303
      dxz     :     0.021978
      dyz     :     0.015544
      dx2y2   :     0.109057
      dxy     :     0.053194

  9 C s       :     0.778248  s :     0.778248
      pz      :     0.999831  p :     3.103814
      px      :     1.037527
      py      :     1.066456
      dz2     :     0.054891  d :     0.237877
      dxz     :     0.041804
      dyz     :     0.057433
      dx2y2   :     0.062198
      dxy     :     0.021550

 10 H s       :     0.804509  s :     0.804509
      pz      :     0.038818  p :     0.145181
      px      :     0.064928
      py      :     0.041436

 11 H s       :     0.798362  s :     0.798362
      pz      :     0.056303  p :     0.147801
      px      :     0.040097
      py      :     0.051401

 12 H s       :     0.798705  s :     0.798705
      pz      :     0.043839  p :     0.148093
      px      :     0.044292
      py      :     0.059962

 13 H s       :     0.807592  s :     0.807592
      pz      :     0.062923  p :     0.153983
      px      :     0.040246
      py      :     0.050814

 14 H s       :     0.798604  s :     0.798604
      pz      :     0.043873  p :     0.148074
      px      :     0.037938
      py      :     0.066263

 15 H s       :     0.796771  s :     0.796771
      pz      :     0.056175  p :     0.147307
      px      :     0.041544
      py      :     0.049588

 16 H s       :     0.808821  s :     0.808821
      pz      :     0.047366  p :     0.154626
      px      :     0.040887
      py      :     0.066374

 17 H s       :     0.798594  s :     0.798594
      pz      :     0.058258  p :     0.147540
      px      :     0.049365
      py      :     0.039917

 18 H s       :     0.795450  s :     0.795450
      pz      :     0.042813  p :     0.149376
      px      :     0.068244
      py      :     0.038319

 19 H s       :     0.797965  s :     0.797965
      pz      :     0.053020  p :     0.148436
      px      :     0.042092
      py      :     0.053324

 20 H s       :     0.804687  s :     0.804687
      pz      :     0.041989  p :     0.147830
      px      :     0.035432
      py      :     0.070409

 21 H s       :     0.813373  s :     0.813373
      pz      :     0.046593  p :     0.155331
      px      :     0.039054
      py      :     0.069684

 22 H s       :     0.811320  s :     0.811320
      pz      :     0.047281  p :     0.153795
      px      :     0.063350
      py      :     0.043164

 23 H s       :     0.798774  s :     0.798774
      pz      :     0.054684  p :     0.146919
      px      :     0.043429
      py      :     0.048806

 24 H s       :     0.806950  s :     0.806950
      pz      :     0.037627  p :     0.145346
      px      :     0.064642
      py      :     0.043077

 25 H s       :     0.798063  s :     0.798063
      pz      :     0.042989  p :     0.146867
      px      :     0.039775
      py      :     0.064103



                      *****************************
                      * MAYER POPULATION ANALYSIS *
                      *****************************

  NA   - Mulliken gross atomic population
  ZA   - Total nuclear charge
  QA   - Mulliken gross atomic charge
  VA   - Mayer's total valence
  BVA  - Mayer's bonded valence
  FA   - Mayer's free valence

  ATOM       NA         ZA         QA         VA         BVA        FA
  0 C      4.0953     4.0000    -0.0953     3.9852     3.9852     0.0000
  1 C      4.0835     4.0000    -0.0835     4.0677     4.0677    -0.0000
  2 C      4.0210     4.0000    -0.0210     3.9689     3.9689    -0.0000
  3 C      4.1175     4.0000    -0.1175     4.0379     4.0379    -0.0000
  4 C      4.0025     4.0000    -0.0025     3.9762     3.9762    -0.0000
  5 C      4.0676     4.0000    -0.0676     4.1183     4.1183     0.0000
  6 C      4.1044     4.0000    -0.1044     3.9911     3.9911     0.0000
  7 C      4.0199     4.0000    -0.0199     4.1000     4.1000     0.0000
  8 C      4.0470     4.0000    -0.0470     3.9840     3.9840     0.0000
  9 C      4.0937     4.0000    -0.0937     3.9720     3.9720    -0.0000
 10 H      0.9639     1.0000     0.0361     1.0304     1.0304     0.0000
 11 H      0.9481     1.0000     0.0519     1.0223     1.0223    -0.0000
 12 H      0.9483     1.0000     0.0517     1.0224     1.0224    -0.0000
 13 H      0.9759     1.0000     0.0241     1.0356     1.0356     0.0000
 14 H      0.9471     1.0000     0.0529     1.0067     1.0067    -0.0000
 15 H      0.9438     1.0000     0.0562     1.0065     1.0065    -0.0000
 16 H      0.9850     1.0000     0.0150     1.0398     1.0398    -0.0000
 17 H      0.9468     1.0000     0.0532     1.0240     1.0240     0.0000
 18 H      0.9512     1.0000     0.0488     1.0254     1.0254     0.0000
 19 H      0.9399     1.0000     0.0601     1.0134     1.0134     0.0000
 20 H      0.9873     1.0000     0.0127     1.0489     1.0489     0.0000
 21 H      0.9789     1.0000     0.0211     1.0429     1.0429     0.0000
 22 H      0.9735     1.0000     0.0265     1.0389     1.0389    -0.0000
 23 H      0.9469     1.0000     0.0531     1.0217     1.0217    -0.0000
 24 H      0.9666     1.0000     0.0334     1.0305     1.0305    -0.0000
 25 H      0.9443     1.0000     0.0557     1.0221     1.0221     0.0000

  Mayer bond orders larger than 0.100000
B(  0-C ,  1-C ) :   1.0206 B(  0-C , 10-H ) :   0.9944 B(  0-C , 11-H ) :   0.9817 
B(  0-C , 12-H ) :   0.9813 B(  1-C ,  2-C ) :   1.9080 B(  1-C ,  9-C ) :   1.0140 
B(  2-C ,  3-C ) :   1.0067 B(  2-C , 13-H ) :   0.9911 B(  3-C ,  4-C ) :   1.0267 
B(  3-C , 14-H ) :   0.9787 B(  3-C , 15-H ) :   0.9870 B(  4-C ,  5-C ) :   1.8302 
B(  4-C , 16-H ) :   0.9988 B(  5-C ,  6-C ) :   1.0270 B(  5-C ,  7-C ) :   1.1287 
B(  6-C , 17-H ) :   0.9869 B(  6-C , 18-H ) :   0.9896 B(  6-C , 19-H ) :   0.9759 
B(  7-C ,  8-C ) :   1.8763 B(  7-C , 20-H ) :   0.9988 B(  8-C , 21-H ) :   0.9988 
B(  8-C , 22-H ) :   0.9947 B(  9-C , 23-H ) :   0.9853 B(  9-C , 24-H ) :   0.9946 
B(  9-C , 25-H ) :   0.9857 

-------
TIMINGS
-------

Total SCF time: 0 days 0 hours 0 min 51 sec 

Total time                  ....      51.342 sec
Sum of individual times     ....      49.322 sec  ( 96.1%)

SCF preparation             ....       2.399 sec  (  4.7%)
Fock matrix formation       ....      45.654 sec  ( 88.9%)
  Startup                   ....       0.224 sec  (  0.5% of F)
  Split-RI-J                ....       1.280 sec  (  2.8% of F)
  Chain of spheres X        ....      20.094 sec  ( 44.0% of F)
  XC integration            ....      23.321 sec  ( 51.1% of F)
    XC Preparation          ....       0.000 sec  (  0.0% of XC)
    Basis function eval.    ....       0.450 sec  (  1.9% of XC)
    Density eval.           ....       0.171 sec  (  0.7% of XC)
    XC-Functional eval.     ....       0.173 sec  (  0.7% of XC)
    XC-Potential eval.      ....       0.226 sec  (  1.0% of XC)
Diagonalization             ....       0.000 sec  (  0.0%)
Density matrix formation    ....       0.213 sec  (  0.4%)
Total Energy calculation    ....       0.242 sec  (  0.5%)
Population analysis         ....       0.051 sec  (  0.1%)
Orbital Transformation      ....       0.060 sec  (  0.1%)
Orbital Orthonormalization  ....       0.000 sec  (  0.0%)
DIIS solution               ....       0.419 sec  (  0.8%)
SOSCF solution              ....       0.285 sec  (  0.6%)
Finished LeanSCF after  51.4 sec

Maximum memory used throughout the entire LEANSCF-calculation: 38.0 MB


           ************************************************************
           *        Program running with 40 parallel MPI-processes    *
           *              working on a common directory               *
           ************************************************************

------------------------------------------------------------------------------
                         ORCA PROPERTY INTEGRAL CALCULATIONS
------------------------------------------------------------------------------

GBWName                                   ... ./output/_z_beta_ocimene/_z_beta_ocimene.gbw
Number of atoms                           ...     26
Number of basis functions                 ...    210
Max core memory                           ...   1024 MB

Dipole integrals                          ... YES
Quadrupole integrals                      ...  NO
Linear momentum integrals                 ...  NO
Angular momentum integrals                ...  NO
Higher moments length integrals           ...  NO
Higher moments velocity integrals         ...  NO
Kinetic energy integrals                  ...  NO
GIAO right hand sides                     ...  NO
GIAO dipole derivative integrals          ...  NO
SOC integrals                             ...  NO
EPR diamagnetic integrals (GIAO)          ...  NO
EPR gauge integrals                       ...  NO
Field gradient integrals                  ...  NO (   0 nuclei)
Spin-dipole/Fermi contact integrals       ...  NO (   0 nuclei)
Contact density integrals                 ...  NO (   0 nuclei)
Nucleus-orbit integrals                   ...  NO (   0 nuclei)
Geometric perturbations                   ...  NO (  26 nuclei)

Choice of electric origin   ... Center of mass
Position of electric origin ... (  0.3706,  0.6985, -0.0555) 
Choice of magnetic origin   ... GIAO
Position of magnetic origin ... (  0.0000,  0.0000,  0.0000) 

Calculating integrals                     ... Electric Dipole (Length)     done (  0.0 sec)

Property integrals calculated in   0.0 sec

Maximum memory used throughout the entire PROPINT-calculation: 16.3 MB


-------------------------------------------------------------------------------
                          DFT DISPERSION CORRECTION                            
                                                                               
                                DFTD4 V3.4.0                                   
-------------------------------------------------------------------------------
The wB97X-3c composite method is recognized
Using three-body term ABC
Active option DFTDOPT                   ...         5   

-------------------------   ----------------
Dispersion correction           -0.027316972
-------------------------   ----------------


-------------------------   --------------------
FINAL SINGLE POINT ENERGY       -66.557365926041
-------------------------   --------------------



           ************************************************************
           *        Program running with 40 parallel MPI-processes    *
           *              working on a common directory               *
           ************************************************************
------------------------------------------------------------------------------
                         ORCA SCF GRADIENT CALCULATION
------------------------------------------------------------------------------

Nuc. rep. gradient        (SHARK) ... done (  0.0 sec)
HCore & Overlap gradient  (SHARK) ... done (  0.0 sec)
ECP gradient              (SHARK) ... done (  0.4 sec)
Split-RIJ-J gradient      (SHARK) ... done (  0.4 sec)
COSX-gradient                     ... done (  4.8 sec)
XC gradient                       ... done (  1.6 sec)
Dispersion correction             ... done (  0.1 sec)

-------------------
DISPERSION GRADIENT
-------------------

   1   C   :   -0.000461374   -0.000199979   -0.000408344
   2   C   :   -0.000378594    0.000028843    0.000144241
   3   C   :   -0.000127770    0.000269937    0.000149190
   4   C   :    0.000013485    0.000184833   -0.000436162
   5   C   :    0.000064398    0.000385746   -0.000336955
   6   C   :    0.000239318   -0.000018080   -0.000003401
   7   C   :    0.000014477   -0.000680729    0.000238255
   8   C   :    0.000484620    0.000258392    0.000037063
   9   C   :    0.000614588   -0.000032775    0.000083977
  10   C   :   -0.000295583    0.000084320    0.000491558
  11   H   :   -0.000100380   -0.000047415   -0.000085829
  12   H   :   -0.000141317   -0.000005878   -0.000121495
  13   H   :   -0.000136720   -0.000108553   -0.000099637
  14   H   :   -0.000031559    0.000107989    0.000130556
  15   H   :    0.000011564   -0.000030428   -0.000147591
  16   H   :    0.000039868    0.000089775   -0.000135739
[...]
 20:    462.95   0.000815    4.12  0.000549  (-0.013729  0.016516 -0.009372)
 21:    534.42   0.000485    2.45  0.000283  (-0.012760 -0.008245 -0.007228)
 22:    548.01   0.000082    0.42  0.000047  (-0.001839  0.002420  0.006126)
 23:    579.77   0.000261    1.32  0.000141  ( 0.005217 -0.007190 -0.007850)
 24:    702.09   0.000105    0.53  0.000047  ( 0.003424  0.004032  0.004338)
 25:    783.19   0.000657    3.32  0.000262  (-0.000958  0.013753 -0.008469)
 26:    823.90   0.000367    1.85  0.000139  (-0.002258 -0.006261  0.009728)
 27:    871.21   0.002558   12.93  0.000916  (-0.020383  0.022065  0.003715)
 28:    920.09   0.004515   22.81  0.001531  (-0.013182 -0.003656  0.036661)
 29:    949.94   0.009342   47.21  0.003069  (-0.016167  0.009497  0.052128)
 30:    974.25   0.003176   16.05  0.001017  ( 0.026060 -0.007374  0.016845)
 31:    985.57   0.000070    0.36  0.000022  (-0.001114  0.001101  0.004450)
 32:   1004.14   0.000272    1.38  0.000085  (-0.006402 -0.006204 -0.002273)
 33:   1033.29   0.000824    4.16  0.000249  ( 0.009962 -0.010470  0.006319)
 34:   1045.84   0.003204   16.19  0.000956  ( 0.008337 -0.004604 -0.029416)
 35:   1066.81   0.000903    4.56  0.000264  (-0.010394 -0.006647  0.010581)
 36:   1081.90   0.000058    0.29  0.000017  (-0.000751 -0.001225 -0.003812)
 37:   1085.63   0.000055    0.28  0.000016  (-0.001677  0.002946 -0.002110)
 38:   1125.21   0.001209    6.11  0.000335  ( 0.014735 -0.008244  0.007091)
 39:   1128.31   0.000057    0.29  0.000016  (-0.003132  0.001723 -0.001748)
 40:   1157.20   0.004403   22.25  0.001187  ( 0.034350  0.002698 -0.000225)
 41:   1211.61   0.000278    1.40  0.000072  (-0.003820 -0.001306  0.007434)
 42:   1275.62   0.000589    2.98  0.000144  (-0.008137  0.003026  0.008295)
 43:   1300.67   0.000296    1.50  0.000071  (-0.000822  0.006852 -0.004845)
 44:   1347.22   0.000154    0.78  0.000036  (-0.005232  0.002710  0.001015)
 45:   1359.28   0.000264    1.34  0.000061  ( 0.002916  0.007221 -0.000166)
 46:   1409.44   0.000381    1.92  0.000084  (-0.005979 -0.006940 -0.000626)
 47:   1416.80   0.000816    4.12  0.000180  ( 0.010797  0.005880 -0.005338)
 48:   1450.67   0.001185    5.99  0.000255  (-0.001496  0.002663  0.015672)
 49:   1458.62   0.002314   11.69  0.000495  ( 0.011836  0.014071  0.012527)
 50:   1467.76   0.001960    9.91  0.000417  ( 0.003409 -0.020116 -0.000699)
 51:   1476.11   0.000356    1.80  0.000075  (-0.006251  0.002729 -0.005359)
 52:   1501.57   0.000123    0.62  0.000026  (-0.001195 -0.001725  0.004597)
 53:   1509.03   0.001237    6.25  0.000256  (-0.005906  0.006656  0.013290)
 54:   1513.50   0.002224   11.24  0.000459  ( 0.008374 -0.007557 -0.018202)
 55:   1517.03   0.000868    4.39  0.000178  (-0.009403  0.007671 -0.005589)
 56:   1522.50   0.003093   15.63  0.000634  (-0.016709  0.013637 -0.012996)
 57:   1526.77   0.002231   11.27  0.000456  ( 0.013149  0.016627  0.002581)
 58:   1537.28   0.001378    6.97  0.000280  (-0.006758  0.001939 -0.015178)
 59:   1733.01   0.005654   28.57  0.001018  (-0.023546  0.019134 -0.009875)
 60:   1786.87   0.002984   15.08  0.000521  ( 0.022129 -0.003427  0.004439)
 61:   1806.22   0.000687    3.47  0.000119  ( 0.009973  0.004299  0.000821)
 62:   3093.12   0.005607   28.33  0.000566  ( 0.013111 -0.006274 -0.018825)
 63:   3097.42   0.009314   47.07  0.000938  (-0.024856 -0.017536  0.003605)
 64:   3107.71   0.005915   29.89  0.000594  (-0.004765  0.021141 -0.011148)
 65:   3108.75   0.002889   14.60  0.000290  (-0.005633 -0.002668 -0.015848)
 66:   3165.36   0.001496    7.56  0.000147  (-0.007691  0.007560 -0.005583)
 67:   3169.24   0.002956   14.94  0.000291  (-0.010669  0.010940 -0.007587)
 68:   3182.76   0.001654    8.36  0.000162  (-0.002771  0.003473  0.011936)
 69:   3185.16   0.000155    0.78  0.000015  ( 0.003209  0.002208 -0.000070)
 70:   3203.27   0.000930    4.70  0.000091  (-0.007239  0.003352  0.005195)
 71:   3208.65   0.003533   17.85  0.000344  ( 0.002861  0.014386  0.011335)
 72:   3212.56   0.001180    5.97  0.000115  (-0.007463 -0.007232 -0.002581)
 73:   3216.58   0.004555   23.02  0.000442  (-0.008543 -0.019140  0.001613)
 74:   3226.85   0.003683   18.61  0.000356  (-0.010900  0.003992  0.014882)
 75:   3228.56   0.001894    9.57  0.000183  (-0.010614 -0.007767 -0.003177)
 76:   3234.52   0.001675    8.46  0.000162  ( 0.011319  0.002309  0.005304)
 77:   3314.96   0.000724    3.66  0.000068  ( 0.006007  0.005613  0.000754)

* The epsilon (eps) is given for a Dirac delta lineshape.
** The dipole moment derivative (T) already includes vibrational overlap.

The first frequency considered to be a vibration is 6
The total number of vibrations considered is 72


--------------------------
THERMOCHEMISTRY AT 298.15K
--------------------------

Temperature         ...   298.15 K
Pressure            ...     1.00 atm
Total Mass          ...   136.24 AMU
Quasi RRHO          ...     True
Cut-Off Frequency   ...     1.00 cm^-1

Throughout the following assumptions are being made:
  (1) The electronic state is orbitally nondegenerate
  (2) There are no thermally accessible electronically excited states
  (3) Hindered rotations indicated by low frequency modes are not
      treated as such but are treated as vibrations and this may
      cause some error
  (4) All equations used are the standard statistical mechanics
      equations for an ideal gas
  (5) All vibrations are strictly harmonic

freq.      34.29  E(vib)   ...       0.54 
freq.      43.21  E(vib)   ...       0.53 
freq.      66.51  E(vib)   ...       0.50 
freq.     129.49  E(vib)   ...       0.43 
freq.     136.05  E(vib)   ...       0.42 
freq.     176.56  E(vib)   ...       0.38 
freq.     184.89  E(vib)   ...       0.37 
freq.     218.26  E(vib)   ...       0.33 
freq.     258.90  E(vib)   ...       0.30 
freq.     290.86  E(vib)   ...       0.27 
freq.     330.24  E(vib)   ...       0.24 
freq.     349.84  E(vib)   ...       0.23 
freq.     410.36  E(vib)   ...       0.19 
freq.     445.09  E(vib)   ...       0.17 
freq.     462.95  E(vib)   ...       0.16 
freq.     534.42  E(vib)   ...       0.13 
freq.     548.01  E(vib)   ...       0.12 
freq.     579.77  E(vib)   ...       0.11 
freq.     702.09  E(vib)   ...       0.07 
freq.     783.19  E(vib)   ...       0.05 
freq.     823.90  E(vib)   ...       0.05 
freq.     871.21  E(vib)   ...       0.04 
freq.     920.09  E(vib)   ...       0.03 
freq.     949.94  E(vib)   ...       0.03 
freq.     974.25  E(vib)   ...       0.03 
freq.     985.57  E(vib)   ...       0.02 
freq.    1004.14  E(vib)   ...       0.02 
freq.    1033.29  E(vib)   ...       0.02 
freq.    1045.84  E(vib)   ...       0.02 
freq.    1066.81  E(vib)   ...       0.02 
freq.    1081.90  E(vib)   ...       0.02 
freq.    1085.63  E(vib)   ...       0.02 
freq.    1125.21  E(vib)   ...       0.01 
freq.    1128.31  E(vib)   ...       0.01 
freq.    1157.20  E(vib)   ...       0.01 
freq.    1211.61  E(vib)   ...       0.01 
freq.    1275.62  E(vib)   ...       0.01 
freq.    1300.67  E(vib)   ...       0.01 
freq.    1347.22  E(vib)   ...       0.01 
freq.    1359.28  E(vib)   ...       0.01 
freq.    1409.44  E(vib)   ...       0.00 
freq.    1416.80  E(vib)   ...       0.00 
freq.    1450.67  E(vib)   ...       0.00 
freq.    1458.62  E(vib)   ...       0.00 
freq.    1467.76  E(vib)   ...       0.00 
freq.    1476.11  E(vib)   ...       0.00 
freq.    1501.57  E(vib)   ...       0.00 
freq.    1509.03  E(vib)   ...       0.00 
freq.    1513.50  E(vib)   ...       0.00 
freq.    1517.03  E(vib)   ...       0.00 
freq.    1522.50  E(vib)   ...       0.00 
freq.    1526.77  E(vib)   ...       0.00 
freq.    1537.28  E(vib)   ...       0.00 
freq.    1733.01  E(vib)   ...       0.00 
freq.    1786.87  E(vib)   ...       0.00 
freq.    1806.22  E(vib)   ...       0.00 
freq.    3093.12  E(vib)   ...       0.00 
freq.    3097.42  E(vib)   ...       0.00 
freq.    3107.71  E(vib)   ...       0.00 
freq.    3108.75  E(vib)   ...       0.00 
freq.    3165.36  E(vib)   ...       0.00 
freq.    3169.24  E(vib)   ...       0.00 
freq.    3182.76  E(vib)   ...       0.00 
freq.    3185.16  E(vib)   ...       0.00 
freq.    3203.27  E(vib)   ...       0.00 
freq.    3208.65  E(vib)   ...       0.00 
freq.    3212.56  E(vib)   ...       0.00 
freq.    3216.58  E(vib)   ...       0.00 
freq.    3226.85  E(vib)   ...       0.00 
freq.    3228.56  E(vib)   ...       0.00 
freq.    3234.52  E(vib)   ...       0.00 
freq.    3314.96  E(vib)   ...       0.00 

------------
INNER ENERGY
------------

The inner energy is: U= E(el) + E(ZPE) + E(vib) + E(rot) + E(trans)
    E(el)   - is the total energy from the electronic structure calculation
              = E(kin-el) + E(nuc-el) + E(el-el) + E(nuc-nuc)
    E(ZPE)  - the the zero temperature vibrational energy from the frequency calculation
    E(vib)  - the the finite temperature correction to E(ZPE) due to population
              of excited vibrational states
    E(rot)  - is the rotational thermal energy
    E(trans)- is the translational thermal energy

Summary of contributions to the inner energy U:
Electronic energy                ...    -66.57167160 Eh
Zero point energy                ...      0.23697791 Eh     148.71 kcal/mol
Thermal vibrational correction   ...      0.00949415 Eh       5.96 kcal/mol
Thermal rotational correction    ...      0.00141627 Eh       0.89 kcal/mol
Thermal translational correction ...      0.00141627 Eh       0.89 kcal/mol
-----------------------------------------------------------------------
Total thermal energy                    -66.32236699 Eh


Summary of corrections to the electronic energy:
(perhaps to be used in another calculation)
Total thermal correction                  0.01232670 Eh       7.74 kcal/mol
Non-thermal (ZPE) correction              0.23697791 Eh     148.71 kcal/mol
-----------------------------------------------------------------------
Total correction                          0.24930460 Eh     156.44 kcal/mol


--------
ENTHALPY
--------

The enthalpy is H = U + kB*T
                kB is Boltzmann's constant
Total thermal energy              ...    -66.32236699 Eh 
Thermal Enthalpy correction       ...      0.00094421 Eh       0.59 kcal/mol
-----------------------------------------------------------------------
Total Enthalpy                    ...    -66.32142278 Eh


Note: Only C1 symmetry has been detected, increase convergence thresholds 
      if your molecule has a higher symmetry. Symmetry factor of 1.0 is   
      used for the rotational entropy correction. 
 

Note: Rotational entropy computed according to Herzberg 
Infrared and Raman Spectra, Chapter V,1, Van Nostrand Reinhold, 1945 
Point Group:  C1, Symmetry Number:   1  
Rotational constants in cm-1:     0.088025     0.018934     0.018229 

Vibrational entropy computed according to the QRRHO of S. Grimme
Chem.Eur.J. 2012 18 9955 using a reference frequency of 100.0 cm-1


-------
ENTROPY
-------

The entropy contributions are T*S = T*(S(el)+S(vib)+S(rot)+S(trans))
     S(el)   - electronic entropy
     S(vib)  - vibrational entropy
     S(rot)  - rotational entropy
     S(trans)- translational entropy
The entropies will be listed as multiplied by the temperature to get
units of energy

Electronic entropy                ...      0.00000000 Eh      0.00 kcal/mol
Vibrational entropy               ...      0.01677401 Eh     10.53 kcal/mol
Rotational entropy                ...      0.01442134 Eh      9.05 kcal/mol
Translational entropy             ...      0.01930920 Eh     12.12 kcal/mol
-----------------------------------------------------------------------
Final entropy term                ...      0.05050455 Eh     31.69 kcal/mol

In case the symmetry of your molecule has not been determined correctly
or in case you have a reason to use a different symmetry number we print 
out the resulting rotational entropy values for sn=1,12:

 non-linear molecules -----------------------------------
|  sn= 1 | S(rot)=       0.01442134 Eh      9.05 kcal/mol|
|  sn= 2 | S(rot)=       0.01376688 Eh      8.64 kcal/mol|
|  sn= 3 | S(rot)=       0.01338405 Eh      8.40 kcal/mol|
|  sn= 4 | S(rot)=       0.01311243 Eh      8.23 kcal/mol|
|  sn= 5 | S(rot)=       0.01290174 Eh      8.10 kcal/mol|
|  sn= 6 | S(rot)=       0.01272960 Eh      7.99 kcal/mol|
|  sn= 7 | S(rot)=       0.01258405 Eh      7.90 kcal/mol|
|  sn= 8 | S(rot)=       0.01245797 Eh      7.82 kcal/mol|
|  sn= 9 | S(rot)=       0.01234676 Eh      7.75 kcal/mol|
|  sn=10 | S(rot)=       0.01224728 Eh      7.69 kcal/mol|
|  sn=11 | S(rot)=       0.01215729 Eh      7.63 kcal/mol|
|  sn=12 | S(rot)=       0.01207514 Eh      7.58 kcal/mol|
 linear molecules ---------------------------------------
|  Dinfh | S(rot)=       0.00910702 Eh      5.71 kcal/mol|
|  Cinfv | S(rot)=       0.00976148 Eh      6.13 kcal/mol|
 --------------------------------------------------------


-------------------
GIBBS FREE ENERGY
-------------------

The Gibbs free energy is G = H - T*S

Total enthalpy                    ...    -66.32142278 Eh 
Total entropy correction          ...     -0.05050455 Eh    -31.69 kcal/mol
-----------------------------------------------------------------------
Final Gibbs free energy         ...    -66.37192733 Eh

For completeness - the Gibbs free energy minus the electronic energy
G-E(el)                           ...      0.19974427 Eh    125.34 kcal/mol


Maximum memory used throughout the entire PROP-calculation: 112.7 MB

--------------------------------
SUGGESTED CITATIONS FOR THIS RUN
--------------------------------

Below you find a list of papers that are relevant to this ORCA run
We neither can nor want to force you to cite these papers, but we appreciate if you do
You receive ORCA, which is the product of decades of hard work by many enthusiastic individuals, for free
The only thing we kindly ask in return is that you cite our papers,
We deeply appreciate it, if you show your appreciation for ORCA by not just citing the generic ORCA reference.

Please note that relegating all ORCA citations to the supporting information does *not* help us.
SI sections are not indexed - citations you put there will not count into any citation statistics
But we need these citations in order to attract the funding resources that allow us to do what we are doing

Therefore, if you are a happy ORCA user, please consider citing a few of the papers listed below in the main body of your paper

In addition to the list printed below, the program has created the file ./output/_z_beta_ocimene/_z_beta_ocimene.bibtex that contains the list in bibtex format
You can import this file easily into all common literature databanks and citation aid programs


List of essential papers. We consider these as the minimum necessary citations

  1. Neese,F.
     Software update: the ORCA program system, version 5.0
     WIRES Comput. Molec. Sci., 2022 12(1)e1606
     doi.org/10.1002/wcms.1606
  2. Mueller,M.; Hansen,A.; Grimme,S.
     wB97X-3c: A composite range-separated hybrid DFT method with a molecule-optimized polarized valence double-zeta basis set
     J. Chem. Phys., 2023 158 014103
     doi.org/10.1063/5.0133026

List of papers to cite with high priority. The work reported in these papers was absolutely
necessary for this run to complete.
Our perspective: the developers of density functionals and basis sets usually get cited in chemistry papers
Good! But without the algorithms to do something with them, the functionals or basis sets would not do anything.
Hence, in our opinion, the algorithm design and method developments papers are equally worthy of getting cited

  1. Neese,F.
     An improvement of the resolution of the identity approximation for the formation of the Coulomb matrix
     J. Comp. Chem., 2003 24(14)1740-1747
     doi.org/10.1002/jcc.10318
  2. Neese,F.; Wennmohs,F.; Hansen,A.; Becker,U.
     Efficient, approximate and parallel Hartree-Fock and hybrid DFT calculations. A 'chain-of-spheres' algorithm for the Hartree-Fock exchange
     Chem. Phys., 2009 356(1-3)98-109
     doi.org/10.1016/j.chemphys.2008.10.036
  3. Bykov,D.; Petrenko,T.; Izsak,R.; Kossmann,S.; Becker,U.; Valeev,E.; Neese,F.
     Efficient implementation of the analytic second derivatives of Hartree-Fock and hybrid DFT energies: a detailed analysis of different approximations
     Molec. Phys., 2015 113 1961-1977
     doi.org/10.1080/00268976.2015.1025114
  4. Helmich-Paris,B.; de Souza,B.; Neese,F.; Izsák,R.
     An improved chain of spheres for exchange algorithm
     J. Chem. Phys., 2021 155 104109
     doi.org/doi: 10.1063/5.0058766.
  5. Neese,F.
     The SHARK Integral Generation and Digestion System
     J. Comp. Chem., 2022  1-16
     doi.org/10.1002/jcc.26942
  6. Caldeweyher,E.; Bannwarth,C.; Grimme,S.
     Extension of the D3 dispersion coefficient model
     J. Chem. Phys., 2017 147 034112
     doi.org/10.1063/1.4993215
  7. Caldeweyher,E.; Ehlert,S.; Hansen,A.; Neugebauer,H.; Spicher,S.; Bannwarth,C.; Grimme,S.
     A generally applicable atomic-charge dependent London dispersion correction
     J. Chem. Phys., 2019 150 154122
     doi.org/10.1063/1.5090222
  8. Caldeweyher,E.; Mewes,J.; Ehlert,S.; Grimme,S.
     Extension and evaluation of the D4 London-dispersion model for periodic systems
     Phys. Chem. Chem. Phys., 2020 22(16)8499-8512
     doi.org/10.1039/D0CP00502A
  9. Wittmann,L.; Gordiy,I.; Friede,M.; Helmich-Paris,B.; Grimme,S.; Hansen,A.; Bursch,M.
     Extension of the D3 and D4 London Dispersion Corrections to the full Actinides Series
     Phys. Chem. Chem. Phys., 2024 26(32)21379-21394
     doi.org/https://doi.org/10.1039/D4CP01514B 

List of suggested additional citations. These are papers that are important in the 'surrounding' of 
of this run, or papers that preceded the highly important papers. If you like your results we are grateful for a citation.

  1. Izsak,R.; Neese,F.
     An overlap fitted chain of spheres exchange method
     J. Chem. Phys., 2011 135 144105
     doi.org/10.1063/1.3646921
  2. Izsak,R.; Hansen,A.; Neese,F.
     The resolution of identity and chain of spheres approximations for the LPNO-CCSD singles Fock term
     Molec. Phys., 2012 110 2413-2417
     doi.org/10.1080/00268976.2012.687466
  3. Neese,F.
     The ORCA program system
     WIRES Comput. Molec. Sci., 2012 2(1)73-78
     doi.org/10.1002/wcms.81
  4. Izsak,R.; Neese,F.; Klopper,W.
     Robust fitting techniques in the chain of spheres approximation to the Fock exchange: The role of the complementary space
     J. Chem. Phys., 2013 139 
     doi.org/10.1063/1.4819264
  5. Neese,F.
     Software update: the ORCA program system, version 4.0
     WIRES Comput. Molec. Sci., 2018 8(1)1-6
     doi.org/10.1002/wcms.1327
  6. Neese,F.; Wennmohs,F.; Becker,U.; Riplinger,C.
     The ORCA quantum chemistry program package
     J. Chem. Phys., 2020 152 Art. No. L224108
     doi.org/10.1063/5.0004608

List of optional additional citations

  1. Neese,F.
     Approximate second-order SCF convergence for spin unrestricted wavefunctions
     Chem. Phys. Lett., 2000 325(1-3)93-98
     doi.org/10.1016/s0009-2614(00)00662-x

Timings for individual modules:

Sum of individual times          ...     1981.514 sec (=  33.025 min)
Startup calculation              ...      127.188 sec (=   2.120 min)   6.4 %
SCF iterations                   ...     1404.036 sec (=  23.401 min)  70.9 %
Property integrals               ...       66.109 sec (=   1.102 min)   3.3 %
SCF Response                     ...       35.023 sec (=   0.584 min)   1.8 %
Property calculations            ...       66.975 sec (=   1.116 min)   3.4 %
SCF Gradient evaluation          ...      281.660 sec (=   4.694 min)  14.2 %
Geometry relaxation              ...        0.522 sec (=   0.009 min)   0.0 %
                             ****ORCA TERMINATED NORMALLY****
TOTAL RUN TIME: 0 days 0 hours 33 minutes 19 seconds 489 msec
