
                                 *****************
                                 * O   R   C   A *
                                 *****************

                                            #,                                       
                                            ###                                      
                                            ####                                     
                                            #####                                    
                                            ######                                   
                                           ########,                                 
                                     ,,################,,,,,                         
                               ,,#################################,,                 
                          ,,##########################################,,             
                       ,#########################################, ''#####,          
                    ,#############################################,,   '####,        
                  ,##################################################,,,,####,       
                ,###########''''           ''''###############################       
              ,#####''   ,,,,##########,,,,          '''####'''          '####       
            ,##' ,,,,###########################,,,                        '##       
           ' ,,###''''                  '''############,,,                           
         ,,##''                                '''############,,,,        ,,,,,,###''
      ,#''                                            '''#######################'''  
     '                                                          ''''####''''         
             ,#######,   #######,   ,#######,      ##                                
            ,#'     '#,  ##    ##  ,#'     '#,    #''#        ,####,   ,####,        
            ##       ##  ##   ,#'  ##            #'  '#       #'       #'  '#        
            ##       ##  #######   ##           ,######,      #####,   #    #        
            '#,     ,#'  ##    ##  '#,     ,#' ,#      #,     #,   #   #,  ,#        
             '#######'   ##     ##  '#######'  #'      '#     '####' # '####'        



                #########################################################
                #                        -***-                          #
                #          Department of theory and spectroscopy        #
                #                                                       #
                #                      Frank Neese                      #
                #                                                       #
                #     Directorship, Architecture, Infrastructure        #
                #                    SHARK, DRIVERS                     #
                #        Core code/Algorithms in most modules           #
                #                                                       #
                #        Max Planck Institute fuer Kohlenforschung      #
                #                Kaiser Wilhelm Platz 1                 #
                #                 D-45470 Muelheim/Ruhr                 #
                #                      Germany                          #
                #                                                       #
                #                  All rights reserved                  #
                #                        -***-                          #
                #########################################################


                         Program Version 6.0.1  -  RELEASE   -


 With contributions from (in alphabetic order):
[Max-Planck-Institut fuer Kohlenforschung]                               
  Daniel Aravena         : Magnetic Suceptibility                        
  Michael Atanasov       : Ab Initio Ligand Field Theory (pilot matlab implementation)
  Alexander A. Auer      : GIAO ZORA, VPT2 properties, NMR spectrum      
  Ute Becker             : All parallelization in ORCA, NUMFREQ, NUMCALC 
  Giovanni Bistoni       : ED, misc. LED, open-shell LED, HFLD           
  Martin Brehm           : Molecular dynamics                            
  Dmytro Bykov           : pre 5.0 version of the SCF Hessian            
  Marcos Casanova-Páez   : Triplet and SCS-CIS(D). UHF-(DLPNO)-IP/EA/STEOM-CCSD. UHF-CVS-IP/STEOM-CCSD   
  Vijay G. Chilkuri      : MRCI spin determinant printing, contributions to CSF-ICE 
  Pauline Colinet        : FMM embedding                                 
  Dipayan Datta          : RHF DLPNO-CCSD density                        
  Achintya Kumar Dutta   : EOM-CC, STEOM-CC                              
  Nicolas Foglia         : Exact transition moments, OPA infrastructure, MCD improvements    
  Dmitry Ganyushin       : Spin-Orbit,Spin-Spin,Magnetic field MRCI      
  Miquel Garcia-Rates    : C-PCM and meta-GGA Hessian, CCSD/C-PCM, Gaussian charge scheme 
  Tiago L. C. Gouveia    : GS-ROHF, GS-ROCIS                             
  Yang Guo               : DLPNO-NEVPT2, F12-NEVPT2, CIM, IAO-localization        
  Andreas Hansen         : Spin unrestricted coupled pair/coupled cluster methods 
  Ingolf Harden          : AUTO-CI MPn and infrastructure                
  Benjamin Helmich-Paris : MC-RPA, TRAH-(SCF,CASSCF), AVAS, COSX integrals, SCF dyn. polar. 
  Lee Huntington         : MR-EOM, pCC                                   
  Robert Izsak           : Overlap fitted RIJCOSX, COSX-SCS-MP3, EOM     
  Riya Kayal             : Wick's Theorem for AUTO-CI, AUTO-CI UHF-CCSDT 
  Emily Kempfer          : AUTO-CI, RHF CISDT and CCSDT                  
  Christian Kollmar      : KDIIS, OOCD, Brueckner-CCSD(T), CCSD density, CASPT2, CASPT2-K, improved NEVPT2 
  Axel Koslowski         : Symmetry handling                             
  Simone Kossmann        : meta-GGA functionals, TD-DFT gradient, OOMP2, (MP2 Hessian; deprecated post 5.0) 
  Lucas Lang             : DCDCAS                                        
  Marvin Lechner         : AUTO-CI (C++ implementation), FIC-MRCC        
  Spencer Leger          : CASSCF response                               
  Dagmar Lenk            : GEPOL surface, SMD, ORCA-2-JSON               
  Dimitrios Liakos       : Extrapolation schemes; Compound Job, initial MDCI parallelization 
  Dimitrios Manganas     : Further ROCIS development; embedding schemes. LFT, Crystal Embedding 
  Dimitrios Pantazis     : SARC Basis sets                               
  Anastasios Papadopoulos: AUTO-CI, single reference methods and gradients 
  Taras Petrenko         : pre 6.0 DFT Hessian and TD-DFT gradient, (ASA, deprecated), ECA, 1-Electron XAS/XES, NRVS 
  Peter Pinski           : DLPNO-MP2, DLPNO-MP2 Gradient                 
  Christoph Reimann      : Effective Core Potentials                     
  Marius Retegan         : Local ZFS, SOC                                
  Christoph Riplinger    : Optimizer, TS searches, QM/MM, DLPNO-CCSD(T), (RO)-DLPNO pert. Triples 
  Michael Roemelt        : Original ROCIS implementation                 
  Masaaki Saitow         : Open-shell DLPNO-CCSD energy and density      
  Barbara Sandhoefer     : DKH picture change effects                    
  Kantharuban Sivalingam : CASSCF convergence/infrastructure, NEVPT2 and variants, FIC-MRCI 
  Bernardo de Souza      : ESD, SOC TD-DFT                               
  Georgi L. Stoychev     : AutoAux, RI-MP2 NMR, DLPNO-MP2 response, X2C  
  Van Anh Tran           : RI-MP2 g-tensors                              
  Willem Van den Heuvel  : Paramagnetic NMR                              
  Zikuan Wang            : NOTCH, Electric field optimization            
  Frank Wennmohs         : Technical directorship and infrastructure     
  Hang Xu                : AUTO-CI-Response properties                   
                                                                         
[FACCTs GmbH]                                                            
  Markus Bursch, Miquel Garcia-Rates, Christoph Riplinger, Bernardo de Souza, Georgi L. Stoychev 
                                                                 
  APM, Basis sets (HGBS, AHGBS, def-TZVP (Ac-Lr), def2-XVPD (La-Lu)), CI-OPT, improved COSX, DLPNO-Multilevel,           
  DOCKER, DRACO, updates on ESD, GOAT, IRC, LR-CPCM, MBIS, meta-GGA TD-DFT gradient, ML-optimized integration grids, 
  MM, NACMEs, nearIR, NEB, NEB-TS, NL-DFT gradient (VV10), 2- and 3-layer-ONIOM, interface openCOSMO-RS, QMMM,   
  Crystal-QMMM, SF, symmetry and pop. for TD-DFT, r2SCAN hybrids, SOLVATOR                                   
                                                                         
[Other institutions]                                                     
  V. Asgeirsson          : NEB                                           
  Christoph Bannwarth    : sTDA-DFT, sTD-DFT, PBEh-3c, B97-3c, D3        
  Sebastian Ehlert       : rSCAN, r2SCAN, r2SCAN-3c, D4, dhf basis sets  
  Marvin Friede          : D4 for Fr, Ra, Ac-Lr                          
  Lars Goerigk           : TD-DFT with DH, B97 family of functionals     
  Stefan Grimme          : VdW corrections, initial TS optimization, DFT functionals, gCP, sTDA/sTD-DF 
  Waldemar Hujo          : DFT-NL                                        
  H. Jonsson             : NEB                                           
  Holger Kruse           : gCP                                           
  Marcel Mueller         : wB97X-3c, vDZP basis set                      
  Hagen Neugebauer       : wr2SCAN                                       
  Tobias Risthaus        : range-separated hybrid DFT                    
  Lukas Wittmann         : regularized MP2, r2SCAN double-hybrids, wr2SCAN        
                                                                         
We gratefully acknowledge several colleagues who have allowed us to      
interface, adapt or use parts of their codes:                            
  Ed Valeev, F. Pavosevic, A. Kumar             : LibInt (2-el integral package), F12 methods 
  Garnet Chan, S. Sharma, J. Yang, R. Olivares  : DMRG                   
  Ulf Ekstrom                                   : XCFun DFT Library      
  Mihaly Kallay                                 : mrcc  (arbitrary order and MRCC methods)
  Frank Weinhold                                : gennbo (NPA and NBO analysis)           
  Simon Mueller                                 : openCOSMO-RS                            
  Christopher J. Cramer and Donald G. Truhlar   : smd solvation model                     
  S Lehtola, MJT Oliveira, MAL Marques          : LibXC Library                           
  Liviu Ungur et al                             : ANISO software                          


 Your calculation uses the libint2 library for the computation of 2-el integrals
 For citations please refer to: http://libint.valeyev.net

 Your ORCA version has been built with support for libXC version: 6.2.2
 For citations please refer to: https://libxc.gitlab.io

 This ORCA versions uses:
   CBLAS   interface :  Fast vector & matrix operations
   LAPACKE interface :  Fast linear algebra routines
   SCALAPACK package :  Parallel linear algebra routines
   Shared memory     :  Shared parallel matrices
   BLAS/LAPACK       :  OpenBLAS 0.3.27  USE64BITINT DYNAMIC_ARCH NO_AFFINITY SkylakeX SINGLE_THREADED
        Core in use  :  SkylakeX
   Copyright (c) 2011-2014, The OpenBLAS Project


Your calculation utilizes the atom-pairwise dispersion correction
based on EEQ partial charges (D4)


================================================================================

cite the ECPs for C  [vDZP-ECP] as follows:
   B-Ne (ecp-2-mwb), Al-Ar (ecp-10-mwb), Ga-Kr (ecp-28-mwb), Y-Cd (ecp-28-mwb), In-Xe (ecp-46-mwb):
     A. Bergner, M. Dolg, W. Küchle, H. Stoll, and H. Preuß, Mol. Phys. 80, 1431 (1993)., T. Leininger, A. Berning, A. Nicklass, H. Stoll, H.-J. Werner, and H.-J.Flad, Chem. Phys. 217, 19 (1997).
   Na-Mg, K-Ca, Rb-Sr, Cs-Ba (CRENBL):
     L. Fernandez Pacios and P. A. Christiansen, J. Chem. Phys. 82, 2664 (1985)., M. M. Hurley, L. F. Pacios, P. A. Christiansen, R. B. Ross, and W. C. Ermler, J. Chem. Phys. 84, 6840 (1986)., L. A. LaJohn, P. A. Christiansen, R. B. Ross, T. Atashroo, and W. C. Ermler, J. Chem. Phys. 87, 2812 (1987)., R. B. Ross, J. M. Powers, T. Atashroo, W. C. Ermler, L. A. LaJohn, and P. A. Christiansen, J. Chem. Phys. 93, 6654 (1990). 
   Sc-Zn (ecp-10-mdf):
     M. Dolg, U. Wedig, H. Stoll, and H. Preuss, J. Chem. Phys. 86, 866 (1986). 
   Y-Cd (ecp-28-mwb), Hf-Hg (ecp-60-mwb):
     D. Andrae, U. Häußermann, M. Dolg, H. Stoll, and H. Preuß, Theor. Chim. Acta 77, 123 (1990). 
   La (ecp-46-mwb):
     M. Dolg, H. Stoll, and H. Preuss, J. Chem. Phys. 90, 1730 (1989)., M. Dolg, H. Stoll, and H. Preuss, Theor. Chim. Acta 85, 441 (1993).
   Ce-Lu (SBKJC-ecp):
     T. R. Cundari and W. J. Stevens, J. Chem. Phys. 98, 5555 (1993).
   Tl-Rn (ecp-78-mwb):
     W. Küchle, M. Dolg, H. Stoll, and H. Preuss, Mol. Phys. 74, 1245 (1991).

ECP parameters for C  [vDZP-ECP] have been obtained from:
MM, AH, SG, J. Chem. Phys. 158, 014103 (2023), 10.1063/5.0133026

----- Orbital basis set information -----
Your calculation utilizes the basis: vDZP
   Marcel Mueller, Andreas Hansen, Stefan Grimme 
   J. Chem. Phys. 158, 014103 (2023). DOI: 10.1063/5.0133026

----- AuxJ basis set information -----
Your calculation utilizes the auxiliary basis: def2/J
   F. Weigend, Phys. Chem. Chem. Phys. 8, 1057 (2006).

================================================================================
                                        WARNINGS
                       Please study these warnings very carefully!
================================================================================

WARNING: Frozen-Core approximation turned on, but there are no core electrons.
  ===> : Turning off frozen-core approximation


WARNING: Geometry Optimization
  ===> : Switching off AutoStart
         For restart on a previous wavefunction, please use MOREAD

================================================================================
                                       INPUT FILE
================================================================================
NAME = ./output/germacrene_b/germacrene_b.inp
|  1> ! wB97X-3c OPT FREQ TightSCF
|  2> %pal
|  3>   nprocs 40
|  4> end
|  5> * xyz 0 1
|  6> C      0.744404    -1.933800    -1.495146
|  7> C      0.829482    -1.607606    -0.022862
|  8> C      1.956793    -1.103524     0.525914
|  9> C      3.111176    -0.518428    -0.264326
| 10> C      2.798670     0.865642    -0.891635
| 11> C      1.709186     1.608041    -0.140235
| 12> C      0.440939     1.527500    -0.603157
| 13> C     -0.792938     1.707375     0.239329
| 14> C     -1.525765     0.370159     0.340579
| 15> C     -2.585347     0.075838    -0.479713
| 16> C     -3.015290     1.023258    -1.579931
| 17> C     -3.374131    -1.210519    -0.356374
| 18> C     -1.027350    -0.601650     1.414149
| 19> C     -0.360700    -1.888420     0.873048
| 20> C      2.038135     2.195180     1.210333
| 21> H      1.495907    -2.710628    -1.748212
| 22> H      0.933192    -1.036015    -2.113172
| 23> H     -0.259329    -2.322204    -1.765660
| 24> H      2.001663    -0.979312     1.604998
| 25> H      3.444900    -1.230489    -1.048998
| 26> H      3.965048    -0.393473     0.436259
| 27> H      3.723587     1.481913    -0.899373
| 28> H      2.518476     0.730216    -1.958847
| 29> H      0.271658     1.137968    -1.602182
| 30> H     -1.416964     2.503134    -0.212007
| 31> H     -0.563649     2.079500     1.257805
| 32> H     -3.787073     0.567059    -2.234939
| 33> H     -2.150781     1.281533    -2.226450
| 34> H     -3.448865     1.945582    -1.140058
| 35> H     -4.395446    -1.087351    -0.774109
| 36> H     -3.508684    -1.516861     0.699795
| 37> H     -2.874516    -2.015219    -0.932342
| 38> H     -0.291586    -0.090405     2.070579
| 39> H     -1.865361    -0.875985     2.087710
| 40> H     -0.018468    -2.497613     1.738026
| 41> H     -1.104195    -2.518226     0.351311
| 42> H      3.136009     2.209271     1.375688
| 43> H      1.580568     1.588681     2.018891
| 44> H      1.666647     3.239877     1.268177
| 45> *
| 46> 
| 47>                          ****END OF INPUT****
================================================================================

                       *****************************
                       * Geometry Optimization Run *
                       *****************************

Geometry optimization settings:
Update method            Update   .... BFGS
Choice of coordinates    CoordSys .... (2022) Redundant Internals
Initial Hessian          InHess   .... Almloef's Model
Max. no of cycles        MaxIter  .... 117

Convergence Tolerances:
Energy Change            TolE     ....  5.0000e-06 Eh
Max. Gradient            TolMAXG  ....  3.0000e-04 Eh/bohr
RMS Gradient             TolRMSG  ....  1.0000e-04 Eh/bohr
Max. Displacement        TolMAXD  ....  4.0000e-03 bohr
RMS Displacement         TolRMSD  ....  2.0000e-03 bohr
Strict Convergence                .... False

------------------------------------------------------------------------------
                        ORCA OPTIMIZATION COORDINATE SETUP
------------------------------------------------------------------------------

The optimization will be done in redundant internal coordinates (2022)
Making redundant internal coordinates   ...  (2022 redundants) done
Evaluating the initial hessian          ...  (Almloef) done
Evaluating the coordinates              ...  done
Calculating the B-matrix                .... done
Calculating the G-matrix                .... done
Diagonalizing the G-matrix              .... done
Small eigenvalue found = 9.196e-03
Small eigenvalue found = 1.359e-02
Small eigenvalue found = 2.051e-02
Small eigenvalue found = 2.468e-02
Small eigenvalue found = 2.922e-02
The first mode is                       ....   74
The number of degrees of freedom        ....  111

    -----------------------------------------------------------------
                    Redundant Internal Coordinates


    -----------------------------------------------------------------
         Definition                    Initial Value    Approx d2E/dq
    -----------------------------------------------------------------
      1. B(C   1,C   0)                  1.5104         0.401488   
      2. B(C   2,C   1)                  1.3513         0.720177   
      3. B(C   3,C   2)                  1.5164         0.392738   
      4. B(C   4,C   3)                  1.5514         0.345337   
      5. B(C   5,C   4)                  1.5175         0.391164   
      6. B(C   6,C   5)                  1.3525         0.717101   
      7. B(C   7,C   6)                  1.5049         0.409726   
      8. B(C   8,C   7)                  1.5282         0.376036   
      9. B(C   9,C   8)                  1.3719         0.667656   
     10. B(C  10,C   9)                  1.5142         0.395836   
     11. B(C  11,C   9)                  1.5140         0.396234   
     12. B(C  12,C   8)                  1.5315         0.371571   
     13. B(C  13,C  12)                  1.5469         0.351049   
     14. B(C  13,C   1)                  1.5159         0.393391   
     15. B(C  14,C   5)                  1.5090         0.403588   
     16. B(H  15,C   0)                  1.1101         0.334502   
     17. B(H  16,C   0)                  1.1062         0.339330   
     18. B(H  17,C   0)                  1.1097         0.334915   
     19. B(H  18,C   2)                  1.0871         0.363909   
     20. B(H  19,C   3)                  1.1109         0.333479   
     21. B(H  20,C   3)                  1.1115         0.332698   
     22. B(H  21,C   4)                  1.1115         0.332813   
     23. B(H  22,C   4)                  1.1117         0.332556   
     24. B(H  23,C   6)                  1.0856         0.366021   
     25. B(H  24,C   7)                  1.1074         0.337796   
     26. B(H  25,C   7)                  1.1083         0.336679   
     27. B(H  26,C  10)                  1.1103         0.334203   
     28. B(H  27,C  10)                  1.1100         0.334608   
     29. B(H  28,C  10)                  1.1100         0.334559   
     30. B(H  29,C  11)                  1.1103         0.334227   
     31. B(H  30,C  11)                  1.1079         0.337182   
     32. B(H  31,C  11)                  1.1086         0.336371   
     33. B(H  32,C  12)                  1.1107         0.333751   
     34. B(H  33,C  12)                  1.1096         0.335086   
     35. B(H  34,C  13)                  1.1119         0.332207   
     36. B(H  35,C  13)                  1.1053         0.340440   
     37. B(H  36,C  14)                  1.1103         0.334166   
     38. B(H  37,C  14)                  1.1095         0.335215   
     39. B(H  38,C  14)                  1.1103         0.334236   
     40. A(C   1,C   0,H  16)          111.0829         0.324994   
     41. A(H  16,C   0,H  17)          107.5919         0.284902   
     42. A(C   1,C   0,H  15)          109.5860         0.324229   
     43. A(C   1,C   0,H  17)          111.3553         0.324295   
     44. A(H  15,C   0,H  16)          108.9691         0.284848   
     45. A(H  15,C   0,H  17)          108.1689         0.284268   
     46. A(C   0,C   1,C   2)          121.5613         0.412527   
     47. A(C   2,C   1,C  13)          118.9509         0.411039   
     48. A(C   0,C   1,C  13)          119.4628         0.371144   
     49. A(C   1,C   2,H  18)          118.6949         0.362660   
     50. A(C   1,C   2,C   3)          124.5672         0.410918   
     51. A(C   3,C   2,H  18)          116.2168         0.327566   
     52. A(C   4,C   3,H  19)          110.2884         0.316186   
     53. A(C   2,C   3,H  20)          107.4404         0.322773   
     54. A(C   2,C   3,H  19)          110.4548         0.322897   
     55. A(H  19,C   3,H  20)          106.6471         0.283839   
     56. A(C   4,C   3,H  20)          108.0173         0.316065   
     57. A(C   2,C   3,C   4)          113.6788         0.361583   
     58. A(C   5,C   4,H  22)          110.7324         0.322538   
     59. A(H  21,C   4,H  22)          105.7007         0.283732   
     60. A(C   3,C   4,H  21)          109.2602         0.316083   
     61. A(C   3,C   4,H  22)          109.2853         0.316043   
     62. A(C   5,C   4,H  21)          109.2472         0.322579   
     63. A(C   3,C   4,C   5)          112.3875         0.361335   
     64. A(C   4,C   5,C   6)          118.3347         0.410314   
     65. A(C   6,C   5,C  14)          122.2716         0.412596   
     66. A(C   4,C   5,C  14)          118.4919         0.371115   
     67. A(C   5,C   6,C   7)          124.7586         0.413703   
     68. A(C   7,C   6,H  23)          115.4834         0.330179   
     69. A(C   5,C   6,H  23)          118.8542         0.362753   
     70. A(C   6,C   7,C   8)          109.0070         0.369564   
     71. A(H  24,C   7,H  25)          104.4678         0.284934   
     72. A(C   8,C   7,H  25)          109.3975         0.321109   
     73. A(C   6,C   7,H  25)          112.6420         0.325661   
     74. A(C   8,C   7,H  24)          112.6783         0.321283   
     75. A(C   6,C   7,H  24)          108.6480         0.325838   
     76. A(C   9,C   8,C  12)          122.3004         0.401504   
     77. A(C   7,C   8,C  12)          116.4640         0.363425   
     78. A(C   7,C   8,C   9)          121.2289         0.402350   
     79. A(C  10,C   9,C  11)          116.2871         0.370699   
     80. A(C   8,C   9,C  11)          122.4084         0.406083   
     81. A(C   8,C   9,C  10)          121.2980         0.406010   
     82. A(H  27,C  10,H  28)          109.9800         0.284235   
     83. A(H  26,C  10,H  28)          107.6777         0.284181   
     84. A(C   9,C  10,H  28)          110.0508         0.323485   
     85. A(H  26,C  10,H  27)          107.0600         0.284188   
     86. A(C   9,C  10,H  27)          110.3433         0.323493   
     87. A(C   9,C  10,H  26)          111.6491         0.323428   
     88. A(H  30,C  11,H  31)          110.4461         0.284813   
     89. A(C   9,C  11,H  31)          109.8542         0.323825   
     90. A(H  29,C  11,H  30)          106.1187         0.284530   
     91. A(C   9,C  11,H  30)          112.0784         0.323953   
     92. A(C   9,C  11,H  29)          110.7532         0.323485   
     93. A(H  29,C  11,H  31)          107.4346         0.284423   
     94. A(H  32,C  12,H  33)          104.7938         0.284191   
     95. A(C  13,C  12,H  33)          109.3991         0.317279   
     96. A(C   8,C  12,H  33)          109.6717         0.320234   
     97. A(C  13,C  12,H  32)          107.7062         0.317073   
     98. A(C   8,C  12,H  32)          109.7435         0.320025   
     99. A(C   8,C  12,C  13)          115.0171         0.359188   
    100. A(C  12,C  13,H  34)          108.4369         0.316834   
    101. A(C   1,C  13,H  34)          108.6375         0.322783   
    102. A(C   1,C  13,C  12)          113.0157         0.362700   
    103. A(H  34,C  13,H  35)          105.1918         0.284687   
    104. A(C  12,C  13,H  35)          110.4390         0.318100   
    105. A(C   1,C  13,H  35)          110.7755         0.324082   
    106. A(H  37,C  14,H  38)          109.7792         0.284272   
    107. A(H  36,C  14,H  38)          108.1273         0.284134   
    108. A(C   5,C  14,H  38)          109.8650         0.324465   
    109. A(H  36,C  14,H  37)          107.8296         0.284263   
    110. A(C   5,C  14,H  37)          110.4666         0.324621   
    111. A(C   5,C  14,H  36)          110.7184         0.324454   
    112. D(C  13,C   1,C   0,H  15)   -116.9469         0.011959   
    113. D(C   2,C   1,C   0,H  16)    -59.2485         0.011959   
    114. D(C   2,C   1,C   0,H  15)     61.2121         0.011959   
    115. D(C   2,C   1,C   0,H  17)   -179.1517         0.011959   
    116. D(C  13,C   1,C   0,H  16)    122.5925         0.011959   
    117. D(C   3,C   2,C   1,C  13)   -167.1500         0.036710   
    118. D(H  18,C   2,C   1,C   0)   -173.9278         0.036710   
    119. D(H  18,C   2,C   1,C  13)      4.2404         0.036710   
    120. D(C   3,C   2,C   1,C   0)     14.6818         0.036710   
    121. D(H  20,C   3,C   2,C   1)   -168.0859         0.011467   
    122. D(C   4,C   3,C   2,H  18)    -99.1266         0.011467   
    123. D(H  19,C   3,C   2,H  18)    136.2858         0.011467   
    124. D(H  19,C   3,C   2,C   1)    -52.1310         0.011467   
    125. D(C   4,C   3,C   2,C   1)     72.4566         0.011467   
    126. D(C   5,C   4,C   3,C   2)     24.7828         0.009630   
    127. D(H  21,C   4,C   3,H  20)     27.0925         0.009630   
    128. D(H  21,C   4,C   3,H  19)    -89.1017         0.009630   
    129. D(H  21,C   4,C   3,C   2)    146.2212         0.009630   
    130. D(C   5,C   4,C   3,H  20)    -94.3459         0.009630   
    131. D(C   5,C   4,C   3,H  19)    149.4599         0.009630   
    132. D(C  14,C   5,C   4,H  21)    -48.6508         0.011380   
    133. D(C  14,C   5,C   4,C   3)     72.7950         0.011380   
    134. D(C   6,C   5,C   4,H  22)     25.9475         0.011380   
    135. D(C   6,C   5,C   4,H  21)    141.9648         0.011380   
    136. D(C   6,C   5,C   4,C   3)    -96.5894         0.011380   
    137. D(H  23,C   6,C   5,C   4)    -13.9027         0.036369   
    138. D(C   7,C   6,C   5,C  14)    -14.2589         0.036369   
    139. D(C   7,C   6,C   5,C   4)    154.7015         0.036369   
    140. D(H  23,C   6,C   5,C  14)    177.1369         0.036369   
    141. D(C   8,C   7,C   6,H  23)     56.7541         0.012434   
    142. D(C   8,C   7,C   6,C   5)   -112.1936         0.012434   
    143. D(H  25,C   7,C   6,C   5)      9.4268         0.012434   
    144. D(H  24,C   7,C   6,H  23)    -66.3821         0.012434   
    145. D(H  24,C   7,C   6,C   5)    124.6702         0.012434   
    146. D(C  12,C   8,C   7,H  24)   -155.7748         0.010566   
    147. D(C  12,C   8,C   7,C   6)     83.5300         0.010566   
    148. D(C   9,C   8,C   7,H  25)    139.0372         0.010566   
    149. D(C   9,C   8,C   7,H  24)     23.3029         0.010566   
    150. D(C   9,C   8,C   7,C   6)    -97.3923         0.010566   
    151. D(C  11,C   9,C   8,C  12)      2.1654         0.031159   
    152. D(C  11,C   9,C   8,C   7)   -176.8578         0.031159   
    153. D(C  10,C   9,C   8,C  12)   -176.8732         0.031159   
    154. D(C  10,C   9,C   8,C   7)      4.1036         0.031159   
    155. D(H  28,C  10,C   9,C   8)    -68.6962         0.011640   
    156. D(H  27,C  10,C   9,C  11)   -126.2399         0.011640   
    157. D(H  27,C  10,C   9,C   8)     52.8548         0.011640   
    158. D(H  26,C  10,C   9,C  11)     -7.3060         0.011640   
    159. D(H  26,C  10,C   9,C   8)    171.7887         0.011640   
    160. D(H  31,C  11,C   9,C   8)    -85.3971         0.011662   
    161. D(H  30,C  11,C   9,C  10)   -143.1343         0.011662   
    162. D(H  30,C  11,C   9,C   8)     37.7819         0.011662   
    163. D(H  29,C  11,C   9,C  10)    -24.8344         0.011662   
    164. D(H  29,C  11,C   9,C   8)    156.0818         0.011662   
    165. D(H  33,C  12,C   8,C   7)    123.7807         0.010333   
    166. D(H  32,C  12,C   8,C   9)   -169.8944         0.010333   
    167. D(H  32,C  12,C   8,C   7)      9.1725         0.010333   
    168. D(C  13,C  12,C   8,C   9)     68.4993         0.010333   
    169. D(C  13,C  12,C   8,C   7)   -112.4338         0.010333   
    170. D(H  35,C  13,C   1,C   0)     12.2424         0.011503   
    171. D(H  34,C  13,C   1,C   2)    -50.8942         0.011503   
    172. D(H  34,C  13,C   1,C   0)    127.3131         0.011503   
    173. D(C  12,C  13,C   1,C   2)     69.4968         0.011503   
    174. D(C  12,C  13,C   1,C   0)   -112.2959         0.011503   
    175. D(H  34,C  13,C  12,H  33)    -57.5398         0.009924   
    176. D(H  34,C  13,C  12,H  32)     55.8256         0.009924   
    177. D(H  34,C  13,C  12,C   8)    178.5305         0.009924   
    178. D(C   1,C  13,C  12,H  33)   -178.0453         0.009924   
    179. D(C   1,C  13,C  12,H  32)    -64.6798         0.009924   
    180. D(C   1,C  13,C  12,C   8)     58.0251         0.009924   
    181. D(H  38,C  14,C   5,C   4)    133.0490         0.012079   
    182. D(H  37,C  14,C   5,C   6)     63.2510         0.012079   
    183. D(H  37,C  14,C   5,C   4)   -105.6928         0.012079   
    184. D(H  36,C  14,C   5,C   6)   -177.3704         0.012079   
    185. D(H  36,C  14,C   5,C   4)     13.6858         0.012079   
    -----------------------------------------------------------------

Number of atoms                         .... 39
Number of degrees of freedom            .... 185


         *************************************************************
         *                GEOMETRY OPTIMIZATION CYCLE   1            *
         *************************************************************
---------------------------------
CARTESIAN COORDINATES (ANGSTROEM)
---------------------------------
  C      0.744404   -1.933800   -1.495146
  C      0.829482   -1.607606   -0.022862
  C      1.956793   -1.103524    0.525914
  C      3.111176   -0.518428   -0.264326
  C      2.798670    0.865642   -0.891635
  C      1.709186    1.608041   -0.140235
  C      0.440939    1.527500   -0.603157
  C     -0.792938    1.707375    0.239329
  C     -1.525765    0.370159    0.340579
  C     -2.585347    0.075838   -0.479713
  C     -3.015290    1.023258   -1.579931
  C     -3.374131   -1.210519   -0.356374
  C     -1.027350   -0.601650    1.414149
  C     -0.360700   -1.888420    0.873048
  C      2.038135    2.195180    1.210333
  H      1.495907   -2.710628   -1.748212
  H      0.933192   -1.036015   -2.113172
  H     -0.259329   -2.322204   -1.765660
  H      2.001663   -0.979312    1.604998
  H      3.444900   -1.230489   -1.048998
  H      3.965048   -0.393473    0.436259
  H      3.723587    1.481913   -0.899373
  H      2.518476    0.730216   -1.958847
  H      0.271658    1.137968   -1.602182
  H     -1.416964    2.503134   -0.212007
  H     -0.563649    2.079500    1.257805
  H     -3.787073    0.567059   -2.234939
  H     -2.150781    1.281533   -2.226450
  H     -3.448865    1.945582   -1.140058
  H     -4.395446   -1.087351   -0.774109
  H     -3.508684   -1.516861    0.699795
  H     -2.874516   -2.015219   -0.932342
  H     -0.291586   -0.090405    2.070579
  H     -1.865361   -0.875985    2.087710
  H     -0.018468   -2.497613    1.738026
  H     -1.104195   -2.518226    0.351311
  H      3.136009    2.209271    1.375688
  H      1.580568    1.588681    2.018891
  H      1.666647    3.239877    1.268177

----------------------------
CARTESIAN COORDINATES (A.U.)
----------------------------
  NO LB      ZA    FRAG     MASS         X           Y           Z
   0 C     4.0000*   0    12.011    1.406720   -3.654352   -2.825416
   1 C     4.0000*   0    12.011    1.567494   -3.037935   -0.043203
   2 C     4.0000*   0    12.011    3.697803   -2.085358    0.993833
   3 C     4.0000*   0    12.011    5.879271   -0.979687   -0.499504
   4 C     4.0000*   0    12.011    5.288720    1.635826   -1.684946
   5 C     4.0000*   0    12.011    3.229893    3.038757   -0.265006
   6 C     4.0000*   0    12.011    0.833254    2.886557   -1.139802
   7 C     4.0000*   0    12.011   -1.498436    3.226471    0.452266
   8 C     4.0000*   0    12.011   -2.883278    0.699499    0.643601
   9 C     4.0000*   0    12.011   -4.885598    0.143313   -0.906526
  10 C     4.0000*   0    12.011   -5.698072    1.933677   -2.985637
  11 C     4.0000*   0    12.011   -6.376184   -2.287549   -0.673449
  12 C     4.0000*   0    12.011   -1.941410   -1.136954    2.672354
  13 C     4.0000*   0    12.011   -0.681624   -3.568597    1.649822
  14 C     4.0000*   0    12.011    3.851517    4.148289    2.287198
  15 H     1.0000    0     1.008    2.826855   -5.122345   -3.303642
  16 H     1.0000    0     1.008    1.763477   -1.957785   -3.993316
  17 H     1.0000    0     1.008   -0.490061   -4.388330   -3.336614
  18 H     1.0000    0     1.008    3.782595   -1.850631    3.033007
  19 H     1.0000    0     1.008    6.509918   -2.325287   -1.982319
  20 H     1.0000    0     1.008    7.492855   -0.743556    0.824410
  21 H     1.0000    0     1.008    7.036560    2.800410   -1.699569
  22 H     1.0000    0     1.008    4.759230    1.379908   -3.701684
  23 H     1.0000    0     1.008    0.513359    2.150448   -3.027685
  24 H     1.0000    0     1.008   -2.677674    4.730238   -0.400635
  25 H     1.0000    0     1.008   -1.065142    3.929685    2.376907
  26 H     1.0000    0     1.008   -7.156531    1.071586   -4.223423
  27 H     1.0000    0     1.008   -4.064387    2.421746   -4.207381
  28 H     1.0000    0     1.008   -6.517410    3.676617   -2.154397
  29 H     1.0000    0     1.008   -8.306189   -2.054796   -1.462854
  30 H     1.0000    0     1.008   -6.630452   -2.866452    1.322421
  31 H     1.0000    0     1.008   -5.432048   -3.808212   -1.761871
  32 H     1.0000    0     1.008   -0.551018   -0.170841    3.912827
  33 H     1.0000    0     1.008   -3.525021   -1.655372    3.945200
  34 H     1.0000    0     1.008   -0.034899   -4.719805    3.284393
  35 H     1.0000    0     1.008   -2.086626   -4.758757    0.663882
  36 H     1.0000    0     1.008    5.926198    4.174917    2.599674
  37 H     1.0000    0     1.008    2.986841    3.002172    3.815151
  38 H     1.0000    0     1.008    3.149506    6.122480    2.396507
* core charge reduced due to ECP

--------------------------------
INTERNAL COORDINATES (ANGSTROEM)
--------------------------------
 C      0   0   0     0.000000000000     0.00000000     0.00000000
 C      1   0   0     1.510384377692     0.00000000     0.00000000
 C      2   1   0     1.351326700551   121.56127675     0.00000000
 C      3   2   1     1.516382767478   124.56724194    14.68176835
 C      4   3   2     1.551394967897   113.67875682    72.45661254
 C      5   4   3     1.517476069484   112.38749153    24.78282244
 C      6   5   4     1.352491805437   118.33473619   263.41064755
 C      7   6   5     1.504855516968   124.75860237   154.70152210
 C      8   7   6     1.528212552325   109.00702359   247.80642488
 C      9   8   7     1.371939441458   121.22886192   262.60771870
 C     10   9   8     1.514244130638   121.29802008     4.10362122
 C     10   9   8     1.513970620265   122.40837168   183.14223333
 C      9   8   7     1.531464263248   116.46397539    83.53002237
 C      2   1   3     1.515930217332   119.46275804   181.84096515
 C      6   5   4     1.508964404002   118.49194578    72.79501975
 H      1   2   3     1.110072475539   109.58603705    61.21213019
 H      1   2   3     1.106171303119   111.08285521   300.75148882
 H      1   2   3     1.109736647453   111.35534574   180.84827864
 H      3   2   1     1.087135785861   118.69494234   186.07222080
 H      4   3   2     1.110906262239   110.45481418   307.86901041
 H      4   3   2     1.111544190140   107.44041989   191.91408455
 H      5   4   3     1.111450079389   109.26018148   146.22120773
 H      5   4   3     1.111661068877   109.28526656   261.43272633
 H      7   6   5     1.085560770574   118.85423343   346.09729159
 H      8   7   6     1.107404632306   108.64802318   124.67021545
 H      8   7   6     1.108306737200   112.64204113     9.42679120
 H     11  10   9     1.110316174229   111.64905633   171.78871214
 H     11  10   9     1.109985857598   110.34330605    52.85479286
 H     11  10   9     1.110025719400   110.05079376   291.30382855
 H     12  10   9     1.110296003629   110.75322274   156.08178166
 H     12  10   9     1.107900215423   112.07838339    37.78189285
 H     12  10   9     1.108555986520   109.85417413   274.60290122
 H     13   9   8     1.110684680105   109.74353517     9.17251959
 H     13   9   8     1.109597471639   109.67170603   123.78074755
 H     14   2   1     1.111946848351   108.63749606   127.31312051
 H     14   2   1     1.105282728459   110.77550884    12.24235258
 H     15   6   5     1.110345960583   110.71841514    13.68581462
 H     15   6   5     1.109492963409   110.46657448   254.30721971
 H     15   6   5     1.110288739153   109.86497219   133.04904878

---------------------------
INTERNAL COORDINATES (A.U.)
---------------------------
 C      0   0   0     0.000000000000     0.00000000     0.00000000
 C      1   0   0     2.854212830791     0.00000000     0.00000000
 C      2   1   0     2.553637381496   121.56127675     0.00000000
 C      3   2   1     2.865548144731   124.56724194    14.68176835
 C      4   3   2     2.931711614869   113.67875682    72.45661254
 C      5   4   3     2.867614186104   112.38749153    24.78282244
 C      6   5   4     2.555839110648   118.33473619   263.41064755
 C      7   6   5     2.843764798191   124.75860237   154.70152210
 C      8   7   6     2.887903198316   109.00702359   247.80642488
 C      9   8   7     2.592589816681   121.22886192   262.60771870
 C     10   9   8     2.861506706804   121.29802008     4.10362122
 C     10   9   8     2.860989847104   122.40837168   183.14223333
 C      9   8   7     2.894048041426   116.46397539    83.53002237
 C      2   1   3     2.864692948893   119.46275804   181.84096515
 C      6   5   4     2.851529469400   118.49194578    72.79501975
 H      1   2   3     2.097732967572   109.58603705    61.21213019
 H      1   2   3     2.090360820099   111.08285521   300.75148882
 H      1   2   3     2.097098344463   111.35534574   180.84827864
 H      3   2   1     2.054388905663   118.69494234   186.07222080
 H      4   3   2     2.099308596089   110.45481418   307.86901041
 H      4   3   2     2.100514105116   107.44041989   191.91408455
 H      5   4   3     2.100336261570   109.26018148   146.22120773
 H      5   4   3     2.100734973919   109.28526656   261.43272633
 H      7   6   5     2.051412558114   118.85423343   346.09729159
 H      8   7   6     2.092691474494   108.64802318   124.67021545
 H      8   7   6     2.094396205687   112.64204113     9.42679120
 H     11  10   9     2.098193491356   111.64905633   171.78871214
 H     11  10   9     2.097569283385   110.34330605    52.85479286
 H     11  10   9     2.097644611275   110.05079376   291.30382855
 H     12  10   9     2.098155374446   110.75322274   156.08178166
 H     12  10   9     2.093627990862   112.07838339    37.78189285
 H     12  10   9     2.094867218641   109.85417413   274.60290122
 H     13   9   8     2.098889866541   109.74353517     9.17251959
 H     13   9   8     2.096835340289   109.67170603   123.78074755
 H     14   2   1     2.101275018860   108.63749606   127.31312051
 H     14   2   1     2.088681657341   110.77550884    12.24235258
 H     15   6   5     2.098249779407   110.71841514    13.68581462
 H     15   6   5     2.096637848356   110.46657448   254.30721971
 H     15   6   5     2.098141646575   109.86497219   133.04904878

---------------------
BASIS SET INFORMATION
---------------------
There are 2 groups of distinct atoms

 Group   1 Type C   : 6s6p2d contracted to 2s2p1d pattern {42/42/2}
 Group   2 Type H   : 8s2p contracted to 2s1p pattern {53/2}

Atom   0C    basis set group =>   1
Atom   1C    basis set group =>   1
Atom   2C    basis set group =>   1
Atom   3C    basis set group =>   1
Atom   4C    basis set group =>   1
Atom   5C    basis set group =>   1
Atom   6C    basis set group =>   1
Atom   7C    basis set group =>   1
Atom   8C    basis set group =>   1
Atom   9C    basis set group =>   1
Atom  10C    basis set group =>   1
Atom  11C    basis set group =>   1
Atom  12C    basis set group =>   1
Atom  13C    basis set group =>   1
Atom  14C    basis set group =>   1
Atom  15H    basis set group =>   2
Atom  16H    basis set group =>   2
Atom  17H    basis set group =>   2
Atom  18H    basis set group =>   2
Atom  19H    basis set group =>   2
Atom  20H    basis set group =>   2
Atom  21H    basis set group =>   2
Atom  22H    basis set group =>   2
Atom  23H    basis set group =>   2
Atom  24H    basis set group =>   2
Atom  25H    basis set group =>   2
Atom  26H    basis set group =>   2
Atom  27H    basis set group =>   2
Atom  28H    basis set group =>   2
Atom  29H    basis set group =>   2
Atom  30H    basis set group =>   2
Atom  31H    basis set group =>   2
Atom  32H    basis set group =>   2
Atom  33H    basis set group =>   2
Atom  34H    basis set group =>   2
Atom  35H    basis set group =>   2
Atom  36H    basis set group =>   2
Atom  37H    basis set group =>   2
Atom  38H    basis set group =>   2
---------------------------------
AUXILIARY/J BASIS SET INFORMATION
---------------------------------
There are 2 groups of distinct atoms

 Group   1 Type C   : 12s5p4d2f1g contracted to 6s4p3d1f1g pattern {711111/2111/211/2/1}
 Group   2 Type H   : 5s2p1d contracted to 3s1p1d pattern {311/2/1}

Atom   0C    basis set group =>   1
Atom   1C    basis set group =>   1
Atom   2C    basis set group =>   1
Atom   3C    basis set group =>   1
Atom   4C    basis set group =>   1
Atom   5C    basis set group =>   1
Atom   6C    basis set group =>   1
Atom   7C    basis set group =>   1
Atom   8C    basis set group =>   1
Atom   9C    basis set group =>   1
Atom  10C    basis set group =>   1
Atom  11C    basis set group =>   1
Atom  12C    basis set group =>   1
Atom  13C    basis set group =>   1
Atom  14C    basis set group =>   1
Atom  15H    basis set group =>   2
Atom  16H    basis set group =>   2
Atom  17H    basis set group =>   2
Atom  18H    basis set group =>   2
Atom  19H    basis set group =>   2
Atom  20H    basis set group =>   2
Atom  21H    basis set group =>   2
Atom  22H    basis set group =>   2
Atom  23H    basis set group =>   2
Atom  24H    basis set group =>   2
Atom  25H    basis set group =>   2
Atom  26H    basis set group =>   2
Atom  27H    basis set group =>   2
Atom  28H    basis set group =>   2
Atom  29H    basis set group =>   2
Atom  30H    basis set group =>   2
Atom  31H    basis set group =>   2
Atom  32H    basis set group =>   2
Atom  33H    basis set group =>   2
Atom  34H    basis set group =>   2
Atom  35H    basis set group =>   2
Atom  36H    basis set group =>   2
Atom  37H    basis set group =>   2
Atom  38H    basis set group =>   2
-------------------------
ECP PARAMETER INFORMATION
-------------------------

 Group 1, Type C  ECP vDZP-ECP (replacing 2 core electrons, lmax=3)

Atom   0C    ECP group =>   1
Atom   1C    ECP group =>   1
Atom   2C    ECP group =>   1
Atom   3C    ECP group =>   1
Atom   4C    ECP group =>   1
Atom   5C    ECP group =>   1
Atom   6C    ECP group =>   1
Atom   7C    ECP group =>   1
Atom   8C    ECP group =>   1
Atom   9C    ECP group =>   1
Atom  10C    ECP group =>   1
Atom  11C    ECP group =>   1
Atom  12C    ECP group =>   1
Atom  13C    ECP group =>   1
Atom  14C    ECP group =>   1



           ************************************************************
           *        Program running with 40 parallel MPI-processes    *
           *              working on a common directory               *
           ************************************************************
------------------------------------------------------------------------------
                             ORCA STARTUP CALCULATIONS
                           -- RI-GTO INTEGRALS CHOSEN --
------------------------------------------------------------------------------
------------------------------------------------------------------------------
                   ___                                                        
                  /   \      - P O W E R E D   B Y -                         
                 /     \                                                     
                 |  |  |   _    _      __       _____    __    __             
                 |  |  |  | |  | |    /  \     |  _  \  |  |  /  |          
                  \  \/   | |  | |   /    \    | | | |  |  | /  /          
                 / \  \   | |__| |  /  /\  \   | |_| |  |  |/  /          
                |  |  |   |  __  | /  /__\  \  |    /   |      \           
                |  |  |   | |  | | |   __   |  |    \   |  |\   \          
                \     /   | |  | | |  |  |  |  | |\  \  |  | \   \       
                 \___/    |_|  |_| |__|  |__|  |_| \__\ |__|  \__/        
                                                                              
                      - O R C A' S   B I G   F R I E N D -                    
                                      &                                       
                       - I N T E G R A L  F E E D E R -                       
                                                                              
 v1 FN, 2020, v2 2021, v3 2022-2024                                           
------------------------------------------------------------------------------


----------------------
SHARK INTEGRAL PACKAGE
----------------------

Number of atoms                             ...     39
Number of basis functions                   ...    315
Number of shells                            ...    147
Maximum angular momentum                    ...      2
Integral batch strategy                     ... SHARK/LIBINT Hybrid
RI-J (if used) integral strategy            ... SPLIT-RIJ (Revised 2003 algorithm where possible)
Printlevel                                  ...      1
Contraction scheme used                     ... SEGMENTED contraction
Prescreening option                         ... SCHWARTZ
   Thresh                                   ... 2.500e-11
   Tcut                                     ... 2.500e-12
   Tpresel                                  ... 2.500e-12 
Coulomb Range Separation                    ... NOT USED
Exchange Range Separation                   ... Long Range
   Mu parameter                             ... 3.000e-01
   Scaling (regular/separated)              ... 1.670e-01 8.330e-01
Multipole approximations                    ... NOT USED
Finite Nucleus Model                        ... NOT USED
CABS basis                                  ... NOT available
Auxiliary Coulomb fitting basis             ... AVAILABLE
   # of basis functions in Aux-J            ...    999
   # of shells in Aux-J                     ...    345
   Maximum angular momentum in Aux-J        ...      4
Auxiliary J/K fitting basis                 ... NOT available
Auxiliary Correlation fitting basis         ... NOT available
Auxiliary 'external' fitting basis          ... NOT available

Checking pre-screening integrals            ... done (  0.0 sec) Dimension = 147
Check shell pair data                       ... done (  0.0 sec)
Shell pair information
Shell pair cut-off parameter TPreSel        ...   2.5e-12
Total number of shell pairs                 ...     10878
Shell pairs after pre-screening             ...     10830
Total number of primitive shell pairs       ...    102036
Primitive shell pairs kept                  ...     78911
          la=0 lb=0:   3075 shell pairs
          la=1 lb=0:   4191 shell pairs
          la=1 lb=1:   1464 shell pairs
          la=2 lb=0:   1170 shell pairs
          la=2 lb=1:    810 shell pairs
          la=2 lb=2:    120 shell pairs

Calculating one electron integrals          ... done (  0.0 sec)
Calculating ECP integrals                   ... done (  0.2 sec)
Calculating RI/J V-Matrix + Cholesky decomp.... done (  0.1 sec)
Calculating Nuclear repulsion               ... done (  0.0 sec) ENN=    569.675661522987 Eh

Diagonalization of the overlap matrix:
Smallest eigenvalue                        ... 8.010e-04
Time for diagonalization                   ...    0.014 sec
Threshold for overlap eigenvalues          ... 1.000e-07
Number of eigenvalues below threshold      ... 0
Time for construction of square roots      ...    0.016 sec
Total time needed                          ...    0.067 sec

-------------------
DFT GRID GENERATION
-------------------

General Integration Accuracy     IntAcc      ... 4.388
Radial Grid Type                 RadialGrid  ... OptM3 with GC (2021)
Angular Grid (max. ang.)         AngularGrid ... 4 (Lebedev-302)
Angular grid pruning method      GridPruning ... 4 (adaptive)
Weight generation scheme         WeightScheme... mBecke (2022)
Basis function cutoff            BFCut       ... 1.0000e-11
Integration weight cutoff        WCut        ... 1.0000e-14
Partially contracted basis set               ... off
Rotationally invariant grid construction     ... off
Angular grids for H and He will be reduced by one unit

Total number of grid points                  ...   164837
Total number of batches                      ...     2594
Average number of points per batch           ...       63
Average number of grid points per atom       ...     4227

--------------------
COSX GRID GENERATION
--------------------

GRIDX 1
-------
General Integration Accuracy     IntAcc      ... 3.816
Radial Grid Type                 RadialGrid  ... OptM3 with GC (2021)
Angular Grid (max. ang.)         AngularGrid ... 1 (Lebedev-50)
Angular grid pruning method      GridPruning ... 4 (adaptive)
Weight generation scheme         WeightScheme... mBecke (2022)
Basis function cutoff            BFCut       ... 1.0000e-11
Integration weight cutoff        WCut        ... 1.0000e-14
Partially contracted basis set               ... on
Rotationally invariant grid construction     ... off
Angular grids for H and He will be reduced by one unit

Total number of grid points                  ...    21059
Total number of batches                      ...      188
Average number of points per batch           ...      112
Average number of grid points per atom       ...      540
UseSFitting                                  ... on

GRIDX 2
-------
General Integration Accuracy     IntAcc      ... 4.020
Radial Grid Type                 RadialGrid  ... OptM3 with GC (2021)
Angular Grid (max. ang.)         AngularGrid ... 2 (Lebedev-110)
Angular grid pruning method      GridPruning ... 4 (adaptive)
Weight generation scheme         WeightScheme... mBecke (2022)
Basis function cutoff            BFCut       ... 1.0000e-11
Integration weight cutoff        WCut        ... 1.0000e-14
Partially contracted basis set               ... on
Rotationally invariant grid construction     ... off
Angular grids for H and He will be reduced by one unit

Total number of grid points                  ...    43495
Total number of batches                      ...      362
Average number of points per batch           ...      120
Average number of grid points per atom       ...     1115
UseSFitting                                  ... on

GRIDX 3
-------
General Integration Accuracy     IntAcc      ... 4.338
Radial Grid Type                 RadialGrid  ... OptM3 with GC (2021)
Angular Grid (max. ang.)         AngularGrid ... 3 (Lebedev-194)
Angular grid pruning method      GridPruning ... 4 (adaptive)
Weight generation scheme         WeightScheme... mBecke (2022)
Basis function cutoff            BFCut       ... 1.0000e-11
Integration weight cutoff        WCut        ... 1.0000e-14
Partially contracted basis set               ... on
Rotationally invariant grid construction     ... off
Angular grids for H and He will be reduced by one unit

Total number of grid points                  ...    94231
Total number of batches                      ...      758
Average number of points per batch           ...      124
Average number of grid points per atom       ...     2416
UseSFitting                                  ... on
Initializing property integral containers    ... done (  0.0 sec)

SHARK setup successfully completed in   5.4 seconds

Maximum memory used throughout the entire STARTUP-calculation: 52.4 MB


           ************************************************************
           *        Program running with 40 parallel MPI-processes    *
           *              working on a common directory               *
           ************************************************************
-------------------------------------------------------------------------------
                                 ORCA GUESS
                   Start orbitals & Density for SCF / CASSCF
-------------------------------------------------------------------------------

------------
SCF SETTINGS
------------
Hamiltonian:
 Density Functional     Method          .... DFT(GTOs)
 Exchange Functional    Exchange        .... WB97X-V
 Correlation Functional Correlation     .... WB97X-V
 Gradients option       PostSCFGGA      .... off
 Hybrid DFT is turned on
   Fraction HF Exchange ScalHFX         ....  0.167000
   Scaling of DF-GGA-X  ScalDFX         ....  0.000000
   Scaling of DF-GGA-C  ScalDFC         ....  1.000000
   Scaling of DF-LDA-C  ScalLDAC        ....  1.000000
   Perturbative correction              ....  0.000000
 Long-range corrected/Screened/Range-Separated Hybrid DFT is turned on
   Amount of maximum screened exact exchange              ....  0.833000
   Range separation parameter mu (erf(mu*r12)/r12)        ....  0.300000
   NL short-range parameter             ....  6.000000
   NL long-range parameter              ....  0.010000
 RI-approximation to the Coulomb term is turned on
   Number of AuxJ basis functions       .... 999
   RIJ-COSX (HFX calculated with COS-X)).... on


General Settings:
 Integral files         IntName         .... ./output/germacrene_b/germacrene_b
 Hartree-Fock type      HFTyp           .... RHF
 Total Charge           Charge          ....    0
 Multiplicity           Mult            ....    1
 Number of Electrons    NEL             ....   84
 Basis Dimension        Dim             ....  315
 Nuclear Repulsion      ENuc            ....    569.6756615230 Eh

Convergence Acceleration:
 AO-DIIS                CNVDIIS         .... on
   Start iteration      DIISMaxIt       ....    12
   Startup error        DIISStart       ....  0.200000
   # of expansion vecs  DIISMaxEq       ....     5
   Bias factor          DIISBfac        ....   1.050
   Max. coefficient     DIISMaxC        ....  10.000
 MO-DIIS                CNVKDIIS        .... off
 Trust-Rad. Augm. Hess. CNVTRAH         .... auto
   Auto Start mean grad. ratio tolernc. ....  1.125000
   Auto Start start iteration           ....    50
   Auto Start num. interpolation iter.  ....    10
   Max. Number of Micro iterations      ....    24
   Max. Number of Macro iterations      .... Maxiter - #DIIS iter
   Number of Davidson start vectors     ....     2
   Converg. threshold    (grad. norm)   ....   1.000e-05
   Grad. Scal. Fac. for Micro threshold ....   0.100
   Minimum threshold for Micro iter.    ....   1.000e-02
   NR start threshold (gradient norm)   ....   1.000e-04
   Initial trust radius                 ....   0.400
   Minimum AH scaling param. (alpha)    ....   1.000
   Maximum AH scaling param. (alpha)    .... 1000.000
   Quad. conv. algorithm                .... NR
   White noise on init. David. guess    .... on
   Maximum white noise                  ....   0.010
   Pseudo random numbers                .... off
   Inactive MOs                         .... canonical
   Orbital update algorithm             .... Taylor
   Preconditioner                       .... Diag
   Full preconditioner red. dimension   ....   250
 SOSCF                  CNVSOSCF        .... on
   Start iteration      SOSCFMaxIt      ....   150
   Startup grad/error   SOSCFStart      ....  0.003300
   Hessian update       SOSCFHessUp     .... L-BFGS
 Level Shifting         CNVShift        .... on
   Level shift para.    LevelShift      ....    0.2500
   Turn off err/grad.   ShiftErr        ....    0.0010
 Zerner damping         CNVZerner       .... off
 Static damping         CNVDamp         .... on
   Fraction old density DampFac         ....    0.7000
   Max. Damping (<1)    DampMax         ....    0.9800
   Min. Damping (>=0)   DampMin         ....    0.0000
   Turn off err/grad.   DampErr         ....    0.1000

SCF Procedure:
 Maximum # iterations   MaxIter         ....   125
 SCF integral mode      SCFMode         .... Direct
   Integral package                     .... SHARK and LIBINT hybrid scheme
 Reset frequency        DirectResetFreq ....    20
 Integral Threshold     Thresh          ....  2.500e-11 Eh
 Primitive CutOff       TCut            ....  2.500e-12 Eh

Convergence Tolerance:
 Convergence Check Mode ConvCheckMode   .... Total+1el-Energy
 Convergence forced     ConvForced      .... 0
 Energy Change          TolE            ....  1.000e-08 Eh
 1-El. energy change                    ....  1.000e-05 Eh
 Orbital Gradient       TolG            ....  1.000e-05
 Orbital Rotation angle TolX            ....  1.000e-05
 DIIS Error             TolErr          ....  5.000e-07

------------------------------
INITIAL GUESS: MODEL POTENTIAL
------------------------------
Loading Hartree-Fock densities                     ... done
Atomic calculation to generate a density for atom 0 (C  with ECP)
  Multiplicity assumed   :    1
  Atomic configuration   : 1s2 2s2 2p2 
  Number of open shells  : 1
  Command: /home/aspe232/Project/Software/ORCA/6_0_1/build/orca ./output/germacrene_b/germacrene_b_atom6.inp "" > ./output/germacrene_b/germacrene_b_atom6.out
Returned from the atomic calculation with res=0
Calculating cut-offs                               ... done
Initializing the effective Hamiltonian             ... done
Setting up the integral package (SHARK)            ... done
Starting the Coulomb interaction                   ... done (   0.1 sec)
Making the grid                                    ... done (   1.1 sec)
Mapping shells                                     ... done
Starting the XC term evaluation                    ... done (   0.1 sec)
  promolecular density results
     # of electrons  =    113.989500844
     EX              =    -55.337153295
     EC              =     -4.548743421
     EX+EC           =    -59.885896716
Transforming the Hamiltonian                       ... done (   0.0 sec)
Diagonalizing the Hamiltonian                      ... done (   0.0 sec)
Back transforming the eigenvectors                 ... done (   0.0 sec)
Now organizing SCF variables                       ... done
                      ------------------
                      INITIAL GUESS DONE (   2.1 sec)
                      ------------------
             **** ENERGY FILE WAS UPDATED (./output/germacrene_b/germacrene_b.en.tmp) ****
Finished Guess after   3.0 sec
Maximum memory used throughout the entire GUESS-calculation: 35.0 MB


           ************************************************************
           *        Program running with 40 parallel MPI-processes    *
           *              working on a common directory               *
           ************************************************************

-------------------------------------------------------------------------------------------
                                      ORCA LEAN-SCF
                              memory conserving SCF solver
-------------------------------------------------------------------------------------------

----------------------------------------D-I-I-S--------------------------------------------
Iteration    Energy (Eh)           Delta-E    RMSDP     MaxDP     DIISErr   Damp  Time(sec)
-------------------------------------------------------------------------------------------
               ***  Starting incremental Fock matrix formation  ***
    1    -99.1470460276300400     0.00e+00  3.53e-03  7.45e-02  1.85e-01  0.700   8.8
    2    -99.4194513470881702    -2.72e-01  2.58e-03  5.30e-02  1.13e-01  0.700   6.4
                               ***Turning on AO-DIIS***
    3    -99.5614332716655781    -1.42e-01  1.35e-03  2.78e-02  5.97e-02  0.700   6.0
    4    -99.6451674351056909    -8.37e-02  2.92e-03  6.10e-02  3.75e-02  0.000   5.8
    5    -99.8211960680528136    -1.76e-01  2.12e-04  3.43e-03  4.05e-03  0.000   5.8
                              *** Initializing SOSCF ***
---------------------------------------S-O-S-C-F--------------------------------------
Iteration    Energy (Eh)           Delta-E    RMSDP     MaxDP     MaxGrad    Time(sec)
--------------------------------------------------------------------------------------
    6    -99.8217079496540691    -5.12e-04  1.10e-04  2.01e-03  1.34e-03     5.7
               *** Restarting incremental Fock matrix formation ***
    7    -99.8217523163525584    -4.44e-05  6.27e-05  1.26e-03  3.93e-04     8.3
    8    -99.8217695911710052    -1.73e-05  4.40e-05  9.64e-04  2.62e-04     8.0
    9    -99.8217750352691837    -5.44e-06  1.33e-05  2.09e-04  7.46e-05     7.3
   10    -99.8217756534656928    -6.18e-07  3.46e-06  1.01e-04  2.18e-05     6.5
   11    -99.8217756715657742    -1.81e-08  1.38e-06  5.11e-05  1.56e-05     6.3
   12    -99.8217757071829510    -3.56e-08  4.47e-07  1.70e-05  3.78e-06     6.1
   13    -99.8217757032563213     3.93e-09  1.96e-07  6.90e-06  1.22e-06     5.4
                 **** Energy Check signals convergence ****

               *****************************************************
               *                     SUCCESS                       *
               *           SCF CONVERGED AFTER  13 CYCLES          *
               *****************************************************

Recomputing exchange energy using gridx3       ... done (   10.052 sec)
Old exchange energy                            :    -15.863840802 Eh
New exchange energy                            :    -15.863880295 Eh
Exchange energy change after final integration :     -0.000039493 Eh
Total energy after final integration           :    -99.821815196 Eh
             **** ENERGY FILE WAS UPDATED (./output/germacrene_b/germacrene_b.en.tmp) ****

----------------
TOTAL SCF ENERGY
----------------

Total Energy       :        -99.82181519602412 Eh           -2716.28968 eV

Components:
Nuclear Repulsion  :        569.67566152298684 Eh           15501.66284 eV
Electronic Energy  :       -669.49743722624316 Eh          -18217.95145 eV
One Electron Energy:      -1278.32557887702910 Eh          -34785.00744 eV
Two Electron Energy:        608.82814165078594 Eh           16567.05599 eV

Virial components:
Potential Energy   :       -177.58779702368537 Eh           -4832.40963 eV
Kinetic Energy     :         77.76598182766124 Eh            2116.11995 eV
Virial Ratio       :          2.28361801458691

DFT components:
N(Alpha)           :       42.000021164391 electrons
N(Beta)            :       42.000021164391 electrons
N(Total)           :       84.000042328782 electrons
E(X)               :      -16.037740608564 Eh       
E(C)               :       -3.125938704334 Eh       
E(XC)              :      -19.163679312899 Eh       

---------------
SCF CONVERGENCE
---------------

  Last Energy change         ...   -3.9266e-09  Tolerance :   1.0000e-08
  Last MAX-Density change    ...    6.8964e-06  Tolerance :   1.0000e-07
  Last RMS-Density change    ...    1.9595e-07  Tolerance :   5.0000e-09
  Last DIIS Error            ...    1.3386e-03  Tolerance :   5.0000e-07
  Last Orbital Gradient      ...    1.2229e-06  Tolerance :   1.0000e-05
  Last Orbital Rotation      ...    2.4595e-06  Tolerance :   1.0000e-05


----------------
ORBITAL ENERGIES
----------------

  NO   OCC          E(Eh)            E(eV) 
   0   2.0000      -0.976646       -26.5759 
   1   2.0000      -0.950635       -25.8681 
   2   2.0000      -0.939842       -25.5744 
   3   2.0000      -0.899314       -24.4716 
   4   2.0000      -0.863600       -23.4998 
   5   2.0000      -0.859523       -23.3888 
   6   2.0000      -0.819673       -22.3044 
   7   2.0000      -0.811607       -22.0849 
   8   2.0000      -0.805770       -21.9261 
   9   2.0000      -0.751958       -20.4618 
  10   2.0000      -0.743667       -20.2362 
  11   2.0000      -0.711543       -19.3621 
  12   2.0000      -0.637116       -17.3368 
  13   2.0000      -0.624556       -16.9950 
  14   2.0000      -0.610313       -16.6075 
  15   2.0000      -0.589890       -16.0517 
  16   2.0000      -0.574878       -15.6432 
  17   2.0000      -0.566465       -15.4143 
  18   2.0000      -0.561499       -15.2792 
  19   2.0000      -0.547253       -14.8915 
  20   2.0000      -0.543429       -14.7875 
  21   2.0000      -0.535112       -14.5611 
  22   2.0000      -0.529048       -14.3961 
  23   2.0000      -0.516170       -14.0457 
  24   2.0000      -0.507798       -13.8179 
  25   2.0000      -0.502532       -13.6746 
  26   2.0000      -0.497576       -13.5397 
  27   2.0000      -0.496176       -13.5016 
  28   2.0000      -0.490408       -13.3447 
  29   2.0000      -0.478011       -13.0073 
  30   2.0000      -0.469035       -12.7631 
  31   2.0000      -0.466318       -12.6891 
  32   2.0000      -0.463513       -12.6128 
  33   2.0000      -0.442233       -12.0338 
  34   2.0000      -0.438912       -11.9434 
  35   2.0000      -0.429421       -11.6851 
  36   2.0000      -0.423144       -11.5143 
  37   2.0000      -0.417344       -11.3565 
  38   2.0000      -0.410118       -11.1599 
  39   2.0000      -0.328083        -8.9276 
  40   2.0000      -0.320698        -8.7266 
  41   2.0000      -0.303440        -8.2570 
  42   0.0000       0.069800         1.8994 
  43   0.0000       0.081792         2.2257 
  44   0.0000       0.086981         2.3669 
  45   0.0000       0.092177         2.5083 
  46   0.0000       0.098824         2.6891 
  47   0.0000       0.108367         2.9488 
  48   0.0000       0.114492         3.1155 
  49   0.0000       0.118340         3.2202 
  50   0.0000       0.124841         3.3971 
  51   0.0000       0.128345         3.4925 
  52   0.0000       0.131747         3.5850 
*Only the first 10 virtual orbitals were printed.

                    ********************************
                    * MULLIKEN POPULATION ANALYSIS *
                    ********************************

-----------------------
MULLIKEN ATOMIC CHARGES
-----------------------
   0 C :   -0.064387
   1 C :   -0.050231
   2 C :   -0.017532
   3 C :   -0.083108
   4 C :   -0.061269
   5 C :   -0.063197
   6 C :    0.009383
   7 C :   -0.060700
   8 C :   -0.071083
   9 C :   -0.052862
  10 C :   -0.091721
  11 C :   -0.081359
  12 C :   -0.058165
  13 C :   -0.042988
  14 C :   -0.085948
  15 H :    0.056052
  16 H :    0.031015
  17 H :    0.025886
  18 H :    0.007221
  19 H :    0.044987
  20 H :    0.040070
  21 H :    0.039628
  22 H :    0.038329
  23 H :   -0.013221
  24 H :    0.045653
  25 H :    0.037731
  26 H :    0.034017
  27 H :    0.047058
  28 H :    0.057008
  29 H :    0.037730
  30 H :    0.042068
  31 H :    0.043760
  32 H :    0.013870
  33 H :    0.045180
  34 H :    0.050207
  35 H :    0.019146
  36 H :    0.034403
  37 H :    0.034704
  38 H :    0.062664
Sum of atomic charges:   -0.0000000

--------------------------------
MULLIKEN REDUCED ORBITAL CHARGES
--------------------------------
  0 C s       :     0.949274  s :     0.949274
      pz      :     0.966187  p :     3.042020
      px      :     1.041750
      py      :     1.034084
      dz2     :     0.017950  d :     0.073092
      dxz     :     0.012779
      dyz     :     0.020230
      dx2y2   :     0.008617
      dxy     :     0.013516

  1 C s       :     1.090996  s :     1.090996
      pz      :     0.925761  p :     2.842214
      px      :     0.942862
      py      :     0.973591
      dz2     :     0.028752  d :     0.117021
      dxz     :     0.032920
      dyz     :     0.019569
      dx2y2   :     0.017972
      dxy     :     0.017808

  2 C s       :     1.036557  s :     1.036557
      pz      :     0.961178  p :     2.890067
      px      :     0.934544
      py      :     0.994345
      dz2     :     0.027142  d :     0.090908
      dxz     :     0.020694
      dyz     :     0.008491
      dx2y2   :     0.017904
      dxy     :     0.016676

  3 C s       :     0.999907  s :     0.999907
      pz      :     1.030287  p :     2.985162
      px      :     1.003246
      py      :     0.951629
      dz2     :     0.010887  d :     0.098038
      dxz     :     0.024157
      dyz     :     0.022680
      dx2y2   :     0.022686
      dxy     :     0.017629

  4 C s       :     0.995325  s :     0.995325
      pz      :     1.005942  p :     2.965815
      px      :     1.019864
      py      :     0.940009
      dz2     :     0.024894  d :     0.100129
      dxz     :     0.013246
      dyz     :     0.014996
      dx2y2   :     0.019509
      dxy     :     0.027485

  5 C s       :     1.087829  s :     1.087829
      pz      :     0.946117  p :     2.856977
      px      :     0.948310
      py      :     0.962550
      dz2     :     0.025931  d :     0.118391
      dxz     :     0.030891
      dyz     :     0.016256
      dx2y2   :     0.017920
      dxy     :     0.027392

  6 C s       :     1.041311  s :     1.041311
      pz      :     0.964127  p :     2.855513
      px      :     0.911486
      py      :     0.979900
      dz2     :     0.022560  d :     0.093793
      dxz     :     0.026128
      dyz     :     0.008113
      dx2y2   :     0.013449
      dxy     :     0.023543

  7 C s       :     0.973482  s :     0.973482
      pz      :     1.037090  p :     2.984434
      px      :     0.970529
      py      :     0.976815
      dz2     :     0.019774  d :     0.102783
      dxz     :     0.018092
      dyz     :     0.018631
      dx2y2   :     0.018554
      dxy     :     0.027732

  8 C s       :     1.082462  s :     1.082462
      pz      :     0.976217  p :     2.876611
      px      :     0.965586
      py      :     0.934808
      dz2     :     0.022571  d :     0.112010
      dxz     :     0.016703
      dyz     :     0.023666
      dx2y2   :     0.024846
      dxy     :     0.024225

  9 C s       :     1.097618  s :     1.097618
      pz      :     0.958961  p :     2.840631
      px      :     0.968178
      py      :     0.913491
      dz2     :     0.025115  d :     0.114613
      dxz     :     0.016738
      dyz     :     0.023569
      dx2y2   :     0.024875
      dxy     :     0.024317

 10 C s       :     0.956135  s :     0.956135
      pz      :     1.004649  p :     3.061109
      px      :     1.039062
      py      :     1.017397
      dz2     :     0.011393  d :     0.074478
      dxz     :     0.021939
      dyz     :     0.016413
      dx2y2   :     0.010397
      dxy     :     0.014336

 11 C s       :     0.952920  s :     0.952920
      pz      :     1.043599  p :     3.053578
      px      :     1.028003
      py      :     0.981975
      dz2     :     0.014028  d :     0.074861
      dxz     :     0.010204
      dyz     :     0.016819
      dx2y2   :     0.019464
      dxy     :     0.014346

 12 C s       :     0.995179  s :     0.995179
      pz      :     0.993629  p :     2.963659
      px      :     1.021203
      py      :     0.948826
      dz2     :     0.012810  d :     0.099328
      dxz     :     0.025786
      dyz     :     0.023370
      dx2y2   :     0.015816
      dxy     :     0.021545

 13 C s       :     0.987537  s :     0.987537
      pz      :     1.019319  p :     2.955828
      px      :     0.963387
      py      :     0.973122
      dz2     :     0.012165  d :     0.099623
      dxz     :     0.022488
      dyz     :     0.023936
      dx2y2   :     0.015597
      dxy     :     0.025436

 14 C s       :     0.951584  s :     0.951584
      pz      :     0.975461  p :     3.060963
      px      :     1.049458
      py      :     1.036044
      dz2     :     0.019660  d :     0.073401
      dxz     :     0.012279
      dyz     :     0.016310
      dx2y2   :     0.017803
      dxy     :     0.007349

 15 H s       :     0.899504  s :     0.899504
      pz      :     0.011038  p :     0.044445
      px      :     0.016360
      py      :     0.017047

 16 H s       :     0.922724  s :     0.922724
      pz      :     0.014918  p :     0.046261
      px      :     0.011237
      py      :     0.020107

 17 H s       :     0.929804  s :     0.929804
      pz      :     0.011004  p :     0.044310
      px      :     0.021106
      py      :     0.012200

 18 H s       :     0.944244  s :     0.944244
      pz      :     0.024178  p :     0.048534
      px      :     0.010641
      py      :     0.013716

 19 H s       :     0.911132  s :     0.911132
      pz      :     0.016764  p :     0.043881
      px      :     0.011301
      py      :     0.015816

 20 H s       :     0.917391  s :     0.917391
      pz      :     0.014792  p :     0.042539
      px      :     0.017629
      py      :     0.010118

 21 H s       :     0.917655  s :     0.917655
      pz      :     0.009293  p :     0.042717
      px      :     0.019286
      py      :     0.014138

 22 H s       :     0.918633  s :     0.918633
      pz      :     0.022148  p :     0.043038
      px      :     0.010470
      py      :     0.010421

 23 H s       :     0.964012  s :     0.964012
      pz      :     0.022999  p :     0.049208
      px      :     0.010071
      py      :     0.016138

 24 H s       :     0.909179  s :     0.909179
      pz      :     0.012776  p :     0.045167
      px      :     0.015498
      py      :     0.016894

 25 H s       :     0.917098  s :     0.917098
      pz      :     0.021950  p :     0.045171
      px      :     0.011960
      py      :     0.011262

 26 H s       :     0.921817  s :     0.921817
      pz      :     0.015189  p :     0.044166
      px      :     0.016906
      py      :     0.012071

 27 H s       :     0.908474  s :     0.908474
      pz      :     0.015039  p :     0.044468
      px      :     0.018364
      py      :     0.011065

 28 H s       :     0.898352  s :     0.898352
      pz      :     0.012270  p :     0.044640
      px      :     0.012532
      py      :     0.019839

 29 H s       :     0.918152  s :     0.918152
      pz      :     0.012349  p :     0.044118
      px      :     0.021561
      py      :     0.010208

 30 H s       :     0.913064  s :     0.913064
      pz      :     0.022872  p :     0.044868
      px      :     0.010616
      py      :     0.011379

 31 H s       :     0.910855  s :     0.910855
      pz      :     0.014119  p :     0.045385
      px      :     0.013270
      py      :     0.017996

 32 H s       :     0.943021  s :     0.943021
      pz      :     0.013864  p :     0.043109
      px      :     0.016495
      py      :     0.012750

 33 H s       :     0.911017  s :     0.911017
      pz      :     0.014739  p :     0.043803
      px      :     0.018031
      py      :     0.011032

 34 H s       :     0.906651  s :     0.906651
      pz      :     0.018002  p :     0.043142
      px      :     0.011290
      py      :     0.013851

 35 H s       :     0.936085  s :     0.936085
      pz      :     0.013112  p :     0.044769
      px      :     0.017307
      py      :     0.014350

 36 H s       :     0.921728  s :     0.921728
      pz      :     0.010628  p :     0.043869
      px      :     0.023194
      py      :     0.010047

 37 H s       :     0.919685  s :     0.919685
      pz      :     0.018123  p :     0.045611
      px      :     0.012974
      py      :     0.014514

 38 H s       :     0.893315  s :     0.893315
      pz      :     0.010348  p :     0.044021
      px      :     0.011445
      py      :     0.022228



                     *******************************
                     * LOEWDIN POPULATION ANALYSIS *
                     *******************************

----------------------
LOEWDIN ATOMIC CHARGES
----------------------
   0 C :   -0.112484
   1 C :   -0.033047
   2 C :   -0.051585
   3 C :   -0.088670
   4 C :   -0.086452
   5 C :   -0.047071
   6 C :   -0.043996
   7 C :   -0.089094
   8 C :   -0.028264
   9 C :   -0.047042
  10 C :   -0.120250
  11 C :   -0.118649
  12 C :   -0.080036
  13 C :   -0.081842
  14 C :   -0.117970
  15 H :    0.054705
  16 H :    0.043770
  17 H :    0.048669
  18 H :    0.030521
  19 H :    0.051000
  20 H :    0.047959
  21 H :    0.046086
  22 H :    0.049347
  23 H :    0.029764
  24 H :    0.050135
  25 H :    0.052763
  26 H :    0.049568
  27 H :    0.050705
  28 H :    0.052398
  29 H :    0.050578
  30 H :    0.051026
  31 H :    0.044662
  32 H :    0.046852
  33 H :    0.047652
  34 H :    0.054756
  35 H :    0.042628
  36 H :    0.050967
  37 H :    0.043327
  38 H :    0.056613

-------------------------------
LOEWDIN REDUCED ORBITAL CHARGES
-------------------------------
  0 C s       :     0.774531  s :     0.774531
      pz      :     0.983110  p :     3.101336
      px      :     1.060340
      py      :     1.057886
      dz2     :     0.056967  d :     0.236617
      dxz     :     0.042441
      dyz     :     0.064995
      dx2y2   :     0.027770
      dxy     :     0.044444

  1 C s       :     0.797139  s :     0.797139
      pz      :     0.972106  p :     2.863475
      px      :     1.005211
      py      :     0.886157
      dz2     :     0.091413  d :     0.372433
      dxz     :     0.107433
      dyz     :     0.062149
      dx2y2   :     0.055858
      dxy     :     0.055580

  2 C s       :     0.803470  s :     0.803470
      pz      :     1.031031  p :     2.948119
      px      :     0.985771
      py      :     0.931318
      dz2     :     0.092606  d :     0.299996
      dxz     :     0.068059
[...]
 81:   1513.65   0.000814    4.11  0.000168  ( 0.004822  0.011728  0.002640)
 82:   1515.70   0.001528    7.72  0.000315  ( 0.016064  0.005027 -0.005585)
 83:   1517.74   0.003760   19.00  0.000773  ( 0.013874 -0.019333 -0.014382)
 84:   1524.76   0.000304    1.54  0.000062  ( 0.007229  0.001803  0.002609)
 85:   1527.76   0.000896    4.53  0.000183  ( 0.001194  0.005000 -0.012515)
 86:   1528.33   0.003124   15.79  0.000638  (-0.013685  0.018283 -0.010784)
 87:   1530.61   0.003305   16.70  0.000674  ( 0.007649 -0.000084 -0.024804)
 88:   1540.40   0.001945    9.83  0.000394  (-0.012238  0.003972  0.015117)
 89:   1548.43   0.001369    6.92  0.000276  ( 0.006809  0.014841  0.003060)
 90:   1791.66   0.000632    3.20  0.000110  (-0.006551  0.002436 -0.007830)
 91:   1802.36   0.001182    5.97  0.000205  (-0.012243  0.000401 -0.007391)
 92:   1805.52   0.000366    1.85  0.000063  (-0.002605  0.001872 -0.007279)
 93:   3089.58   0.004864   24.58  0.000491  (-0.011481 -0.018954 -0.000502)
 94:   3093.20   0.004945   24.99  0.000499  ( 0.003818  0.003640  0.021705)
 95:   3093.82   0.011314   57.18  0.001141  (-0.016726 -0.008689 -0.028035)
 96:   3094.48   0.006383   32.26  0.000644  (-0.024763  0.005515 -0.000244)
 97:   3097.23   0.005618   28.39  0.000566  (-0.012675 -0.005135 -0.019467)
 98:   3102.36   0.005750   29.06  0.000578  ( 0.014065  0.016442 -0.010498)
 99:   3109.78   0.009207   46.53  0.000924  (-0.011763 -0.022372  0.016881)
100:   3117.70   0.014287   72.20  0.001430  ( 0.037006 -0.004414 -0.006413)
101:   3133.88   0.005341   26.99  0.000532  (-0.009922  0.017792  0.010812)
102:   3149.65   0.002110   10.66  0.000209  (-0.010540 -0.009468  0.002888)
103:   3156.33   0.000137    0.69  0.000014  ( 0.002605 -0.002566  0.000383)
104:   3158.60   0.002736   13.83  0.000270  ( 0.014785 -0.005392 -0.004756)
105:   3160.78   0.002332   11.78  0.000230  (-0.006758  0.009143  0.010046)
106:   3166.54   0.002236   11.30  0.000220  ( 0.003698  0.013493 -0.004959)
107:   3167.69   0.001551    7.84  0.000153  ( 0.005087 -0.009988  0.005209)
108:   3169.02   0.004789   24.20  0.000472  ( 0.011939  0.012965  0.012687)
109:   3173.48   0.003545   17.91  0.000349  (-0.012651 -0.007632 -0.011414)
110:   3184.27   0.002420   12.23  0.000237  (-0.013493  0.004875 -0.005599)
111:   3193.56   0.005150   26.03  0.000503  (-0.003674  0.000398 -0.022127)
112:   3205.93   0.004191   21.18  0.000408  (-0.001739 -0.000820 -0.020107)
113:   3213.22   0.002493   12.60  0.000242  ( 0.013893  0.001975 -0.006719)
114:   3220.33   0.002615   13.21  0.000253  (-0.011143  0.008926  0.007039)
115:   3221.46   0.002527   12.77  0.000245  (-0.001436  0.007587 -0.013608)
116:   3229.61   0.002601   13.15  0.000251  (-0.008527 -0.012054  0.005775)

* The epsilon (eps) is given for a Dirac delta lineshape.
** The dipole moment derivative (T) already includes vibrational overlap.

The first frequency considered to be a vibration is 6
The total number of vibrations considered is 111


--------------------------
THERMOCHEMISTRY AT 298.15K
--------------------------

Temperature         ...   298.15 K
Pressure            ...     1.00 atm
Total Mass          ...   204.36 AMU
Quasi RRHO          ...     True
Cut-Off Frequency   ...     1.00 cm^-1

Throughout the following assumptions are being made:
  (1) The electronic state is orbitally nondegenerate
  (2) There are no thermally accessible electronically excited states
  (3) Hindered rotations indicated by low frequency modes are not
      treated as such but are treated as vibrations and this may
      cause some error
  (4) All equations used are the standard statistical mechanics
      equations for an ideal gas
  (5) All vibrations are strictly harmonic

freq.      51.74  E(vib)   ...       0.52 
freq.      66.92  E(vib)   ...       0.50 
freq.     108.17  E(vib)   ...       0.45 
freq.     113.45  E(vib)   ...       0.45 
freq.     122.89  E(vib)   ...       0.43 
freq.     133.72  E(vib)   ...       0.42 
freq.     146.51  E(vib)   ...       0.41 
freq.     154.75  E(vib)   ...       0.40 
freq.     197.79  E(vib)   ...       0.35 
freq.     212.10  E(vib)   ...       0.34 
freq.     216.87  E(vib)   ...       0.34 
freq.     228.04  E(vib)   ...       0.33 
freq.     258.83  E(vib)   ...       0.30 
freq.     281.77  E(vib)   ...       0.28 
freq.     349.62  E(vib)   ...       0.23 
freq.     373.47  E(vib)   ...       0.21 
freq.     379.96  E(vib)   ...       0.21 
freq.     390.53  E(vib)   ...       0.20 
freq.     400.85  E(vib)   ...       0.19 
freq.     424.76  E(vib)   ...       0.18 
freq.     438.62  E(vib)   ...       0.17 
freq.     445.77  E(vib)   ...       0.17 
freq.     515.83  E(vib)   ...       0.13 
freq.     524.15  E(vib)   ...       0.13 
freq.     544.52  E(vib)   ...       0.12 
freq.     582.59  E(vib)   ...       0.11 
freq.     635.46  E(vib)   ...       0.09 
freq.     658.24  E(vib)   ...       0.08 
freq.     726.27  E(vib)   ...       0.06 
freq.     755.92  E(vib)   ...       0.06 
freq.     812.65  E(vib)   ...       0.05 
freq.     851.61  E(vib)   ...       0.04 
freq.     870.63  E(vib)   ...       0.04 
freq.     906.97  E(vib)   ...       0.03 
freq.     919.98  E(vib)   ...       0.03 
freq.     940.54  E(vib)   ...       0.03 
freq.     959.07  E(vib)   ...       0.03 
freq.     981.99  E(vib)   ...       0.02 
freq.     995.50  E(vib)   ...       0.02 
freq.     998.95  E(vib)   ...       0.02 
freq.    1002.69  E(vib)   ...       0.02 
freq.    1012.46  E(vib)   ...       0.02 
freq.    1027.63  E(vib)   ...       0.02 
freq.    1052.94  E(vib)   ...       0.02 
freq.    1075.46  E(vib)   ...       0.02 
freq.    1080.79  E(vib)   ...       0.02 
freq.    1084.98  E(vib)   ...       0.02 
freq.    1120.06  E(vib)   ...       0.01 
freq.    1122.54  E(vib)   ...       0.01 
freq.    1131.13  E(vib)   ...       0.01 
freq.    1167.57  E(vib)   ...       0.01 
freq.    1183.38  E(vib)   ...       0.01 
freq.    1206.80  E(vib)   ...       0.01 
freq.    1228.53  E(vib)   ...       0.01 
freq.    1249.83  E(vib)   ...       0.01 
freq.    1260.25  E(vib)   ...       0.01 
freq.    1270.80  E(vib)   ...       0.01 
freq.    1280.80  E(vib)   ...       0.01 
freq.    1289.27  E(vib)   ...       0.01 
freq.    1314.03  E(vib)   ...       0.01 
freq.    1348.19  E(vib)   ...       0.01 
freq.    1363.24  E(vib)   ...       0.01 
freq.    1385.41  E(vib)   ...       0.00 
freq.    1398.05  E(vib)   ...       0.00 
freq.    1413.94  E(vib)   ...       0.00 
freq.    1421.35  E(vib)   ...       0.00 
freq.    1423.45  E(vib)   ...       0.00 
freq.    1446.89  E(vib)   ...       0.00 
freq.    1448.96  E(vib)   ...       0.00 
freq.    1459.75  E(vib)   ...       0.00 
freq.    1466.18  E(vib)   ...       0.00 
freq.    1502.02  E(vib)   ...       0.00 
freq.    1504.62  E(vib)   ...       0.00 
freq.    1508.97  E(vib)   ...       0.00 
freq.    1511.13  E(vib)   ...       0.00 
freq.    1513.65  E(vib)   ...       0.00 
freq.    1515.70  E(vib)   ...       0.00 
freq.    1517.74  E(vib)   ...       0.00 
freq.    1524.76  E(vib)   ...       0.00 
freq.    1527.76  E(vib)   ...       0.00 
freq.    1528.33  E(vib)   ...       0.00 
freq.    1530.61  E(vib)   ...       0.00 
freq.    1540.40  E(vib)   ...       0.00 
freq.    1548.43  E(vib)   ...       0.00 
freq.    1791.66  E(vib)   ...       0.00 
freq.    1802.36  E(vib)   ...       0.00 
freq.    1805.52  E(vib)   ...       0.00 
freq.    3089.58  E(vib)   ...       0.00 
freq.    3093.20  E(vib)   ...       0.00 
freq.    3093.82  E(vib)   ...       0.00 
freq.    3094.48  E(vib)   ...       0.00 
freq.    3097.23  E(vib)   ...       0.00 
freq.    3102.36  E(vib)   ...       0.00 
freq.    3109.78  E(vib)   ...       0.00 
freq.    3117.70  E(vib)   ...       0.00 
freq.    3133.88  E(vib)   ...       0.00 
freq.    3149.65  E(vib)   ...       0.00 
freq.    3156.33  E(vib)   ...       0.00 
freq.    3158.60  E(vib)   ...       0.00 
freq.    3160.78  E(vib)   ...       0.00 
freq.    3166.54  E(vib)   ...       0.00 
freq.    3167.69  E(vib)   ...       0.00 
freq.    3169.02  E(vib)   ...       0.00 
freq.    3173.48  E(vib)   ...       0.00 
freq.    3184.27  E(vib)   ...       0.00 
freq.    3193.56  E(vib)   ...       0.00 
freq.    3205.93  E(vib)   ...       0.00 
freq.    3213.22  E(vib)   ...       0.00 
freq.    3220.33  E(vib)   ...       0.00 
freq.    3221.46  E(vib)   ...       0.00 
freq.    3229.61  E(vib)   ...       0.00 

------------
INNER ENERGY
------------

The inner energy is: U= E(el) + E(ZPE) + E(vib) + E(rot) + E(trans)
    E(el)   - is the total energy from the electronic structure calculation
              = E(kin-el) + E(nuc-el) + E(el-el) + E(nuc-nuc)
    E(ZPE)  - the the zero temperature vibrational energy from the frequency calculation
    E(vib)  - the the finite temperature correction to E(ZPE) due to population
              of excited vibrational states
    E(rot)  - is the rotational thermal energy
    E(trans)- is the translational thermal energy

Summary of contributions to the inner energy U:
Electronic energy                ...    -99.89546816 Eh
Zero point energy                ...      0.36289260 Eh     227.72 kcal/mol
Thermal vibrational correction   ...      0.01358760 Eh       8.53 kcal/mol
Thermal rotational correction    ...      0.00141627 Eh       0.89 kcal/mol
Thermal translational correction ...      0.00141627 Eh       0.89 kcal/mol
-----------------------------------------------------------------------
Total thermal energy                    -99.51615542 Eh


Summary of corrections to the electronic energy:
(perhaps to be used in another calculation)
Total thermal correction                  0.01642014 Eh      10.30 kcal/mol
Non-thermal (ZPE) correction              0.36289260 Eh     227.72 kcal/mol
-----------------------------------------------------------------------
Total correction                          0.37931274 Eh     238.02 kcal/mol


--------
ENTHALPY
--------

The enthalpy is H = U + kB*T
                kB is Boltzmann's constant
Total thermal energy              ...    -99.51615542 Eh 
Thermal Enthalpy correction       ...      0.00094421 Eh       0.59 kcal/mol
-----------------------------------------------------------------------
Total Enthalpy                    ...    -99.51521121 Eh


Note: Only C1 symmetry has been detected, increase convergence thresholds 
      if your molecule has a higher symmetry. Symmetry factor of 1.0 is   
      used for the rotational entropy correction. 
 

Note: Rotational entropy computed according to Herzberg 
Infrared and Raman Spectra, Chapter V,1, Van Nostrand Reinhold, 1945 
Point Group:  C1, Symmetry Number:   1  
Rotational constants in cm-1:     0.030571     0.015396     0.013007 

Vibrational entropy computed according to the QRRHO of S. Grimme
Chem.Eur.J. 2012 18 9955 using a reference frequency of 100.0 cm-1


-------
ENTROPY
-------

The entropy contributions are T*S = T*(S(el)+S(vib)+S(rot)+S(trans))
     S(el)   - electronic entropy
     S(vib)  - vibrational entropy
     S(rot)  - rotational entropy
     S(trans)- translational entropy
The entropies will be listed as multiplied by the temperature to get
units of energy

Electronic entropy                ...      0.00000000 Eh      0.00 kcal/mol
Vibrational entropy               ...      0.02347438 Eh     14.73 kcal/mol
Rotational entropy                ...      0.01517757 Eh      9.52 kcal/mol
Translational entropy             ...      0.01988345 Eh     12.48 kcal/mol
-----------------------------------------------------------------------
Final entropy term                ...      0.05853539 Eh     36.73 kcal/mol

In case the symmetry of your molecule has not been determined correctly
or in case you have a reason to use a different symmetry number we print 
out the resulting rotational entropy values for sn=1,12:

 non-linear molecules -----------------------------------
|  sn= 1 | S(rot)=       0.01517757 Eh      9.52 kcal/mol|
|  sn= 2 | S(rot)=       0.01452311 Eh      9.11 kcal/mol|
|  sn= 3 | S(rot)=       0.01414028 Eh      8.87 kcal/mol|
|  sn= 4 | S(rot)=       0.01386866 Eh      8.70 kcal/mol|
|  sn= 5 | S(rot)=       0.01365797 Eh      8.57 kcal/mol|
|  sn= 6 | S(rot)=       0.01348582 Eh      8.46 kcal/mol|
|  sn= 7 | S(rot)=       0.01334028 Eh      8.37 kcal/mol|
|  sn= 8 | S(rot)=       0.01321420 Eh      8.29 kcal/mol|
|  sn= 9 | S(rot)=       0.01310299 Eh      8.22 kcal/mol|
|  sn=10 | S(rot)=       0.01300351 Eh      8.16 kcal/mol|
|  sn=11 | S(rot)=       0.01291352 Eh      8.10 kcal/mol|
|  sn=12 | S(rot)=       0.01283137 Eh      8.05 kcal/mol|
 linear molecules ---------------------------------------
|  Dinfh | S(rot)=       0.00942566 Eh      5.91 kcal/mol|
|  Cinfv | S(rot)=       0.01008011 Eh      6.33 kcal/mol|
 --------------------------------------------------------


-------------------
GIBBS FREE ENERGY
-------------------

The Gibbs free energy is G = H - T*S

Total enthalpy                    ...    -99.51521121 Eh 
Total entropy correction          ...     -0.05853539 Eh    -36.73 kcal/mol
-----------------------------------------------------------------------
Final Gibbs free energy         ...    -99.57374661 Eh

For completeness - the Gibbs free energy minus the electronic energy
G-E(el)                           ...      0.32172156 Eh    201.88 kcal/mol


Maximum memory used throughout the entire PROP-calculation: 241.2 MB

--------------------------------
SUGGESTED CITATIONS FOR THIS RUN
--------------------------------

Below you find a list of papers that are relevant to this ORCA run
We neither can nor want to force you to cite these papers, but we appreciate if you do
You receive ORCA, which is the product of decades of hard work by many enthusiastic individuals, for free
The only thing we kindly ask in return is that you cite our papers,
We deeply appreciate it, if you show your appreciation for ORCA by not just citing the generic ORCA reference.

Please note that relegating all ORCA citations to the supporting information does *not* help us.
SI sections are not indexed - citations you put there will not count into any citation statistics
But we need these citations in order to attract the funding resources that allow us to do what we are doing

Therefore, if you are a happy ORCA user, please consider citing a few of the papers listed below in the main body of your paper

In addition to the list printed below, the program has created the file ./output/germacrene_b/germacrene_b.bibtex that contains the list in bibtex format
You can import this file easily into all common literature databanks and citation aid programs


List of essential papers. We consider these as the minimum necessary citations

  1. Neese,F.
     Software update: the ORCA program system, version 5.0
     WIRES Comput. Molec. Sci., 2022 12(1)e1606
     doi.org/10.1002/wcms.1606
  2. Mueller,M.; Hansen,A.; Grimme,S.
     wB97X-3c: A composite range-separated hybrid DFT method with a molecule-optimized polarized valence double-zeta basis set
     J. Chem. Phys., 2023 158 014103
     doi.org/10.1063/5.0133026

List of papers to cite with high priority. The work reported in these papers was absolutely
necessary for this run to complete.
Our perspective: the developers of density functionals and basis sets usually get cited in chemistry papers
Good! But without the algorithms to do something with them, the functionals or basis sets would not do anything.
Hence, in our opinion, the algorithm design and method developments papers are equally worthy of getting cited

  1. Neese,F.
     An improvement of the resolution of the identity approximation for the formation of the Coulomb matrix
     J. Comp. Chem., 2003 24(14)1740-1747
     doi.org/10.1002/jcc.10318
  2. Neese,F.; Wennmohs,F.; Hansen,A.; Becker,U.
     Efficient, approximate and parallel Hartree-Fock and hybrid DFT calculations. A 'chain-of-spheres' algorithm for the Hartree-Fock exchange
     Chem. Phys., 2009 356(1-3)98-109
     doi.org/10.1016/j.chemphys.2008.10.036
  3. Bykov,D.; Petrenko,T.; Izsak,R.; Kossmann,S.; Becker,U.; Valeev,E.; Neese,F.
     Efficient implementation of the analytic second derivatives of Hartree-Fock and hybrid DFT energies: a detailed analysis of different approximations
     Molec. Phys., 2015 113 1961-1977
     doi.org/10.1080/00268976.2015.1025114
  4. Helmich-Paris,B.; de Souza,B.; Neese,F.; Izsák,R.
     An improved chain of spheres for exchange algorithm
     J. Chem. Phys., 2021 155 104109
     doi.org/doi: 10.1063/5.0058766.
  5. Neese,F.
     The SHARK Integral Generation and Digestion System
     J. Comp. Chem., 2022  1-16
     doi.org/10.1002/jcc.26942
  6. Caldeweyher,E.; Bannwarth,C.; Grimme,S.
     Extension of the D3 dispersion coefficient model
     J. Chem. Phys., 2017 147 034112
     doi.org/10.1063/1.4993215
  7. Caldeweyher,E.; Ehlert,S.; Hansen,A.; Neugebauer,H.; Spicher,S.; Bannwarth,C.; Grimme,S.
     A generally applicable atomic-charge dependent London dispersion correction
     J. Chem. Phys., 2019 150 154122
     doi.org/10.1063/1.5090222
  8. Caldeweyher,E.; Mewes,J.; Ehlert,S.; Grimme,S.
     Extension and evaluation of the D4 London-dispersion model for periodic systems
     Phys. Chem. Chem. Phys., 2020 22(16)8499-8512
     doi.org/10.1039/D0CP00502A
  9. Wittmann,L.; Gordiy,I.; Friede,M.; Helmich-Paris,B.; Grimme,S.; Hansen,A.; Bursch,M.
     Extension of the D3 and D4 London Dispersion Corrections to the full Actinides Series
     Phys. Chem. Chem. Phys., 2024 26(32)21379-21394
     doi.org/https://doi.org/10.1039/D4CP01514B 

List of suggested additional citations. These are papers that are important in the 'surrounding' of 
of this run, or papers that preceded the highly important papers. If you like your results we are grateful for a citation.

  1. Izsak,R.; Neese,F.
     An overlap fitted chain of spheres exchange method
     J. Chem. Phys., 2011 135 144105
     doi.org/10.1063/1.3646921
  2. Izsak,R.; Hansen,A.; Neese,F.
     The resolution of identity and chain of spheres approximations for the LPNO-CCSD singles Fock term
     Molec. Phys., 2012 110 2413-2417
     doi.org/10.1080/00268976.2012.687466
  3. Neese,F.
     The ORCA program system
     WIRES Comput. Molec. Sci., 2012 2(1)73-78
     doi.org/10.1002/wcms.81
  4. Izsak,R.; Neese,F.; Klopper,W.
     Robust fitting techniques in the chain of spheres approximation to the Fock exchange: The role of the complementary space
     J. Chem. Phys., 2013 139 
     doi.org/10.1063/1.4819264
  5. Neese,F.
     Software update: the ORCA program system, version 4.0
     WIRES Comput. Molec. Sci., 2018 8(1)1-6
     doi.org/10.1002/wcms.1327
  6. Neese,F.; Wennmohs,F.; Becker,U.; Riplinger,C.
     The ORCA quantum chemistry program package
     J. Chem. Phys., 2020 152 Art. No. L224108
     doi.org/10.1063/5.0004608

List of optional additional citations

  1. Neese,F.
     Approximate second-order SCF convergence for spin unrestricted wavefunctions
     Chem. Phys. Lett., 2000 325(1-3)93-98
     doi.org/10.1016/s0009-2614(00)00662-x

Timings for individual modules:

Sum of individual times          ...     2334.265 sec (=  38.904 min)
Startup calculation              ...      105.606 sec (=   1.760 min)   4.5 %
SCF iterations                   ...     1443.291 sec (=  24.055 min)  61.8 %
Property integrals               ...      145.855 sec (=   2.431 min)   6.2 %
SCF Response                     ...       96.183 sec (=   1.603 min)   4.1 %
Property calculations            ...      209.474 sec (=   3.491 min)   9.0 %
SCF Gradient evaluation          ...      333.219 sec (=   5.554 min)  14.3 %
Geometry relaxation              ...        0.637 sec (=   0.011 min)   0.0 %
                             ****ORCA TERMINATED NORMALLY****
TOTAL RUN TIME: 0 days 0 hours 39 minutes 4 seconds 223 msec
