
                                 *****************
                                 * O   R   C   A *
                                 *****************

                                            #,                                       
                                            ###                                      
                                            ####                                     
                                            #####                                    
                                            ######                                   
                                           ########,                                 
                                     ,,################,,,,,                         
                               ,,#################################,,                 
                          ,,##########################################,,             
                       ,#########################################, ''#####,          
                    ,#############################################,,   '####,        
                  ,##################################################,,,,####,       
                ,###########''''           ''''###############################       
              ,#####''   ,,,,##########,,,,          '''####'''          '####       
            ,##' ,,,,###########################,,,                        '##       
           ' ,,###''''                  '''############,,,                           
         ,,##''                                '''############,,,,        ,,,,,,###''
      ,#''                                            '''#######################'''  
     '                                                          ''''####''''         
             ,#######,   #######,   ,#######,      ##                                
            ,#'     '#,  ##    ##  ,#'     '#,    #''#        ,####,   ,####,        
            ##       ##  ##   ,#'  ##            #'  '#       #'       #'  '#        
            ##       ##  #######   ##           ,######,      #####,   #    #        
            '#,     ,#'  ##    ##  '#,     ,#' ,#      #,     #,   #   #,  ,#        
             '#######'   ##     ##  '#######'  #'      '#     '####' # '####'        



                #########################################################
                #                        -***-                          #
                #          Department of theory and spectroscopy        #
                #                                                       #
                #                      Frank Neese                      #
                #                                                       #
                #     Directorship, Architecture, Infrastructure        #
                #                    SHARK, DRIVERS                     #
                #        Core code/Algorithms in most modules           #
                #                                                       #
                #        Max Planck Institute fuer Kohlenforschung      #
                #                Kaiser Wilhelm Platz 1                 #
                #                 D-45470 Muelheim/Ruhr                 #
                #                      Germany                          #
                #                                                       #
                #                  All rights reserved                  #
                #                        -***-                          #
                #########################################################


                         Program Version 6.0.1  -  RELEASE   -


 With contributions from (in alphabetic order):
[Max-Planck-Institut fuer Kohlenforschung]                               
  Daniel Aravena         : Magnetic Suceptibility                        
  Michael Atanasov       : Ab Initio Ligand Field Theory (pilot matlab implementation)
  Alexander A. Auer      : GIAO ZORA, VPT2 properties, NMR spectrum      
  Ute Becker             : All parallelization in ORCA, NUMFREQ, NUMCALC 
  Giovanni Bistoni       : ED, misc. LED, open-shell LED, HFLD           
  Martin Brehm           : Molecular dynamics                            
  Dmytro Bykov           : pre 5.0 version of the SCF Hessian            
  Marcos Casanova-Páez   : Triplet and SCS-CIS(D). UHF-(DLPNO)-IP/EA/STEOM-CCSD. UHF-CVS-IP/STEOM-CCSD   
  Vijay G. Chilkuri      : MRCI spin determinant printing, contributions to CSF-ICE 
  Pauline Colinet        : FMM embedding                                 
  Dipayan Datta          : RHF DLPNO-CCSD density                        
  Achintya Kumar Dutta   : EOM-CC, STEOM-CC                              
  Nicolas Foglia         : Exact transition moments, OPA infrastructure, MCD improvements    
  Dmitry Ganyushin       : Spin-Orbit,Spin-Spin,Magnetic field MRCI      
  Miquel Garcia-Rates    : C-PCM and meta-GGA Hessian, CCSD/C-PCM, Gaussian charge scheme 
  Tiago L. C. Gouveia    : GS-ROHF, GS-ROCIS                             
  Yang Guo               : DLPNO-NEVPT2, F12-NEVPT2, CIM, IAO-localization        
  Andreas Hansen         : Spin unrestricted coupled pair/coupled cluster methods 
  Ingolf Harden          : AUTO-CI MPn and infrastructure                
  Benjamin Helmich-Paris : MC-RPA, TRAH-(SCF,CASSCF), AVAS, COSX integrals, SCF dyn. polar. 
  Lee Huntington         : MR-EOM, pCC                                   
  Robert Izsak           : Overlap fitted RIJCOSX, COSX-SCS-MP3, EOM     
  Riya Kayal             : Wick's Theorem for AUTO-CI, AUTO-CI UHF-CCSDT 
  Emily Kempfer          : AUTO-CI, RHF CISDT and CCSDT                  
  Christian Kollmar      : KDIIS, OOCD, Brueckner-CCSD(T), CCSD density, CASPT2, CASPT2-K, improved NEVPT2 
  Axel Koslowski         : Symmetry handling                             
  Simone Kossmann        : meta-GGA functionals, TD-DFT gradient, OOMP2, (MP2 Hessian; deprecated post 5.0) 
  Lucas Lang             : DCDCAS                                        
  Marvin Lechner         : AUTO-CI (C++ implementation), FIC-MRCC        
  Spencer Leger          : CASSCF response                               
  Dagmar Lenk            : GEPOL surface, SMD, ORCA-2-JSON               
  Dimitrios Liakos       : Extrapolation schemes; Compound Job, initial MDCI parallelization 
  Dimitrios Manganas     : Further ROCIS development; embedding schemes. LFT, Crystal Embedding 
  Dimitrios Pantazis     : SARC Basis sets                               
  Anastasios Papadopoulos: AUTO-CI, single reference methods and gradients 
  Taras Petrenko         : pre 6.0 DFT Hessian and TD-DFT gradient, (ASA, deprecated), ECA, 1-Electron XAS/XES, NRVS 
  Peter Pinski           : DLPNO-MP2, DLPNO-MP2 Gradient                 
  Christoph Reimann      : Effective Core Potentials                     
  Marius Retegan         : Local ZFS, SOC                                
  Christoph Riplinger    : Optimizer, TS searches, QM/MM, DLPNO-CCSD(T), (RO)-DLPNO pert. Triples 
  Michael Roemelt        : Original ROCIS implementation                 
  Masaaki Saitow         : Open-shell DLPNO-CCSD energy and density      
  Barbara Sandhoefer     : DKH picture change effects                    
  Kantharuban Sivalingam : CASSCF convergence/infrastructure, NEVPT2 and variants, FIC-MRCI 
  Bernardo de Souza      : ESD, SOC TD-DFT                               
  Georgi L. Stoychev     : AutoAux, RI-MP2 NMR, DLPNO-MP2 response, X2C  
  Van Anh Tran           : RI-MP2 g-tensors                              
  Willem Van den Heuvel  : Paramagnetic NMR                              
  Zikuan Wang            : NOTCH, Electric field optimization            
  Frank Wennmohs         : Technical directorship and infrastructure     
  Hang Xu                : AUTO-CI-Response properties                   
                                                                         
[FACCTs GmbH]                                                            
  Markus Bursch, Miquel Garcia-Rates, Christoph Riplinger, Bernardo de Souza, Georgi L. Stoychev 
                                                                 
  APM, Basis sets (HGBS, AHGBS, def-TZVP (Ac-Lr), def2-XVPD (La-Lu)), CI-OPT, improved COSX, DLPNO-Multilevel,           
  DOCKER, DRACO, updates on ESD, GOAT, IRC, LR-CPCM, MBIS, meta-GGA TD-DFT gradient, ML-optimized integration grids, 
  MM, NACMEs, nearIR, NEB, NEB-TS, NL-DFT gradient (VV10), 2- and 3-layer-ONIOM, interface openCOSMO-RS, QMMM,   
  Crystal-QMMM, SF, symmetry and pop. for TD-DFT, r2SCAN hybrids, SOLVATOR                                   
                                                                         
[Other institutions]                                                     
  V. Asgeirsson          : NEB                                           
  Christoph Bannwarth    : sTDA-DFT, sTD-DFT, PBEh-3c, B97-3c, D3        
  Sebastian Ehlert       : rSCAN, r2SCAN, r2SCAN-3c, D4, dhf basis sets  
  Marvin Friede          : D4 for Fr, Ra, Ac-Lr                          
  Lars Goerigk           : TD-DFT with DH, B97 family of functionals     
  Stefan Grimme          : VdW corrections, initial TS optimization, DFT functionals, gCP, sTDA/sTD-DF 
  Waldemar Hujo          : DFT-NL                                        
  H. Jonsson             : NEB                                           
  Holger Kruse           : gCP                                           
  Marcel Mueller         : wB97X-3c, vDZP basis set                      
  Hagen Neugebauer       : wr2SCAN                                       
  Tobias Risthaus        : range-separated hybrid DFT                    
  Lukas Wittmann         : regularized MP2, r2SCAN double-hybrids, wr2SCAN        
                                                                         
We gratefully acknowledge several colleagues who have allowed us to      
interface, adapt or use parts of their codes:                            
  Ed Valeev, F. Pavosevic, A. Kumar             : LibInt (2-el integral package), F12 methods 
  Garnet Chan, S. Sharma, J. Yang, R. Olivares  : DMRG                   
  Ulf Ekstrom                                   : XCFun DFT Library      
  Mihaly Kallay                                 : mrcc  (arbitrary order and MRCC methods)
  Frank Weinhold                                : gennbo (NPA and NBO analysis)           
  Simon Mueller                                 : openCOSMO-RS                            
  Christopher J. Cramer and Donald G. Truhlar   : smd solvation model                     
  S Lehtola, MJT Oliveira, MAL Marques          : LibXC Library                           
  Liviu Ungur et al                             : ANISO software                          


 Your calculation uses the libint2 library for the computation of 2-el integrals
 For citations please refer to: http://libint.valeyev.net

 Your ORCA version has been built with support for libXC version: 6.2.2
 For citations please refer to: https://libxc.gitlab.io

 This ORCA versions uses:
   CBLAS   interface :  Fast vector & matrix operations
   LAPACKE interface :  Fast linear algebra routines
   SCALAPACK package :  Parallel linear algebra routines
   Shared memory     :  Shared parallel matrices
   BLAS/LAPACK       :  OpenBLAS 0.3.27  USE64BITINT DYNAMIC_ARCH NO_AFFINITY SkylakeX SINGLE_THREADED
        Core in use  :  SkylakeX
   Copyright (c) 2011-2014, The OpenBLAS Project


Your calculation utilizes the atom-pairwise dispersion correction
based on EEQ partial charges (D4)


================================================================================

cite the ECPs for C  [vDZP-ECP], O  [vDZP-ECP] as follows:
   B-Ne (ecp-2-mwb), Al-Ar (ecp-10-mwb), Ga-Kr (ecp-28-mwb), Y-Cd (ecp-28-mwb), In-Xe (ecp-46-mwb):
     A. Bergner, M. Dolg, W. Küchle, H. Stoll, and H. Preuß, Mol. Phys. 80, 1431 (1993)., T. Leininger, A. Berning, A. Nicklass, H. Stoll, H.-J. Werner, and H.-J.Flad, Chem. Phys. 217, 19 (1997).
   Na-Mg, K-Ca, Rb-Sr, Cs-Ba (CRENBL):
     L. Fernandez Pacios and P. A. Christiansen, J. Chem. Phys. 82, 2664 (1985)., M. M. Hurley, L. F. Pacios, P. A. Christiansen, R. B. Ross, and W. C. Ermler, J. Chem. Phys. 84, 6840 (1986)., L. A. LaJohn, P. A. Christiansen, R. B. Ross, T. Atashroo, and W. C. Ermler, J. Chem. Phys. 87, 2812 (1987)., R. B. Ross, J. M. Powers, T. Atashroo, W. C. Ermler, L. A. LaJohn, and P. A. Christiansen, J. Chem. Phys. 93, 6654 (1990). 
   Sc-Zn (ecp-10-mdf):
     M. Dolg, U. Wedig, H. Stoll, and H. Preuss, J. Chem. Phys. 86, 866 (1986). 
   Y-Cd (ecp-28-mwb), Hf-Hg (ecp-60-mwb):
     D. Andrae, U. Häußermann, M. Dolg, H. Stoll, and H. Preuß, Theor. Chim. Acta 77, 123 (1990). 
   La (ecp-46-mwb):
     M. Dolg, H. Stoll, and H. Preuss, J. Chem. Phys. 90, 1730 (1989)., M. Dolg, H. Stoll, and H. Preuss, Theor. Chim. Acta 85, 441 (1993).
   Ce-Lu (SBKJC-ecp):
     T. R. Cundari and W. J. Stevens, J. Chem. Phys. 98, 5555 (1993).
   Tl-Rn (ecp-78-mwb):
     W. Küchle, M. Dolg, H. Stoll, and H. Preuss, Mol. Phys. 74, 1245 (1991).

ECP parameters for C  [vDZP-ECP], O  [vDZP-ECP] have been obtained from:
MM, AH, SG, J. Chem. Phys. 158, 014103 (2023), 10.1063/5.0133026

----- Orbital basis set information -----
Your calculation utilizes the basis: vDZP
   Marcel Mueller, Andreas Hansen, Stefan Grimme 
   J. Chem. Phys. 158, 014103 (2023). DOI: 10.1063/5.0133026

----- AuxJ basis set information -----
Your calculation utilizes the auxiliary basis: def2/J
   F. Weigend, Phys. Chem. Chem. Phys. 8, 1057 (2006).

================================================================================
                                        WARNINGS
                       Please study these warnings very carefully!
================================================================================

WARNING: Frozen-Core approximation turned on, but there are no core electrons.
  ===> : Turning off frozen-core approximation


WARNING: Geometry Optimization
  ===> : Switching off AutoStart
         For restart on a previous wavefunction, please use MOREAD

================================================================================
                                       INPUT FILE
================================================================================
NAME = ./output/_e_tagetone/_e_tagetone.inp
|  1> ! wB97X-3c OPT FREQ TightSCF
|  2> %pal
|  3>   nprocs 40
|  4> end
|  5> * xyz 0 1
|  6> C      1.849048     0.192797     1.298681
|  7> C      2.371892     0.333490    -0.139030
|  8> C      3.858429    -0.039228    -0.195053
|  9> C      1.567426    -0.540185    -1.123611
| 10> C      0.144985    -0.070757    -1.247820
| 11> O     -0.105224     0.935316    -1.965031
| 12> C     -0.941138    -0.807845    -0.560950
| 13> C     -2.132542    -0.289896    -0.196746
| 14> C     -3.170331    -1.212888     0.392363
| 15> C     -2.441387     1.156666    -0.337977
| 16> C     -3.681701     1.616318    -0.499527
| 17> H      1.886721    -0.867906     1.627807
| 18> H      2.463784     0.805140     1.992435
| 19> H      0.801829     0.554853     1.368951
| 20> H      2.278639     1.400051    -0.443463
| 21> H      4.443958     0.611033     0.489545
| 22> H      4.251988     0.104793    -1.223934
| 23> H      4.008152    -1.099844     0.101471
| 24> H      1.599733    -1.604273    -0.801141
| 25> H      2.035473    -0.491236    -2.131303
| 26> H     -0.746646    -1.853155    -0.350039
| 27> H     -3.849513    -1.566917    -0.411125
| 28> H     -2.704181    -2.094611     0.882753
| 29> H     -3.765551    -0.683042     1.165898
| 30> H     -1.637689     1.880413    -0.296388
| 31> H     -3.854260     2.681081    -0.588159
| 32> H     -4.531896     0.949831    -0.563159
| 33> *
| 34> 
| 35>                          ****END OF INPUT****
================================================================================

                       *****************************
                       * Geometry Optimization Run *
                       *****************************

Geometry optimization settings:
Update method            Update   .... BFGS
Choice of coordinates    CoordSys .... (2022) Redundant Internals
Initial Hessian          InHess   .... Almloef's Model
Max. no of cycles        MaxIter  .... 81

Convergence Tolerances:
Energy Change            TolE     ....  5.0000e-06 Eh
Max. Gradient            TolMAXG  ....  3.0000e-04 Eh/bohr
RMS Gradient             TolRMSG  ....  1.0000e-04 Eh/bohr
Max. Displacement        TolMAXD  ....  4.0000e-03 bohr
RMS Displacement         TolRMSD  ....  2.0000e-03 bohr
Strict Convergence                .... False

------------------------------------------------------------------------------
                        ORCA OPTIMIZATION COORDINATE SETUP
------------------------------------------------------------------------------

The optimization will be done in redundant internal coordinates (2022)
Making redundant internal coordinates   ...  (2022 redundants) done
Evaluating the initial hessian          ...  (Almloef) done
Evaluating the coordinates              ...  done
Calculating the B-matrix                .... done
Calculating the G-matrix                .... done
Diagonalizing the G-matrix              .... done
Small eigenvalue found = 6.353e-03
Small eigenvalue found = 8.890e-03
Small eigenvalue found = 1.949e-02
Small eigenvalue found = 2.726e-02
The first mode is                       ....   40
The number of degrees of freedom        ....   75

    -----------------------------------------------------------------
                    Redundant Internal Coordinates


    -----------------------------------------------------------------
         Definition                    Initial Value    Approx d2E/dq
    -----------------------------------------------------------------
      1. B(C   1,C   0)                  1.5363         0.365047   
      2. B(C   2,C   1)                  1.5336         0.368702   
      3. B(C   3,C   1)                  1.5427         0.356567   
      4. B(C   4,C   3)                  1.5030         0.412468   
      5. B(O   5,C   4)                  1.2606         0.900083   
      6. B(C   6,C   4)                  1.4815         0.446483   
      7. B(C   7,C   6)                  1.3492         0.725807   
      8. B(C   8,C   7)                  1.5086         0.404082   
      9. B(C   9,C   7)                  1.4859         0.439289   
     10. B(C  10,C   9)                  1.3326         0.771535   
     11. B(H  11,C   0)                  1.1112         0.333082   
     12. B(H  12,C   0)                  1.1109         0.333454   
     13. B(H  13,C   0)                  1.1103         0.334265   
     14. B(H  14,C   1)                  1.1131         0.330837   
     15. B(H  15,C   2)                  1.1110         0.333344   
     16. B(H  16,C   2)                  1.1110         0.333416   
     17. B(H  17,C   2)                  1.1114         0.332853   
     18. B(H  18,C   3)                  1.1123         0.331720   
     19. B(H  19,C   3)                  1.1122         0.331943   
     20. B(H  20,C   6)                  1.0840         0.368171   
     21. B(H  21,C   8)                  1.1101         0.334526   
     22. B(H  22,C   8)                  1.1114         0.332873   
     23. B(H  23,C   8)                  1.1106         0.333883   
     24. B(H  24,C   9)                  1.0823         0.370371   
     25. B(H  25,C  10)                  1.0823         0.370445   
     26. B(H  26,C  10)                  1.0822         0.370613   
     27. A(C   1,C   0,H  12)          110.2191         0.319054   
     28. A(C   1,C   0,H  13)          110.5100         0.319181   
     29. A(H  11,C   0,H  13)          108.9354         0.283994   
     30. A(H  12,C   0,H  13)          107.6176         0.284043   
     31. A(H  11,C   0,H  12)          108.8092         0.283887   
     32. A(C   1,C   0,H  11)          110.6743         0.318996   
     33. A(C   0,C   1,C   2)          109.9879         0.361111   
     34. A(C   0,C   1,C   3)          111.5885         0.359058   
     35. A(C   3,C   1,H  14)          108.9305         0.317426   
     36. A(C   2,C   1,H  14)          107.7041         0.319163   
     37. A(C   2,C   1,C   3)          110.1526         0.359668   
     38. A(C   0,C   1,H  14)          108.3728         0.318644   
     39. A(H  16,C   2,H  17)          108.8490         0.283852   
     40. A(H  15,C   2,H  17)          108.8527         0.283842   
     41. A(C   1,C   2,H  17)          110.6565         0.319479   
     42. A(H  15,C   2,H  16)          107.9444         0.283917   
     43. A(C   1,C   2,H  15)          110.2489         0.319556   
     44. A(C   1,C   2,H  16)          110.2253         0.319567   
     45. A(C   1,C   3,H  19)          109.5051         0.317598   
     46. A(C   1,C   3,H  18)          109.9742         0.317564   
     47. A(C   4,C   3,H  18)          110.5003         0.325223   
     48. A(H  18,C   3,H  19)          107.0106         0.283506   
     49. A(C   1,C   3,C   4)          111.6770         0.366628   
     50. A(C   4,C   3,H  19)          108.0384         0.325259   
     51. A(O   5,C   4,C   6)          121.0201         0.434687   
     52. A(C   3,C   4,C   6)          120.0079         0.381124   
     53. A(C   3,C   4,O   5)          118.9539         0.428542   
     54. A(C   7,C   6,H  20)          118.4322         0.363866   
     55. A(C   4,C   6,C   7)          125.5593         0.420984   
     56. A(C   4,C   6,H  20)          116.0059         0.335241   
     57. A(C   8,C   7,C   9)          119.3240         0.378702   
     58. A(C   6,C   7,C   9)          122.1146         0.419766   
     59. A(C   6,C   7,C   8)          118.5539         0.413571   
     60. A(H  22,C   8,H  23)          107.2153         0.283916   
     61. A(H  21,C   8,H  23)          109.1714         0.284135   
     62. A(C   7,C   8,H  23)          110.4128         0.324474   
     63. A(H  21,C   8,H  22)          108.8434         0.284001   
     64. A(C   7,C   8,H  22)          111.6632         0.324312   
     65. A(C   7,C   8,H  21)          109.4731         0.324576   
     66. A(C   7,C   9,C  10)          122.7374         0.424372   
     67. A(C  10,C   9,H  24)          117.7198         0.368070   
     68. A(C   7,C   9,H  24)          119.5374         0.334668   
     69. A(H  25,C  10,H  26)          118.4135         0.293465   
     70. A(C   9,C  10,H  26)          121.7313         0.368111   
     71. A(C   9,C  10,H  25)          119.8464         0.368082   
     72. D(C   3,C   1,C   0,H  11)     57.7853         0.010671   
     73. D(C   2,C   1,C   0,H  11)    -64.7750         0.010671   
     74. D(C   2,C   1,C   0,H  13)    174.4630         0.010671   
     75. D(C   3,C   1,C   0,H  13)    -62.9767         0.010671   
     76. D(C   3,C   1,C   0,H  12)    178.1978         0.010671   
     77. D(C   2,C   1,C   0,H  12)     55.6375         0.010671   
     78. D(H  15,C   2,C   1,C   0)    -58.3996         0.010872   
     79. D(H  16,C   2,C   1,H  14)    -59.5532         0.010872   
     80. D(H  16,C   2,C   1,C   3)     59.1262         0.010872   
     81. D(H  16,C   2,C   1,C   0)   -177.4698         0.010872   
     82. D(H  15,C   2,C   1,C   3)    178.1964         0.010872   
     83. D(H  15,C   2,C   1,H  14)     59.5170         0.010872   
     84. D(C   4,C   3,C   1,H  14)    -53.6514         0.010214   
     85. D(C   4,C   3,C   1,C   2)   -171.5769         0.010214   
     86. D(C   4,C   3,C   1,C   0)     65.9572         0.010214   
     87. D(H  18,C   3,C   1,H  14)   -176.7071         0.010214   
     88. D(H  18,C   3,C   1,C   2)     65.3674         0.010214   
     89. D(H  18,C   3,C   1,C   0)    -57.0985         0.010214   
     90. D(C   6,C   4,C   3,C   1)   -103.1772         0.012595   
     91. D(O   5,C   4,C   3,H  19)    -42.1343         0.012595   
     92. D(O   5,C   4,C   3,H  18)   -158.8931         0.012595   
     93. D(C   6,C   4,C   3,H  18)     19.5788         0.012595   
     94. D(O   5,C   4,C   3,C   1)     78.3510         0.012595   
     95. D(H  20,C   6,C   4,O   5)    153.6127         0.013593   
     96. D(H  20,C   6,C   4,C   3)    -24.8270         0.013593   
     97. D(C   7,C   6,C   4,O   5)    -25.7849         0.013593   
     98. D(C   7,C   6,C   4,C   3)    155.7754         0.013593   
     99. D(C   9,C   7,C   6,H  20)    174.5766         0.037338   
    100. D(C   9,C   7,C   6,C   4)     -6.0391         0.037338   
    101. D(C   8,C   7,C   6,H  20)     -4.4236         0.037338   
    102. D(C   8,C   7,C   6,C   4)    174.9607         0.037338   
    103. D(H  23,C   8,C   7,C   6)    145.4138         0.012107   
    104. D(H  22,C   8,C   7,C   9)   -152.7986         0.012107   
    105. D(H  22,C   8,C   7,C   6)     26.2301         0.012107   
    106. D(H  21,C   8,C   7,C   9)     86.6001         0.012107   
    107. D(H  21,C   8,C   7,C   6)    -94.3712         0.012107   
    108. D(H  24,C   9,C   7,C   8)    151.0029         0.013168   
    109. D(H  24,C   9,C   7,C   6)    -27.9898         0.013168   
    110. D(C  10,C   9,C   7,C   8)    -28.1299         0.013168   
    111. D(C  10,C   9,C   7,C   6)    152.8774         0.013168   
    112. D(H  26,C  10,C   9,H  24)    179.1651         0.042690   
    113. D(H  26,C  10,C   9,C   7)     -1.6873         0.042690   
    114. D(H  25,C  10,C   9,H  24)      0.2633         0.042690   
    115. D(H  25,C  10,C   9,C   7)    179.4110         0.042690   
    -----------------------------------------------------------------

Number of atoms                         .... 27
Number of degrees of freedom            .... 115


         *************************************************************
         *                GEOMETRY OPTIMIZATION CYCLE   1            *
         *************************************************************
---------------------------------
CARTESIAN COORDINATES (ANGSTROEM)
---------------------------------
  C      1.849048    0.192797    1.298681
  C      2.371892    0.333490   -0.139030
  C      3.858429   -0.039228   -0.195053
  C      1.567426   -0.540185   -1.123611
  C      0.144985   -0.070757   -1.247820
  O     -0.105224    0.935316   -1.965031
  C     -0.941138   -0.807845   -0.560950
  C     -2.132542   -0.289896   -0.196746
  C     -3.170331   -1.212888    0.392363
  C     -2.441387    1.156666   -0.337977
  C     -3.681701    1.616318   -0.499527
  H      1.886721   -0.867906    1.627807
  H      2.463784    0.805140    1.992435
  H      0.801829    0.554853    1.368951
  H      2.278639    1.400051   -0.443463
  H      4.443958    0.611033    0.489545
  H      4.251988    0.104793   -1.223934
  H      4.008152   -1.099844    0.101471
  H      1.599733   -1.604273   -0.801141
  H      2.035473   -0.491236   -2.131303
  H     -0.746646   -1.853155   -0.350039
  H     -3.849513   -1.566917   -0.411125
  H     -2.704181   -2.094611    0.882753
  H     -3.765551   -0.683042    1.165898
  H     -1.637689    1.880413   -0.296388
  H     -3.854260    2.681081   -0.588159
  H     -4.531896    0.949831   -0.563159

----------------------------
CARTESIAN COORDINATES (A.U.)
----------------------------
  NO LB      ZA    FRAG     MASS         X           Y           Z
   0 C     4.0000*   0    12.011    3.494194    0.364334    2.454151
   1 C     4.0000*   0    12.011    4.482226    0.630205   -0.262729
   2 C     4.0000*   0    12.011    7.291374   -0.074130   -0.368597
   3 C     4.0000*   0    12.011    2.962006   -1.020802   -2.123317
   4 C     4.0000*   0    12.011    0.273982   -0.133711   -2.358038
   5 O     6.0000*   0    15.999   -0.198845    1.767491   -3.713370
   6 C     4.0000*   0    12.011   -1.778493   -1.526606   -1.060042
   7 C     4.0000*   0    12.011   -4.029920   -0.547824   -0.371796
   8 C     4.0000*   0    12.011   -5.991057   -2.292026    0.741459
   9 C     4.0000*   0    12.011   -4.613553    2.185782   -0.638684
  10 C     4.0000*   0    12.011   -6.957407    3.054398   -0.943969
  11 H     1.0000    0     1.008    3.565386   -1.640105    3.076109
  12 H     1.0000    0     1.008    4.655877    1.521494    3.765156
  13 H     1.0000    0     1.008    1.515237    1.048520    2.586942
  14 H     1.0000    0     1.008    4.306004    2.645713   -0.838024
  15 H     1.0000    0     1.008    8.397864    1.154685    0.925106
  16 H     1.0000    0     1.008    8.035093    0.198030   -2.312900
  17 H     1.0000    0     1.008    7.574310   -2.078404    0.191752
  18 H     1.0000    0     1.008    3.023057   -3.031637   -1.513937
  19 H     1.0000    0     1.008    3.846487   -0.928302   -4.027579
  20 H     1.0000    0     1.008   -1.410956   -3.501955   -0.661478
  21 H     1.0000    0     1.008   -7.274525   -2.961044   -0.776914
  22 H     1.0000    0     1.008   -5.110162   -3.958241    1.668161
  23 H     1.0000    0     1.008   -7.115860   -1.290762    2.203228
  24 H     1.0000    0     1.008   -3.094784    3.553466   -0.560092
  25 H     1.0000    0     1.008   -7.283496    5.066509   -1.111459
  26 H     1.0000    0     1.008   -8.564042    1.794920   -1.064216
* core charge reduced due to ECP

--------------------------------
INTERNAL COORDINATES (ANGSTROEM)
--------------------------------
 C      0   0   0     0.000000000000     0.00000000     0.00000000
 C      1   0   0     1.536285549013     0.00000000     0.00000000
 C      2   1   0     1.533574105292   109.98786073     0.00000000
 C      2   1   3     1.542683796616   111.58846957   122.56030228
 C      4   2   1     1.503039893465   111.67697804    65.95716313
 O      5   4   2     1.260626448846   118.95391723    78.35099750
 C      5   4   2     1.481469637817   120.00792509   256.82282415
 C      7   5   4     1.349206882369   125.55930781   155.77542704
 C      8   7   5     1.508631715982   118.55392847   174.96070388
 C      8   7   5     1.485891331568   122.11461376   353.96087058
 C     10   8   7     1.332575394565   122.73736187   152.87741748
 H      1   2   3     1.111230863959   110.67429710   295.22498597
 H      1   2   3     1.110927050648   110.21908558    55.63746806
 H      1   2   3     1.110265758275   110.50996343   174.46296420
 H      2   1   3     1.113071399425   108.37278157   242.49799710
 H      3   2   1     1.111016651345   110.24892263   301.60038910
 H      3   2   1     1.110957626142   110.22526025   182.53017915
 H      3   2   1     1.111417904643   110.65652507    62.07532636
 H      4   2   1     1.112346130884   109.97418323   302.90146070
 H      4   2   1     1.112163281930   109.50507037   185.58092334
 H      7   5   4     1.083966597311   116.00585113   335.17301234
 H      9   8   7     1.110053011396   109.47307638   265.62880745
 H      9   8   7     1.111401648068   111.66316285    26.23007083
 H      9   8   7     1.110576439666   110.41277960   145.41381679
 H     10   8   7     1.082344603227   119.53744806   332.01016049
 H     11  10   8     1.082290388978   119.84642209   179.41097106
 H     11  10   8     1.082167034527   121.73129164   358.31269083

---------------------------
INTERNAL COORDINATES (A.U.)
---------------------------
 C      0   0   0     0.000000000000     0.00000000     0.00000000
 C      1   0   0     2.903158951135     0.00000000     0.00000000
 C      2   1   0     2.898035065075   109.98786073     0.00000000
 C      2   1   3     2.915249886842   111.58846957   122.56030228
 C      4   2   1     2.840333767006   111.67697804    65.95716313
 O      5   4   2     2.382238745497   118.95391723    78.35099750
 C      5   4   2     2.799571891193   120.00792509   256.82282415
 C      7   5   4     2.549631505680   125.55930781   155.77542704
 C      8   7   5     2.850900780153   118.55392847   174.96070388
 C      8   7   5     2.807927681432   122.11461376   353.96087058
 C     10   8   7     2.518202548530   122.73736187   152.87741748
 H      1   2   3     2.099922004442   110.67429710   295.22498597
 H      1   2   3     2.099347880489   110.21908558    55.63746806
 H      1   2   3     2.098098219009   110.50996343   174.46296420
 H      2   1   3     2.103400112415   108.37278157   242.49799710
 H      3   2   1     2.099517201268   110.24892263   301.60038910
 H      3   2   1     2.099405659800   110.22526025   182.53017915
 H      3   2   1     2.100275460112   110.65652507    62.07532636
 H      4   2   1     2.102029553498   109.97418323   302.90146070
 H      4   2   1     2.101684019051   109.50507037   185.58092334
 H      7   5   4     2.048400007235   116.00585113   335.17301234
 H      9   8   7     2.097696185673   109.47307638   265.62880745
 H      9   8   7     2.100244739638   111.66316285    26.23007083
 H      9   8   7     2.098685321754   110.41277960   145.41381679
 H     10   8   7     2.045334882626   119.53744806   332.01016049
 H     11  10   8     2.045232432543   119.84642209   179.41097106
 H     11  10   8     2.044999326415   121.73129164   358.31269083

---------------------
BASIS SET INFORMATION
---------------------
There are 3 groups of distinct atoms

 Group   1 Type C   : 6s6p2d contracted to 2s2p1d pattern {42/42/2}
 Group   2 Type O   : 6s6p2d contracted to 2s2p1d pattern {42/42/2}
 Group   3 Type H   : 8s2p contracted to 2s1p pattern {53/2}

Atom   0C    basis set group =>   1
Atom   1C    basis set group =>   1
Atom   2C    basis set group =>   1
Atom   3C    basis set group =>   1
Atom   4C    basis set group =>   1
Atom   5O    basis set group =>   2
Atom   6C    basis set group =>   1
Atom   7C    basis set group =>   1
Atom   8C    basis set group =>   1
Atom   9C    basis set group =>   1
Atom  10C    basis set group =>   1
Atom  11H    basis set group =>   3
Atom  12H    basis set group =>   3
Atom  13H    basis set group =>   3
Atom  14H    basis set group =>   3
Atom  15H    basis set group =>   3
Atom  16H    basis set group =>   3
Atom  17H    basis set group =>   3
Atom  18H    basis set group =>   3
Atom  19H    basis set group =>   3
Atom  20H    basis set group =>   3
Atom  21H    basis set group =>   3
Atom  22H    basis set group =>   3
Atom  23H    basis set group =>   3
Atom  24H    basis set group =>   3
Atom  25H    basis set group =>   3
Atom  26H    basis set group =>   3
---------------------------------
AUXILIARY/J BASIS SET INFORMATION
---------------------------------
There are 3 groups of distinct atoms

 Group   1 Type C   : 12s5p4d2f1g contracted to 6s4p3d1f1g pattern {711111/2111/211/2/1}
 Group   2 Type O   : 12s5p4d2f1g contracted to 6s4p3d1f1g pattern {711111/2111/211/2/1}
 Group   3 Type H   : 5s2p1d contracted to 3s1p1d pattern {311/2/1}

Atom   0C    basis set group =>   1
Atom   1C    basis set group =>   1
Atom   2C    basis set group =>   1
Atom   3C    basis set group =>   1
Atom   4C    basis set group =>   1
Atom   5O    basis set group =>   2
Atom   6C    basis set group =>   1
Atom   7C    basis set group =>   1
Atom   8C    basis set group =>   1
Atom   9C    basis set group =>   1
Atom  10C    basis set group =>   1
Atom  11H    basis set group =>   3
Atom  12H    basis set group =>   3
Atom  13H    basis set group =>   3
Atom  14H    basis set group =>   3
Atom  15H    basis set group =>   3
Atom  16H    basis set group =>   3
Atom  17H    basis set group =>   3
Atom  18H    basis set group =>   3
Atom  19H    basis set group =>   3
Atom  20H    basis set group =>   3
Atom  21H    basis set group =>   3
Atom  22H    basis set group =>   3
Atom  23H    basis set group =>   3
Atom  24H    basis set group =>   3
Atom  25H    basis set group =>   3
Atom  26H    basis set group =>   3
-------------------------
ECP PARAMETER INFORMATION
-------------------------

 Group 1, Type C  ECP vDZP-ECP (replacing 2 core electrons, lmax=3)
 Group 2, Type O  ECP vDZP-ECP (replacing 2 core electrons, lmax=3)

Atom   0C    ECP group =>   1
Atom   1C    ECP group =>   1
Atom   2C    ECP group =>   1
Atom   3C    ECP group =>   1
Atom   4C    ECP group =>   1
Atom   5O    ECP group =>   2
Atom   6C    ECP group =>   1
Atom   7C    ECP group =>   1
Atom   8C    ECP group =>   1
Atom   9C    ECP group =>   1
Atom  10C    ECP group =>   1



           ************************************************************
           *        Program running with 40 parallel MPI-processes    *
           *              working on a common directory               *
           ************************************************************
------------------------------------------------------------------------------
                             ORCA STARTUP CALCULATIONS
                           -- RI-GTO INTEGRALS CHOSEN --
------------------------------------------------------------------------------
------------------------------------------------------------------------------
                   ___                                                        
                  /   \      - P O W E R E D   B Y -                         
                 /     \                                                     
                 |  |  |   _    _      __       _____    __    __             
                 |  |  |  | |  | |    /  \     |  _  \  |  |  /  |          
                  \  \/   | |  | |   /    \    | | | |  |  | /  /          
                 / \  \   | |__| |  /  /\  \   | |_| |  |  |/  /          
                |  |  |   |  __  | /  /__\  \  |    /   |      \           
                |  |  |   | |  | | |   __   |  |    \   |  |\   \          
                \     /   | |  | | |  |  |  |  | |\  \  |  | \   \       
                 \___/    |_|  |_| |__|  |__|  |_| \__\ |__|  \__/        
                                                                              
                      - O R C A' S   B I G   F R I E N D -                    
                                      &                                       
                       - I N T E G R A L  F E E D E R -                       
                                                                              
 v1 FN, 2020, v2 2021, v3 2022-2024                                           
------------------------------------------------------------------------------


----------------------
SHARK INTEGRAL PACKAGE
----------------------

Number of atoms                             ...     27
Number of basis functions                   ...    223
Number of shells                            ...    103
Maximum angular momentum                    ...      2
Integral batch strategy                     ... SHARK/LIBINT Hybrid
RI-J (if used) integral strategy            ... SPLIT-RIJ (Revised 2003 algorithm where possible)
Printlevel                                  ...      1
Contraction scheme used                     ... SEGMENTED contraction
Prescreening option                         ... SCHWARTZ
   Thresh                                   ... 2.500e-11
   Tcut                                     ... 2.500e-12
   Tpresel                                  ... 2.500e-12 
Coulomb Range Separation                    ... NOT USED
Exchange Range Separation                   ... Long Range
   Mu parameter                             ... 3.000e-01
   Scaling (regular/separated)              ... 1.670e-01 8.330e-01
Multipole approximations                    ... NOT USED
Finite Nucleus Model                        ... NOT USED
CABS basis                                  ... NOT available
Auxiliary Coulomb fitting basis             ... AVAILABLE
   # of basis functions in Aux-J            ...    715
   # of shells in Aux-J                     ...    245
   Maximum angular momentum in Aux-J        ...      4
Auxiliary J/K fitting basis                 ... NOT available
Auxiliary Correlation fitting basis         ... NOT available
Auxiliary 'external' fitting basis          ... NOT available

Checking pre-screening integrals            ... done (  0.0 sec) Dimension = 103
Check shell pair data                       ... done (  0.0 sec)
Shell pair information
Shell pair cut-off parameter TPreSel        ...   2.5e-12
Total number of shell pairs                 ...      5356
Shell pairs after pre-screening             ...      5278
Total number of primitive shell pairs       ...     49844
Primitive shell pairs kept                  ...     38211
          la=0 lb=0:   1475 shell pairs
          la=1 lb=0:   2018 shell pairs
          la=1 lb=1:    716 shell pairs
          la=2 lb=0:    592 shell pairs
          la=2 lb=1:    411 shell pairs
          la=2 lb=2:     66 shell pairs

Calculating one electron integrals          ... done (  0.0 sec)
Calculating ECP integrals                   ... done (  0.1 sec)
Calculating RI/J V-Matrix + Cholesky decomp.... done (  0.0 sec)
Calculating Nuclear repulsion               ... done (  0.0 sec) ENN=    323.338731890783 Eh

Diagonalization of the overlap matrix:
Smallest eigenvalue                        ... 9.536e-04
Time for diagonalization                   ...    0.007 sec
Threshold for overlap eigenvalues          ... 1.000e-07
Number of eigenvalues below threshold      ... 0
Time for construction of square roots      ...    0.005 sec
Total time needed                          ...    0.015 sec

-------------------
DFT GRID GENERATION
-------------------

General Integration Accuracy     IntAcc      ... 4.388
Radial Grid Type                 RadialGrid  ... OptM3 with GC (2021)
Angular Grid (max. ang.)         AngularGrid ... 4 (Lebedev-302)
Angular grid pruning method      GridPruning ... 4 (adaptive)
Weight generation scheme         WeightScheme... mBecke (2022)
Basis function cutoff            BFCut       ... 1.0000e-11
Integration weight cutoff        WCut        ... 1.0000e-14
Partially contracted basis set               ... off
Rotationally invariant grid construction     ... off
Angular grids for H and He will be reduced by one unit

Total number of grid points                  ...   117200
Total number of batches                      ...     1846
Average number of points per batch           ...       63
Average number of grid points per atom       ...     4341

--------------------
COSX GRID GENERATION
--------------------

GRIDX 1
-------
General Integration Accuracy     IntAcc      ... 3.816
Radial Grid Type                 RadialGrid  ... OptM3 with GC (2021)
Angular Grid (max. ang.)         AngularGrid ... 1 (Lebedev-50)
Angular grid pruning method      GridPruning ... 4 (adaptive)
Weight generation scheme         WeightScheme... mBecke (2022)
Basis function cutoff            BFCut       ... 1.0000e-11
Integration weight cutoff        WCut        ... 1.0000e-14
Partially contracted basis set               ... on
Rotationally invariant grid construction     ... off
Angular grids for H and He will be reduced by one unit

Total number of grid points                  ...    14974
Total number of batches                      ...      136
Average number of points per batch           ...      110
Average number of grid points per atom       ...      555
UseSFitting                                  ... on

GRIDX 2
-------
General Integration Accuracy     IntAcc      ... 4.020
Radial Grid Type                 RadialGrid  ... OptM3 with GC (2021)
Angular Grid (max. ang.)         AngularGrid ... 2 (Lebedev-110)
Angular grid pruning method      GridPruning ... 4 (adaptive)
Weight generation scheme         WeightScheme... mBecke (2022)
Basis function cutoff            BFCut       ... 1.0000e-11
Integration weight cutoff        WCut        ... 1.0000e-14
Partially contracted basis set               ... on
Rotationally invariant grid construction     ... off
Angular grids for H and He will be reduced by one unit

Total number of grid points                  ...    31530
Total number of batches                      ...      259
Average number of points per batch           ...      121
Average number of grid points per atom       ...     1168
UseSFitting                                  ... on

GRIDX 3
-------
General Integration Accuracy     IntAcc      ... 4.338
Radial Grid Type                 RadialGrid  ... OptM3 with GC (2021)
Angular Grid (max. ang.)         AngularGrid ... 3 (Lebedev-194)
Angular grid pruning method      GridPruning ... 4 (adaptive)
Weight generation scheme         WeightScheme... mBecke (2022)
Basis function cutoff            BFCut       ... 1.0000e-11
Integration weight cutoff        WCut        ... 1.0000e-14
Partially contracted basis set               ... on
Rotationally invariant grid construction     ... off
Angular grids for H and He will be reduced by one unit

Total number of grid points                  ...    68722
Total number of batches                      ...      551
Average number of points per batch           ...      124
Average number of grid points per atom       ...     2545
UseSFitting                                  ... on
Initializing property integral containers    ... done (  0.0 sec)

SHARK setup successfully completed in   3.9 seconds

Maximum memory used throughout the entire STARTUP-calculation: 35.2 MB


           ************************************************************
           *        Program running with 40 parallel MPI-processes    *
           *              working on a common directory               *
           ************************************************************
-------------------------------------------------------------------------------
                                 ORCA GUESS
                   Start orbitals & Density for SCF / CASSCF
-------------------------------------------------------------------------------

------------
SCF SETTINGS
------------
Hamiltonian:
 Density Functional     Method          .... DFT(GTOs)
 Exchange Functional    Exchange        .... WB97X-V
 Correlation Functional Correlation     .... WB97X-V
 Gradients option       PostSCFGGA      .... off
 Hybrid DFT is turned on
   Fraction HF Exchange ScalHFX         ....  0.167000
   Scaling of DF-GGA-X  ScalDFX         ....  0.000000
   Scaling of DF-GGA-C  ScalDFC         ....  1.000000
   Scaling of DF-LDA-C  ScalLDAC        ....  1.000000
   Perturbative correction              ....  0.000000
 Long-range corrected/Screened/Range-Separated Hybrid DFT is turned on
   Amount of maximum screened exact exchange              ....  0.833000
   Range separation parameter mu (erf(mu*r12)/r12)        ....  0.300000
   NL short-range parameter             ....  6.000000
   NL long-range parameter              ....  0.010000
 RI-approximation to the Coulomb term is turned on
   Number of AuxJ basis functions       .... 715
   RIJ-COSX (HFX calculated with COS-X)).... on


General Settings:
 Integral files         IntName         .... ./output/_e_tagetone/_e_tagetone
 Hartree-Fock type      HFTyp           .... RHF
 Total Charge           Charge          ....    0
 Multiplicity           Mult            ....    1
 Number of Electrons    NEL             ....   62
 Basis Dimension        Dim             ....  223
 Nuclear Repulsion      ENuc            ....    323.3387318908 Eh

Convergence Acceleration:
 AO-DIIS                CNVDIIS         .... on
   Start iteration      DIISMaxIt       ....    12
   Startup error        DIISStart       ....  0.200000
   # of expansion vecs  DIISMaxEq       ....     5
   Bias factor          DIISBfac        ....   1.050
   Max. coefficient     DIISMaxC        ....  10.000
 MO-DIIS                CNVKDIIS        .... off
 Trust-Rad. Augm. Hess. CNVTRAH         .... auto
   Auto Start mean grad. ratio tolernc. ....  1.125000
   Auto Start start iteration           ....    50
   Auto Start num. interpolation iter.  ....    10
   Max. Number of Micro iterations      ....    24
   Max. Number of Macro iterations      .... Maxiter - #DIIS iter
   Number of Davidson start vectors     ....     2
   Converg. threshold    (grad. norm)   ....   1.000e-05
   Grad. Scal. Fac. for Micro threshold ....   0.100
   Minimum threshold for Micro iter.    ....   1.000e-02
   NR start threshold (gradient norm)   ....   1.000e-04
   Initial trust radius                 ....   0.400
   Minimum AH scaling param. (alpha)    ....   1.000
   Maximum AH scaling param. (alpha)    .... 1000.000
   Quad. conv. algorithm                .... NR
   White noise on init. David. guess    .... on
   Maximum white noise                  ....   0.010
   Pseudo random numbers                .... off
   Inactive MOs                         .... canonical
   Orbital update algorithm             .... Taylor
   Preconditioner                       .... Diag
   Full preconditioner red. dimension   ....   250
 SOSCF                  CNVSOSCF        .... on
   Start iteration      SOSCFMaxIt      ....   150
   Startup grad/error   SOSCFStart      ....  0.003300
   Hessian update       SOSCFHessUp     .... L-BFGS
 Level Shifting         CNVShift        .... on
   Level shift para.    LevelShift      ....    0.2500
   Turn off err/grad.   ShiftErr        ....    0.0010
 Zerner damping         CNVZerner       .... off
 Static damping         CNVDamp         .... on
   Fraction old density DampFac         ....    0.7000
   Max. Damping (<1)    DampMax         ....    0.9800
   Min. Damping (>=0)   DampMin         ....    0.0000
   Turn off err/grad.   DampErr         ....    0.1000

SCF Procedure:
 Maximum # iterations   MaxIter         ....   125
 SCF integral mode      SCFMode         .... Direct
   Integral package                     .... SHARK and LIBINT hybrid scheme
 Reset frequency        DirectResetFreq ....    20
 Integral Threshold     Thresh          ....  2.500e-11 Eh
 Primitive CutOff       TCut            ....  2.500e-12 Eh

Convergence Tolerance:
 Convergence Check Mode ConvCheckMode   .... Total+1el-Energy
 Convergence forced     ConvForced      .... 0
 Energy Change          TolE            ....  1.000e-08 Eh
 1-El. energy change                    ....  1.000e-05 Eh
 Orbital Gradient       TolG            ....  1.000e-05
 Orbital Rotation angle TolX            ....  1.000e-05
 DIIS Error             TolErr          ....  5.000e-07

------------------------------
INITIAL GUESS: MODEL POTENTIAL
------------------------------
Loading Hartree-Fock densities                     ... done
Atomic calculation to generate a density for atom 0 (C  with ECP)
  Multiplicity assumed   :    1
  Atomic configuration   : 1s2 2s2 2p2 
  Number of open shells  : 1
  Command: /home/aspe232/Project/Software/ORCA/6_0_1/build/orca ./output/_e_tagetone/_e_tagetone_atom6.inp "" > ./output/_e_tagetone/_e_tagetone_atom6.out
Returned from the atomic calculation with res=0
Atomic calculation to generate a density for atom 5 (O  with ECP)
  Multiplicity assumed   :    3
  Atomic configuration   : 1s2 2s2 2p4 
  Number of open shells  : 1
  Command: /home/aspe232/Project/Software/ORCA/6_0_1/build/orca ./output/_e_tagetone/_e_tagetone_atom8.inp "" > ./output/_e_tagetone/_e_tagetone_atom8.out
Returned from the atomic calculation with res=0
Calculating cut-offs                               ... done
Initializing the effective Hamiltonian             ... done
Setting up the integral package (SHARK)            ... done
Starting the Coulomb interaction                   ... done (   0.0 sec)
Making the grid                                    ... done (   0.6 sec)
Mapping shells                                     ... done
Starting the XC term evaluation                    ... done (   0.1 sec)
  promolecular density results
     # of electrons  =     83.990418484
     EX              =    -42.567169877
     EC              =     -3.367169527
     EX+EC           =    -45.934339404
Transforming the Hamiltonian                       ... done (   0.0 sec)
Diagonalizing the Hamiltonian                      ... done (   0.0 sec)
Back transforming the eigenvectors                 ... done (   0.0 sec)
Now organizing SCF variables                       ... done
                      ------------------
                      INITIAL GUESS DONE (   1.9 sec)
                      ------------------
             **** ENERGY FILE WAS UPDATED (./output/_e_tagetone/_e_tagetone.en.tmp) ****
Finished Guess after   2.4 sec
Maximum memory used throughout the entire GUESS-calculation: 21.6 MB


           ************************************************************
           *        Program running with 40 parallel MPI-processes    *
           *              working on a common directory               *
           ************************************************************

-------------------------------------------------------------------------------------------
                                      ORCA LEAN-SCF
                              memory conserving SCF solver
-------------------------------------------------------------------------------------------

----------------------------------------D-I-I-S--------------------------------------------
Iteration    Energy (Eh)           Delta-E    RMSDP     MaxDP     DIISErr   Damp  Time(sec)
-------------------------------------------------------------------------------------------
               ***  Starting incremental Fock matrix formation  ***
    1    -82.1678118138020750     0.00e+00  3.70e-03  7.69e-02  1.80e-01  0.700   4.1
    2    -82.3448222715578027    -1.77e-01  2.72e-03  5.74e-02  1.09e-01  0.700   3.9
                               ***Turning on AO-DIIS***
    3    -82.4379870747399650    -9.32e-02  1.45e-03  3.26e-02  6.11e-02  0.700   3.3
    4    -82.4931474219820302    -5.52e-02  3.06e-03  6.57e-02  3.86e-02  0.000   3.6
    5    -82.6095676460158188    -1.16e-01  2.69e-04  7.85e-03  6.99e-03  0.000   3.4
    6    -82.6099318156677214    -3.64e-04  1.25e-04  5.87e-03  5.09e-03  0.000   3.2
                              *** Initializing SOSCF ***
---------------------------------------S-O-S-C-F--------------------------------------
Iteration    Energy (Eh)           Delta-E    RMSDP     MaxDP     MaxGrad    Time(sec)
--------------------------------------------------------------------------------------
    7    -82.6100352172258567    -1.03e-04  7.38e-05  2.30e-03  1.81e-03     3.3
               *** Restarting incremental Fock matrix formation ***
    8    -82.6100720327861495    -3.68e-05  4.46e-05  1.38e-03  6.70e-04     4.5
    9    -82.6100830272264375    -1.10e-05  4.68e-05  1.41e-03  3.31e-04     4.0
   10    -82.6100856750843491    -2.65e-06  1.48e-05  7.22e-04  1.69e-04     3.8
   11    -82.6100866682554056    -9.93e-07  6.41e-06  1.81e-04  4.86e-05     3.7
   12    -82.6100867472881077    -7.90e-08  2.57e-06  6.34e-05  1.92e-05     3.5
   13    -82.6100867918875110    -4.46e-08  4.43e-07  1.44e-05  3.54e-06     3.5
   14    -82.6100867887481058     3.14e-09  2.29e-07  8.50e-06  2.34e-06     3.1
                 **** Energy Check signals convergence ****

               *****************************************************
               *                     SUCCESS                       *
               *           SCF CONVERGED AFTER  14 CYCLES          *
               *****************************************************

Recomputing exchange energy using gridx3       ... done (    3.907 sec)
Old exchange energy                            :    -11.888688704 Eh
New exchange energy                            :    -11.888708985 Eh
Exchange energy change after final integration :     -0.000020280 Eh
Total energy after final integration           :    -82.610107069 Eh
             **** ENERGY FILE WAS UPDATED (./output/_e_tagetone/_e_tagetone.en.tmp) ****

----------------
TOTAL SCF ENERGY
----------------

Total Energy       :        -82.61010706898013 Eh           -2247.93530 eV

Components:
Nuclear Repulsion  :        323.33873189078309 Eh            8798.49420 eV
Electronic Energy  :       -405.94881867953120 Eh          -11046.42895 eV
One Electron Energy:       -765.21392037860107 Eh          -20822.52937 eV
Two Electron Energy:        359.26510169906987 Eh            9776.10042 eV

Virial components:
Potential Energy   :       -146.68192421522630 Eh           -3991.41808 eV
Kinetic Energy     :         64.07181714624618 Eh            1743.48278 eV
Virial Ratio       :          2.28933610358544

DFT components:
N(Alpha)           :       31.000033170413 electrons
N(Beta)            :       31.000033170413 electrons
N(Total)           :       62.000066340825 electrons
E(X)               :      -12.592282149445 Eh       
E(C)               :       -2.315918274143 Eh       
E(XC)              :      -14.908200423588 Eh       

---------------
SCF CONVERGENCE
---------------

  Last Energy change         ...   -3.1394e-09  Tolerance :   1.0000e-08
  Last MAX-Density change    ...    8.4976e-06  Tolerance :   1.0000e-07
  Last RMS-Density change    ...    2.2950e-07  Tolerance :   5.0000e-09
  Last DIIS Error            ...    1.8059e-03  Tolerance :   5.0000e-07
  Last Orbital Gradient      ...    2.3365e-06  Tolerance :   1.0000e-05
  Last Orbital Rotation      ...    6.4037e-06  Tolerance :   1.0000e-05


----------------
ORBITAL ENERGIES
----------------

  NO   OCC          E(Eh)            E(eV) 
   0   2.0000      -1.138065       -30.9683 
   1   2.0000      -0.976231       -26.5646 
   2   2.0000      -0.956072       -26.0161 
   3   2.0000      -0.896607       -24.3979 
   4   2.0000      -0.864265       -23.5178 
   5   2.0000      -0.832535       -22.6544 
   6   2.0000      -0.817322       -22.2405 
   7   2.0000      -0.750735       -20.4285 
   8   2.0000      -0.702564       -19.1177 
   9   2.0000      -0.675811       -18.3897 
  10   2.0000      -0.640301       -17.4235 
  11   2.0000      -0.607963       -16.5435 
  12   2.0000      -0.592190       -16.1143 
  13   2.0000      -0.571543       -15.5525 
  14   2.0000      -0.560228       -15.2446 
  15   2.0000      -0.551516       -15.0075 
  16   2.0000      -0.543058       -14.7774 
  17   2.0000      -0.526117       -14.3164 
  18   2.0000      -0.517813       -14.0904 
  19   2.0000      -0.500908       -13.6304 
  20   2.0000      -0.496503       -13.5105 
  21   2.0000      -0.492865       -13.4115 
  22   2.0000      -0.485991       -13.2245 
  23   2.0000      -0.471177       -12.8214 
  24   2.0000      -0.457769       -12.4565 
  25   2.0000      -0.445253       -12.1159 
  26   2.0000      -0.434648       -11.8274 
  27   2.0000      -0.431003       -11.7282 
  28   2.0000      -0.409882       -11.1535 
  29   2.0000      -0.352480        -9.5915 
  30   2.0000      -0.338916        -9.2224 
  31   0.0000       0.005449         0.1483 
  32   0.0000       0.078094         2.1251 
  33   0.0000       0.092268         2.5107 
  34   0.0000       0.094568         2.5733 
  35   0.0000       0.095333         2.5941 
  36   0.0000       0.109307         2.9744 
  37   0.0000       0.118173         3.2157 
  38   0.0000       0.121135         3.2962 
  39   0.0000       0.133681         3.6376 
  40   0.0000       0.139638         3.7997 
  41   0.0000       0.146771         3.9939 
*Only the first 10 virtual orbitals were printed.

                    ********************************
                    * MULLIKEN POPULATION ANALYSIS *
                    ********************************

-----------------------
MULLIKEN ATOMIC CHARGES
-----------------------
   0 C :   -0.068611
   1 C :   -0.107520
   2 C :   -0.082119
   3 C :   -0.061711
   4 C :    0.141021
   5 O :   -0.343861
   6 C :    0.001873
   7 C :   -0.049093
   8 C :   -0.096792
   9 C :    0.006637
  10 C :   -0.022533
  11 H :    0.034522
  12 H :    0.041136
  13 H :    0.042991
  14 H :    0.059770
  15 H :    0.039679
  16 H :    0.040456
  17 H :    0.033975
  18 H :    0.038872
  19 H :    0.067785
  20 H :    0.020626
  21 H :    0.070057
  22 H :    0.050653
  23 H :    0.056714
  24 H :    0.026821
  25 H :    0.034894
  26 H :    0.023759
Sum of atomic charges:   -0.0000000

--------------------------------
MULLIKEN REDUCED ORBITAL CHARGES
--------------------------------
  0 C s       :     0.965035  s :     0.965035
      pz      :     0.958173  p :     3.030218
      px      :     1.034223
      py      :     1.037822
      dz2     :     0.016762  d :     0.073358
      dxz     :     0.014282
      dyz     :     0.016999
      dx2y2   :     0.017282
      dxy     :     0.008033

  1 C s       :     1.067290  s :     1.067290
      pz      :     0.934120  p :     2.914212
      px      :     0.948724
      py      :     1.031367
      dz2     :     0.028969  d :     0.126019
      dxz     :     0.027895
      dyz     :     0.020803
      dx2y2   :     0.030418
      dxy     :     0.017933

  2 C s       :     0.968128  s :     0.968128
      pz      :     1.050794  p :     3.039611
      px      :     0.954106
      py      :     1.034711
      dz2     :     0.014388  d :     0.074380
      dxz     :     0.018803
      dyz     :     0.008735
      dx2y2   :     0.018442
      dxy     :     0.014010

  3 C s       :     0.986006  s :     0.986006
      pz      :     1.039694  p :     2.984296
      px      :     0.932046
      py      :     1.012555
      dz2     :     0.022541  d :     0.091409
      dxz     :     0.016984
      dyz     :     0.010942
      dx2y2   :     0.028563
      dxy     :     0.012378

  4 C s       :     1.142904  s :     1.142904
      pz      :     0.755143  p :     2.515915
      px      :     0.941613
      py      :     0.819159
      dz2     :     0.034565  d :     0.200160
      dxz     :     0.038764
      dyz     :     0.024836
      dx2y2   :     0.040756
      dxy     :     0.061239

  5 O s       :     1.799731  s :     1.799731
      pz      :     1.351197  p :     4.510611
      px      :     1.832150
      py      :     1.327264
      dz2     :     0.008327  d :     0.033519
      dxz     :     0.003250
      dyz     :     0.009364
      dx2y2   :     0.007464
      dxy     :     0.005113

  6 C s       :     0.989675  s :     0.989675
      pz      :     1.011055  p :     2.927163
      px      :     0.926867
      py      :     0.989241
      dz2     :     0.008699  d :     0.081289
      dxz     :     0.014453
      dyz     :     0.008089
      dx2y2   :     0.027888
      dxy     :     0.022159

  7 C s       :     1.102312  s :     1.102312
      pz      :     0.879248  p :     2.822191
      px      :     0.961211
      py      :     0.981731
      dz2     :     0.011337  d :     0.124591
      dxz     :     0.022663
      dyz     :     0.021356
      dx2y2   :     0.036179
      dxy     :     0.033056

  8 C s       :     0.958367  s :     0.958367
      pz      :     1.043194  p :     3.066376
      px      :     1.007639
      py      :     1.015543
      dz2     :     0.007063  d :     0.072049
      dxz     :     0.021656
      dyz     :     0.015138
      dx2y2   :     0.010259
      dxy     :     0.017933

  9 C s       :     1.018470  s :     1.018470
      pz      :     0.943206  p :     2.880532
      px      :     0.995528
      py      :     0.941798
      dz2     :     0.004862  d :     0.094361
      dxz     :     0.018093
      dyz     :     0.010907
      dx2y2   :     0.026165
      dxy     :     0.034334

 10 C s       :     1.004723  s :     1.004723
      pz      :     0.961091  p :     2.951090
      px      :     0.990413
      py      :     0.999586
      dz2     :     0.004444  d :     0.066720
      dxz     :     0.013231
      dyz     :     0.002626
      dx2y2   :     0.021785
      dxy     :     0.024635

 11 H s       :     0.922682  s :     0.922682
      pz      :     0.010761  p :     0.042795
      px      :     0.009963
      py      :     0.022071

 12 H s       :     0.915435  s :     0.915435
      pz      :     0.015658  p :     0.043429
      px      :     0.013940
      py      :     0.013831

 13 H s       :     0.912712  s :     0.912712
      pz      :     0.010265  p :     0.044297
      px      :     0.022659
      py      :     0.011373

 14 H s       :     0.900468  s :     0.900468
      pz      :     0.009858  p :     0.039762
      px      :     0.008387
      py      :     0.021518

 15 H s       :     0.917062  s :     0.917062
      pz      :     0.014941  p :     0.043258
      px      :     0.014018
      py      :     0.014300

 16 H s       :     0.916421  s :     0.916421
      pz      :     0.021239  p :     0.043123
      px      :     0.011752
      py      :     0.010131

 17 H s       :     0.923149  s :     0.923149
      pz      :     0.010866  p :     0.042876
      px      :     0.009741
      py      :     0.022269

 18 H s       :     0.918700  s :     0.918700
      pz      :     0.010453  p :     0.042428
      px      :     0.009518
      py      :     0.022457

 19 H s       :     0.889647  s :     0.889647
      pz      :     0.021883  p :     0.042567
      px      :     0.011787
      py      :     0.008897

 20 H s       :     0.928735  s :     0.928735
      pz      :     0.014871  p :     0.050638
      px      :     0.010522
      py      :     0.025245

 21 H s       :     0.885655  s :     0.885655
      pz      :     0.017131  p :     0.044288
      px      :     0.015458
      py      :     0.011699

 22 H s       :     0.905279  s :     0.905279
      pz      :     0.013152  p :     0.044068
      px      :     0.011910
      py      :     0.019007

 23 H s       :     0.899150  s :     0.899150
      pz      :     0.016847  p :     0.044136
      px      :     0.014264
      py      :     0.013026

 24 H s       :     0.923135  s :     0.923135
      pz      :     0.013187  p :     0.050044
      px      :     0.019997
      py      :     0.016859

 25 H s       :     0.915196  s :     0.915196
      pz      :     0.014071  p :     0.049911
      px      :     0.010161
      py      :     0.025678

 26 H s       :     0.924573  s :     0.924573
      pz      :     0.014500  p :     0.051668
      px      :     0.020227
      py      :     0.016941



                     *******************************
                     * LOEWDIN POPULATION ANALYSIS *
                     *******************************

----------------------
LOEWDIN ATOMIC CHARGES
----------------------
   0 C :   -0.115188
   1 C :   -0.080076
   2 C :   -0.116610
   3 C :   -0.079758
   4 C :    0.011853
   5 O :   -0.171767
   6 C :   -0.060192
   7 C :   -0.000508
   8 C :   -0.105321
   9 C :   -0.033241
  10 C :   -0.051568
  11 H :    0.044685
  12 H :    0.049878
  13 H :    0.046048
  14 H :    0.056311
  15 H :    0.049346
  16 H :    0.048573
  17 H :    0.045519
  18 H :    0.051269
  19 H :    0.066789
  20 H :    0.040650
  21 H :    0.059950
  22 H :    0.059199
  23 H :    0.056981
  24 H :    0.050969
  25 H :    0.041266
  26 H :    0.034946

-------------------------------
LOEWDIN REDUCED ORBITAL CHARGES
-------------------------------
  0 C s       :     0.779741  s :     0.779741
      pz      :     0.980313  p :     3.093378
      px      :     1.051829
      py      :     1.061235
      dz2     :     0.054339  d :     0.242069
      dxz     :     0.047586
      dyz     :     0.058436
      dx2y2   :     0.055703
      dxy     :     0.026005

  1 C s       :     0.759659  s :     0.759659
      pz      :     0.955128  p :     2.931694
      px      :     0.949856
      py      :     1.026710
      dz2     :     0.088163  d :     0.388723
      dxz     :     0.085706
      dyz     :     0.064566
      dx2y2   :     0.095511
      dxy     :     0.054777

  2 C s       :     0.780477  s :     0.780477
      pz      :     1.063343  p :     3.092829
      px      :     0.973206
      py      :     1.056279
      dz2     :     0.045156  d :     0.243304
      dxz     :     0.062851
      dyz     :     0.027485
      dx2y2   :     0.060092
      dxy     :     0.047720

  3 C s       :     0.767477  s :     0.767477
      pz      :     1.031832  p :     3.015819
      px      :     0.964720
      py      :     1.019268
      dz2     :     0.072114  d :     0.296462
      dxz     :     0.057633
      dyz     :     0.033832
      dx2y2   :     0.091866
      dxy     :     0.041017

  4 C s       :     0.799361  s :     0.799361
      pz      :     0.782717  p :     2.628222
      px      :     0.991565
      py      :     0.853941
      dz2     :     0.084699  d :     0.560563
      dxz     :     0.105666
      dyz     :     0.090825
      dx2y2   :     0.118294
      dxy     :     0.161079

  5 O s       :     1.554202  s :     1.554202
      pz      :     1.381609  p :     4.547565
      px      :     1.748301
      py      :     1.417654
      dz2     :     0.011389  d :     0.070001
      dxz     :     0.007663
      dyz     :     0.022130
      dx2y2   :     0.014178
      dxy     :     0.014641

  6 C s       :     0.805151  s :     0.805151
      pz      :     0.957839  p :     2.982074
      px      :     0.995444
      py      :     1.028792
      dz2     :     0.029205  d :     0.272967
      dxz     :     0.048326
      dyz     :     0.023957
      dx2y2   :     0.097536
      dxy     :     0.073942

  7 C s       :     0.802678  s :     0.802678
      pz      :     0.832044  p :     2.818936
      px      :     0.994526
      py      :     0.992366
      dz2     :     0.038004  d :     0.378893
      dxz     :     0.063482
      dyz     :     0.058525
      dx2y2   :     0.111335
      dxy     :     0.107547

  8 C s       :     0.776653  s :     0.776653
      pz      :     1.051832  p :     3.097244
      px      :     1.017271
      py      :     1.028140
      dz2     :     0.020359  d :     0.231425
      dxz     :     0.070220
      dyz     :     0.049960
      dx2y2   :     0.035465
      dxy     :     0.055421

  9 C s       :     0.806232  s :     0.806232
      pz      :     0.869660  p :     2.927308
      px      :     1.069273
      py      :     0.988375
      dz2     :     0.020226  d :     0.299701
      dxz     :     0.040453
      dyz     :     0.032459
      dx2y2   :     0.086490
      dxy     :     0.120073

 10 C s       :     0.830702  s :     0.830702
      pz      :     0.883345  p :     3.002455
      px      :     1.057187
      py      :     1.061923
      dz2     :     0.017138  d :     0.218412
      dxz     :     0.029317
      dyz     :     0.006101
      dx2y2   :     0.079012
      dxy     :     0.086843

 11 H s       :     0.810399  s :     0.810399
      pz      :     0.040643  p :     0.144916
      px      :     0.039799
      py      :     0.064474

 12 H s       :     0.805152  s :     0.805152
      pz      :     0.049500  p :     0.144970
      px      :     0.048018
      py      :     0.047452

 13 H s       :     0.805726  s :     0.805726
      pz      :     0.039974  p :     0.148226
      px      :     0.065286
      py      :     0.042966

 14 H s       :     0.797432  s :     0.797432
      pz      :     0.039977  p :     0.146257
      px      :     0.037664
      py      :     0.068617

 15 H s       :     0.805970  s :     0.805970
      pz      :     0.050452  p :     0.144684
      px      :     0.045974
      py      :     0.048258

 16 H s       :     0.806188  s :     0.806188
      pz      :     0.062862  p :     0.145239
      px      :     0.041982
      py      :     0.040395

 17 H s       :     0.809582  s :     0.809582
      pz      :     0.042032  p :     0.144899
      px      :     0.038258
      py      :     0.064609

 18 H s       :     0.804115  s :     0.804115
      pz      :     0.042122  p :     0.144615
      px      :     0.035758
      py      :     0.066735

 19 H s       :     0.789370  s :     0.789370
      pz      :     0.063734  p :     0.143841
      px      :     0.042027
      py      :     0.038081

 20 H s       :     0.803245  s :     0.803245
      pz      :     0.049202  p :     0.156105
      px      :     0.035908
      py      :     0.070995

 21 H s       :     0.792320  s :     0.792320
      pz      :     0.053535  p :     0.147730
      px      :     0.051130
      py      :     0.043065

 22 H s       :     0.797706  s :     0.797706
      pz      :     0.044112  p :     0.143095
      px      :     0.042059
      py      :     0.056924

 23 H s       :     0.797366  s :     0.797366
      pz      :     0.052502  p :     0.145653
      px      :     0.048272
      py      :     0.044880

 24 H s       :     0.796448  s :     0.796448
      pz      :     0.042255  p :     0.152583
      px      :     0.059123
      py      :     0.051204

 25 H s       :     0.807357  s :     0.807357
      pz      :     0.044838  p :     0.151377
      px      :     0.036837
      py      :     0.069702

 26 H s       :     0.812688  s :     0.812688
      pz      :     0.043873  p :     0.152366
      px      :     0.055805
      py      :     0.052688



                      *****************************
                      * MAYER POPULATION ANALYSIS *
                      *****************************

  NA   - Mulliken gross atomic population
  ZA   - Total nuclear charge
  QA   - Mulliken gross atomic charge
  VA   - Mayer's total valence
  BVA  - Mayer's bonded valence
  FA   - Mayer's free valence

  ATOM       NA         ZA         QA         VA         BVA        FA
  0 C      4.0686     4.0000    -0.0686     3.9540     3.9540     0.0000
  1 C      4.1075     4.0000    -0.1075     4.0433     4.0433    -0.0000
  2 C      4.0821     4.0000    -0.0821     3.9715     3.9715    -0.0000
  3 C      4.0617     4.0000    -0.0617     3.9165     3.9165    -0.0000
  4 C      3.8590     4.0000     0.1410     4.0913     4.0913     0.0000
  5 O      6.3439     6.0000    -0.3439     1.9932     1.9932     0.0000
  6 C      3.9981     4.0000     0.0019     3.9118     3.9118     0.0000
  7 C      4.0491     4.0000    -0.0491     4.1461     4.1461     0.0000
  8 C      4.0968     4.0000    -0.0968     3.9761     3.9761    -0.0000
  9 C      3.9934     4.0000     0.0066     4.0841     4.0841    -0.0000
 10 C      4.0225     4.0000    -0.0225     3.9868     3.9868    -0.0000
 11 H      0.9655     1.0000     0.0345     1.0273     1.0273     0.0000
 12 H      0.9589     1.0000     0.0411     1.0276     1.0276     0.0000
 13 H      0.9570     1.0000     0.0430     1.0157     1.0157     0.0000
 14 H      0.9402     1.0000     0.0598     1.0130     1.0130    -0.0000
 15 H      0.9603     1.0000     0.0397     1.0284     1.0284     0.0000
 16 H      0.9595     1.0000     0.0405     1.0278     1.0278     0.0000
 17 H      0.9660     1.0000     0.0340     1.0284     1.0284    -0.0000
 18 H      0.9611     1.0000     0.0389     1.0209     1.0209    -0.0000
 19 H      0.9322     1.0000     0.0678     1.0268     1.0268    -0.0000
 20 H      0.9794     1.0000     0.0206     1.0387     1.0387     0.0000
 21 H      0.9299     1.0000     0.0701     1.0125     1.0125    -0.0000
 22 H      0.9493     1.0000     0.0507     1.0321     1.0321    -0.0000
 23 H      0.9433     1.0000     0.0567     1.0268     1.0268    -0.0000
 24 H      0.9732     1.0000     0.0268     1.0510     1.0510    -0.0000
 25 H      0.9651     1.0000     0.0349     1.0360     1.0360    -0.0000
 26 H      0.9762     1.0000     0.0238     1.0424     1.0424    -0.0000

  Mayer bond orders larger than 0.100000
B(  0-C ,  1-C ) :   0.9885 B(  0-C , 11-H ) :   0.9913 B(  0-C , 12-H ) :   0.9984 
B(  0-C , 13-H ) :   0.9950 B(  1-C ,  2-C ) :   1.0036 B(  1-C ,  3-C ) :   0.9652 
B(  1-C , 14-H ) :   0.9891 B(  2-C , 15-H ) :   0.9960 B(  2-C , 16-H ) :   0.9974 
B(  2-C , 17-H ) :   0.9930 B(  3-C ,  4-C ) :   1.0130 B(  3-C , 18-H ) :   0.9877 
B(  3-C , 19-H ) :   0.9829 B(  4-C ,  5-O ) :   1.8749 B(  4-C ,  6-C ) :   1.0909 
B(  6-C ,  7-C ) :   1.7596 B(  6-C , 20-H ) :   0.9838 B(  7-C ,  8-C ) :   1.0286 
B(  7-C ,  9-C ) :   1.1309 B(  8-C , 21-H ) :   0.9716 B(  8-C , 22-H ) :   0.9906 
B(  8-C , 23-H ) :   0.9836 B(  9-C , 10-C ) :   1.8723 B(  9-C , 24-H ) :   0.9923 
B( 10-C , 25-H ) :   0.9942 B( 10-C , 26-H ) :   0.9981 

-------
TIMINGS
-------

Total SCF time: 0 days 0 hours 0 min 59 sec 

Total time                  ....      59.267 sec
Sum of individual times     ....      57.177 sec  ( 96.5%)

SCF preparation             ....       2.412 sec  (  4.1%)
Fock matrix formation       ....      53.086 sec  ( 89.6%)
  Startup                   ....       0.184 sec  (  0.3% of F)
  Split-RI-J                ....       1.717 sec  (  3.2% of F)
  Chain of spheres X        ....      23.901 sec  ( 45.0% of F)
  XC integration            ....      26.308 sec  ( 49.6% of F)
    XC Preparation          ....       0.000 sec  (  0.0% of XC)
    Basis function eval.    ....       0.595 sec  (  2.3% of XC)
    Density eval.           ....       0.259 sec  (  1.0% of XC)
    XC-Functional eval.     ....       0.203 sec  (  0.8% of XC)
    XC-Potential eval.      ....       0.303 sec  (  1.2% of XC)
Diagonalization             ....       0.000 sec  (  0.0%)
Density matrix formation    ....       0.434 sec  (  0.7%)
Total Energy calculation    ....       0.266 sec  (  0.4%)
Population analysis         ....       0.070 sec  (  0.1%)
Orbital Transformation      ....       0.057 sec  (  0.1%)
Orbital Orthonormalization  ....       0.000 sec  (  0.0%)
DIIS solution               ....       0.494 sec  (  0.8%)
SOSCF solution              ....       0.358 sec  (  0.6%)
Finished LeanSCF after  59.3 sec

Maximum memory used throughout the entire LEANSCF-calculation: 41.4 MB


           ************************************************************
           *        Program running with 40 parallel MPI-processes    *
           *              working on a common directory               *
           ************************************************************

------------------------------------------------------------------------------
                         ORCA PROPERTY INTEGRAL CALCULATIONS
------------------------------------------------------------------------------

GBWName                                   ... ./output/_e_tagetone/_e_tagetone.gbw
Number of atoms                           ...     27
Number of basis functions                 ...    223
Max core memory                           ...   1024 MB

Dipole integrals                          ... YES
Quadrupole integrals                      ...  NO
Linear momentum integrals                 ...  NO
Angular momentum integrals                ...  NO
Higher moments length integrals           ...  NO
Higher moments velocity integrals         ...  NO
Kinetic energy integrals                  ...  NO
GIAO right hand sides                     ...  NO
GIAO dipole derivative integrals          ...  NO
SOC integrals                             ...  NO
EPR diamagnetic integrals (GIAO)          ...  NO
EPR gauge integrals                       ...  NO
Field gradient integrals                  ...  NO (   0 nuclei)
Spin-dipole/Fermi contact integrals       ...  NO (   0 nuclei)
Contact density integrals                 ...  NO (   0 nuclei)
Nucleus-orbit integrals                   ...  NO (   0 nuclei)
Geometric perturbations                   ...  NO (  27 nuclei)

Choice of electric origin   ... Center of mass
Position of electric origin ... ( -0.3713,  0.2203, -0.7691) 
Choice of magnetic origin   ... GIAO
Position of magnetic origin ... (  0.0000,  0.0000,  0.0000) 

Calculating integrals                     ... Electric Dipole (Length)     done (  0.0 sec)

Property integrals calculated in   0.1 sec

Maximum memory used throughout the entire PROPINT-calculation: 17.5 MB


-------------------------------------------------------------------------------
                          DFT DISPERSION CORRECTION                            
                                                                               
[...]
 25:    737.31   0.000615    3.11  0.000260  ( 0.005612  0.000868 -0.015100)
 26:    762.42   0.004617   23.33  0.001890  ( 0.043218 -0.001769  0.004343)
 27:    815.76   0.000365    1.84  0.000140  ( 0.011303 -0.002775 -0.002022)
 28:    868.54   0.000130    0.66  0.000047  (-0.002006  0.003777  0.005324)
 29:    882.82   0.001244    6.29  0.000440  (-0.012408 -0.009076  0.014263)
 30:    929.95   0.003014   15.23  0.001011  ( 0.018594  0.004639  0.025378)
 31:    951.80   0.002193   11.08  0.000719  (-0.025932  0.004634  0.005013)
 32:    959.14   0.000454    2.29  0.000148  ( 0.011634  0.001109 -0.003337)
 33:    986.49   0.009281   46.90  0.002936  ( 0.000317  0.001576 -0.054161)
 34:    999.79   0.000415    2.10  0.000129  (-0.009625 -0.003582 -0.004893)
 35:   1005.16   0.002376   12.01  0.000738  ( 0.026855  0.003988 -0.000703)
 36:   1026.22   0.000137    0.69  0.000042  ( 0.004357  0.004695  0.000750)
 37:   1076.92   0.003710   18.75  0.001075  (-0.000509 -0.001029  0.032770)
 38:   1088.37   0.000291    1.47  0.000083  (-0.001649  0.000394  0.008979)
 39:   1095.13   0.014310   72.32  0.004078  (-0.063182  0.008552 -0.003544)
 40:   1134.53   0.015007   75.84  0.004128  (-0.064141  0.000217 -0.003679)
 41:   1150.06   0.002156   10.90  0.000585  (-0.021867  0.003380  0.009770)
 42:   1204.35   0.006778   34.25  0.001756  (-0.041657  0.001717 -0.004234)
 43:   1231.80   0.001241    6.27  0.000314  (-0.016988 -0.001856 -0.004722)
 44:   1285.81   0.000543    2.74  0.000132  ( 0.011390  0.000854  0.001119)
 45:   1293.09   0.002976   15.04  0.000718  (-0.026574  0.003080 -0.001574)
 46:   1348.08   0.000323    1.63  0.000075  (-0.000154 -0.008640  0.000435)
 47:   1353.80   0.006188   31.27  0.001426  ( 0.037529 -0.004126  0.000994)
 48:   1397.88   0.000404    2.04  0.000090  (-0.009365  0.001501 -0.000581)
 49:   1424.38   0.000529    2.67  0.000116  ( 0.004757  0.009569  0.001325)
 50:   1440.27   0.002751   13.90  0.000596  (-0.004414  0.014776  0.018929)
 51:   1449.99   0.009100   45.99  0.001959  (-0.040436  0.017494  0.004176)
 52:   1451.93   0.002046   10.34  0.000440  (-0.014960 -0.014692  0.000329)
 53:   1453.02   0.004462   22.55  0.000958  ( 0.027708 -0.004629  0.013009)
 54:   1481.25   0.002842   14.36  0.000599  (-0.002495  0.024198 -0.002658)
 55:   1486.09   0.001979   10.00  0.000416  ( 0.007120 -0.019064 -0.001244)
 56:   1512.40   0.002095   10.59  0.000432  (-0.000370 -0.000602  0.020779)
 57:   1517.41   0.000615    3.11  0.000127  (-0.000161  0.011207 -0.000943)
 58:   1523.89   0.000883    4.46  0.000181  ( 0.003957 -0.007262 -0.010602)
 59:   1530.66   0.004085   20.65  0.000833  ( 0.027974 -0.007054  0.000797)
 60:   1535.33   0.000851    4.30  0.000173  (-0.000992  0.006914 -0.011145)
 61:   1543.47   0.003575   18.07  0.000723  (-0.007153 -0.024723  0.007771)
 62:   1701.98   0.052325  264.43  0.009594  (-0.097229 -0.011713 -0.001812)
 63:   1761.79   0.021023  106.24  0.003724  (-0.059475 -0.013620 -0.000990)
 64:   1833.79   0.024407  123.34  0.004153  (-0.004337 -0.064256  0.002398)
 65:   3080.67   0.005437   27.48  0.000551  (-0.019521 -0.011200 -0.006649)
 66:   3090.30   0.006829   34.51  0.000690  ( 0.016369 -0.015311 -0.013682)
 67:   3095.74   0.005676   28.68  0.000572  ( 0.014274 -0.003447  0.018882)
 68:   3112.29   0.003244   16.39  0.000325  ( 0.014711  0.010425  0.000359)
 69:   3119.52   0.000131    0.66  0.000013  ( 0.000625  0.002917 -0.002059)
 70:   3134.02   0.002372   11.99  0.000236  ( 0.000842 -0.006000  0.014122)
 71:   3176.02   0.001642    8.30  0.000161  (-0.000211  0.000478  0.012693)
 72:   3180.76   0.007665   38.74  0.000752  (-0.009954 -0.020335  0.015473)
 73:   3187.85   0.004917   24.85  0.000481  (-0.014074 -0.013316 -0.010292)
 74:   3197.85   0.000749    3.78  0.000073  ( 0.000065  0.000320 -0.008541)
 75:   3208.96   0.002111   10.67  0.000205  (-0.013737  0.004035  0.000511)
 76:   3219.51   0.000458    2.32  0.000044  (-0.002086  0.006325  0.000227)
 77:   3221.22   0.001215    6.14  0.000118  (-0.009773  0.004715 -0.000062)
 78:   3230.02   0.002018   10.20  0.000195  (-0.001487  0.013879  0.000418)
 79:   3296.20   0.003064   15.49  0.000290  (-0.017009 -0.000893 -0.000057)
 80:   3318.43   0.000353    1.79  0.000033  (-0.003193  0.004796  0.000169)

* The epsilon (eps) is given for a Dirac delta lineshape.
** The dipole moment derivative (T) already includes vibrational overlap.

The first frequency considered to be a vibration is 6
The total number of vibrations considered is 75


--------------------------
THERMOCHEMISTRY AT 298.15K
--------------------------

Temperature         ...   298.15 K
Pressure            ...     1.00 atm
Total Mass          ...   152.24 AMU
Quasi RRHO          ...     True
Cut-Off Frequency   ...     1.00 cm^-1

Throughout the following assumptions are being made:
  (1) The electronic state is orbitally nondegenerate
  (2) There are no thermally accessible electronically excited states
  (3) Hindered rotations indicated by low frequency modes are not
      treated as such but are treated as vibrations and this may
      cause some error
  (4) All equations used are the standard statistical mechanics
      equations for an ideal gas
  (5) All vibrations are strictly harmonic

freq.      19.89  E(vib)   ...       0.56 
freq.      43.69  E(vib)   ...       0.53 
freq.      96.78  E(vib)   ...       0.46 
freq.     105.75  E(vib)   ...       0.45 
freq.     117.55  E(vib)   ...       0.44 
freq.     175.06  E(vib)   ...       0.38 
freq.     220.44  E(vib)   ...       0.33 
freq.     224.94  E(vib)   ...       0.33 
freq.     232.21  E(vib)   ...       0.32 
freq.     256.84  E(vib)   ...       0.30 
freq.     267.53  E(vib)   ...       0.29 
freq.     328.64  E(vib)   ...       0.24 
freq.     366.26  E(vib)   ...       0.22 
freq.     387.79  E(vib)   ...       0.20 
freq.     414.78  E(vib)   ...       0.19 
freq.     425.44  E(vib)   ...       0.18 
freq.     445.41  E(vib)   ...       0.17 
freq.     570.83  E(vib)   ...       0.11 
freq.     579.27  E(vib)   ...       0.11 
freq.     737.31  E(vib)   ...       0.06 
freq.     762.42  E(vib)   ...       0.06 
freq.     815.76  E(vib)   ...       0.05 
freq.     868.54  E(vib)   ...       0.04 
freq.     882.82  E(vib)   ...       0.04 
freq.     929.95  E(vib)   ...       0.03 
freq.     951.80  E(vib)   ...       0.03 
freq.     959.14  E(vib)   ...       0.03 
freq.     986.49  E(vib)   ...       0.02 
freq.     999.79  E(vib)   ...       0.02 
freq.    1005.16  E(vib)   ...       0.02 
freq.    1026.22  E(vib)   ...       0.02 
freq.    1076.92  E(vib)   ...       0.02 
freq.    1088.37  E(vib)   ...       0.02 
freq.    1095.13  E(vib)   ...       0.02 
freq.    1134.53  E(vib)   ...       0.01 
freq.    1150.06  E(vib)   ...       0.01 
freq.    1204.35  E(vib)   ...       0.01 
freq.    1231.80  E(vib)   ...       0.01 
freq.    1285.81  E(vib)   ...       0.01 
freq.    1293.09  E(vib)   ...       0.01 
freq.    1348.08  E(vib)   ...       0.01 
freq.    1353.80  E(vib)   ...       0.01 
freq.    1397.88  E(vib)   ...       0.00 
freq.    1424.38  E(vib)   ...       0.00 
freq.    1440.27  E(vib)   ...       0.00 
freq.    1449.99  E(vib)   ...       0.00 
freq.    1451.93  E(vib)   ...       0.00 
freq.    1453.02  E(vib)   ...       0.00 
freq.    1481.25  E(vib)   ...       0.00 
freq.    1486.09  E(vib)   ...       0.00 
freq.    1512.40  E(vib)   ...       0.00 
freq.    1517.41  E(vib)   ...       0.00 
freq.    1523.89  E(vib)   ...       0.00 
freq.    1530.66  E(vib)   ...       0.00 
freq.    1535.33  E(vib)   ...       0.00 
freq.    1543.47  E(vib)   ...       0.00 
freq.    1701.98  E(vib)   ...       0.00 
freq.    1761.79  E(vib)   ...       0.00 
freq.    1833.79  E(vib)   ...       0.00 
freq.    3080.67  E(vib)   ...       0.00 
freq.    3090.30  E(vib)   ...       0.00 
freq.    3095.74  E(vib)   ...       0.00 
freq.    3112.29  E(vib)   ...       0.00 
freq.    3119.52  E(vib)   ...       0.00 
freq.    3134.02  E(vib)   ...       0.00 
freq.    3176.02  E(vib)   ...       0.00 
freq.    3180.76  E(vib)   ...       0.00 
freq.    3187.85  E(vib)   ...       0.00 
freq.    3197.85  E(vib)   ...       0.00 
freq.    3208.96  E(vib)   ...       0.00 
freq.    3219.51  E(vib)   ...       0.00 
freq.    3221.22  E(vib)   ...       0.00 
freq.    3230.02  E(vib)   ...       0.00 
freq.    3296.20  E(vib)   ...       0.00 
freq.    3318.43  E(vib)   ...       0.00 

------------
INNER ENERGY
------------

The inner energy is: U= E(el) + E(ZPE) + E(vib) + E(rot) + E(trans)
    E(el)   - is the total energy from the electronic structure calculation
              = E(kin-el) + E(nuc-el) + E(el-el) + E(nuc-nuc)
    E(ZPE)  - the the zero temperature vibrational energy from the frequency calculation
    E(vib)  - the the finite temperature correction to E(ZPE) due to population
              of excited vibrational states
    E(rot)  - is the rotational thermal energy
    E(trans)- is the translational thermal energy

Summary of contributions to the inner energy U:
Electronic energy                ...    -82.65356808 Eh
Zero point energy                ...      0.24235451 Eh     152.08 kcal/mol
Thermal vibrational correction   ...      0.01020180 Eh       6.40 kcal/mol
Thermal rotational correction    ...      0.00141627 Eh       0.89 kcal/mol
Thermal translational correction ...      0.00141627 Eh       0.89 kcal/mol
-----------------------------------------------------------------------
Total thermal energy                    -82.39817922 Eh


Summary of corrections to the electronic energy:
(perhaps to be used in another calculation)
Total thermal correction                  0.01303435 Eh       8.18 kcal/mol
Non-thermal (ZPE) correction              0.24235451 Eh     152.08 kcal/mol
-----------------------------------------------------------------------
Total correction                          0.25538886 Eh     160.26 kcal/mol


--------
ENTHALPY
--------

The enthalpy is H = U + kB*T
                kB is Boltzmann's constant
Total thermal energy              ...    -82.39817922 Eh 
Thermal Enthalpy correction       ...      0.00094421 Eh       0.59 kcal/mol
-----------------------------------------------------------------------
Total Enthalpy                    ...    -82.39723502 Eh


Note: Only C1 symmetry has been detected, increase convergence thresholds 
      if your molecule has a higher symmetry. Symmetry factor of 1.0 is   
      used for the rotational entropy correction. 
 

Note: Rotational entropy computed according to Herzberg 
Infrared and Raman Spectra, Chapter V,1, Van Nostrand Reinhold, 1945 
Point Group:  C1, Symmetry Number:   1  
Rotational constants in cm-1:     0.090057     0.015063     0.013695 

Vibrational entropy computed according to the QRRHO of S. Grimme
Chem.Eur.J. 2012 18 9955 using a reference frequency of 100.0 cm-1


-------
ENTROPY
-------

The entropy contributions are T*S = T*(S(el)+S(vib)+S(rot)+S(trans))
     S(el)   - electronic entropy
     S(vib)  - vibrational entropy
     S(rot)  - rotational entropy
     S(trans)- translational entropy
The entropies will be listed as multiplied by the temperature to get
units of energy

Electronic entropy                ...      0.00000000 Eh      0.00 kcal/mol
Vibrational entropy               ...      0.01817713 Eh     11.41 kcal/mol
Rotational entropy                ...      0.01465357 Eh      9.20 kcal/mol
Translational entropy             ...      0.01946646 Eh     12.22 kcal/mol
-----------------------------------------------------------------------
Final entropy term                ...      0.05229716 Eh     32.82 kcal/mol

In case the symmetry of your molecule has not been determined correctly
or in case you have a reason to use a different symmetry number we print 
out the resulting rotational entropy values for sn=1,12:

 non-linear molecules -----------------------------------
|  sn= 1 | S(rot)=       0.01465357 Eh      9.20 kcal/mol|
|  sn= 2 | S(rot)=       0.01399911 Eh      8.78 kcal/mol|
|  sn= 3 | S(rot)=       0.01361628 Eh      8.54 kcal/mol|
|  sn= 4 | S(rot)=       0.01334465 Eh      8.37 kcal/mol|
|  sn= 5 | S(rot)=       0.01313397 Eh      8.24 kcal/mol|
|  sn= 6 | S(rot)=       0.01296182 Eh      8.13 kcal/mol|
|  sn= 7 | S(rot)=       0.01281628 Eh      8.04 kcal/mol|
|  sn= 8 | S(rot)=       0.01269020 Eh      7.96 kcal/mol|
|  sn= 9 | S(rot)=       0.01257899 Eh      7.89 kcal/mol|
|  sn=10 | S(rot)=       0.01247951 Eh      7.83 kcal/mol|
|  sn=11 | S(rot)=       0.01238952 Eh      7.77 kcal/mol|
|  sn=12 | S(rot)=       0.01230737 Eh      7.72 kcal/mol|
 linear molecules ---------------------------------------
|  Dinfh | S(rot)=       0.00937703 Eh      5.88 kcal/mol|
|  Cinfv | S(rot)=       0.01003149 Eh      6.29 kcal/mol|
 --------------------------------------------------------


-------------------
GIBBS FREE ENERGY
-------------------

The Gibbs free energy is G = H - T*S

Total enthalpy                    ...    -82.39723502 Eh 
Total entropy correction          ...     -0.05229716 Eh    -32.82 kcal/mol
-----------------------------------------------------------------------
Final Gibbs free energy         ...    -82.44953217 Eh

For completeness - the Gibbs free energy minus the electronic energy
G-E(el)                           ...      0.20403591 Eh    128.03 kcal/mol


Maximum memory used throughout the entire PROP-calculation: 126.3 MB

--------------------------------
SUGGESTED CITATIONS FOR THIS RUN
--------------------------------

Below you find a list of papers that are relevant to this ORCA run
We neither can nor want to force you to cite these papers, but we appreciate if you do
You receive ORCA, which is the product of decades of hard work by many enthusiastic individuals, for free
The only thing we kindly ask in return is that you cite our papers,
We deeply appreciate it, if you show your appreciation for ORCA by not just citing the generic ORCA reference.

Please note that relegating all ORCA citations to the supporting information does *not* help us.
SI sections are not indexed - citations you put there will not count into any citation statistics
But we need these citations in order to attract the funding resources that allow us to do what we are doing

Therefore, if you are a happy ORCA user, please consider citing a few of the papers listed below in the main body of your paper

In addition to the list printed below, the program has created the file ./output/_e_tagetone/_e_tagetone.bibtex that contains the list in bibtex format
You can import this file easily into all common literature databanks and citation aid programs


List of essential papers. We consider these as the minimum necessary citations

  1. Neese,F.
     Software update: the ORCA program system, version 5.0
     WIRES Comput. Molec. Sci., 2022 12(1)e1606
     doi.org/10.1002/wcms.1606
  2. Mueller,M.; Hansen,A.; Grimme,S.
     wB97X-3c: A composite range-separated hybrid DFT method with a molecule-optimized polarized valence double-zeta basis set
     J. Chem. Phys., 2023 158 014103
     doi.org/10.1063/5.0133026

List of papers to cite with high priority. The work reported in these papers was absolutely
necessary for this run to complete.
Our perspective: the developers of density functionals and basis sets usually get cited in chemistry papers
Good! But without the algorithms to do something with them, the functionals or basis sets would not do anything.
Hence, in our opinion, the algorithm design and method developments papers are equally worthy of getting cited

  1. Neese,F.
     An improvement of the resolution of the identity approximation for the formation of the Coulomb matrix
     J. Comp. Chem., 2003 24(14)1740-1747
     doi.org/10.1002/jcc.10318
  2. Neese,F.; Wennmohs,F.; Hansen,A.; Becker,U.
     Efficient, approximate and parallel Hartree-Fock and hybrid DFT calculations. A 'chain-of-spheres' algorithm for the Hartree-Fock exchange
     Chem. Phys., 2009 356(1-3)98-109
     doi.org/10.1016/j.chemphys.2008.10.036
  3. Bykov,D.; Petrenko,T.; Izsak,R.; Kossmann,S.; Becker,U.; Valeev,E.; Neese,F.
     Efficient implementation of the analytic second derivatives of Hartree-Fock and hybrid DFT energies: a detailed analysis of different approximations
     Molec. Phys., 2015 113 1961-1977
     doi.org/10.1080/00268976.2015.1025114
  4. Helmich-Paris,B.; de Souza,B.; Neese,F.; Izsák,R.
     An improved chain of spheres for exchange algorithm
     J. Chem. Phys., 2021 155 104109
     doi.org/doi: 10.1063/5.0058766.
  5. Neese,F.
     The SHARK Integral Generation and Digestion System
     J. Comp. Chem., 2022  1-16
     doi.org/10.1002/jcc.26942
  6. Caldeweyher,E.; Bannwarth,C.; Grimme,S.
     Extension of the D3 dispersion coefficient model
     J. Chem. Phys., 2017 147 034112
     doi.org/10.1063/1.4993215
  7. Caldeweyher,E.; Ehlert,S.; Hansen,A.; Neugebauer,H.; Spicher,S.; Bannwarth,C.; Grimme,S.
     A generally applicable atomic-charge dependent London dispersion correction
     J. Chem. Phys., 2019 150 154122
     doi.org/10.1063/1.5090222
  8. Caldeweyher,E.; Mewes,J.; Ehlert,S.; Grimme,S.
     Extension and evaluation of the D4 London-dispersion model for periodic systems
     Phys. Chem. Chem. Phys., 2020 22(16)8499-8512
     doi.org/10.1039/D0CP00502A
  9. Wittmann,L.; Gordiy,I.; Friede,M.; Helmich-Paris,B.; Grimme,S.; Hansen,A.; Bursch,M.
     Extension of the D3 and D4 London Dispersion Corrections to the full Actinides Series
     Phys. Chem. Chem. Phys., 2024 26(32)21379-21394
     doi.org/https://doi.org/10.1039/D4CP01514B 

List of suggested additional citations. These are papers that are important in the 'surrounding' of 
of this run, or papers that preceded the highly important papers. If you like your results we are grateful for a citation.

  1. Izsak,R.; Neese,F.
     An overlap fitted chain of spheres exchange method
     J. Chem. Phys., 2011 135 144105
     doi.org/10.1063/1.3646921
  2. Izsak,R.; Hansen,A.; Neese,F.
     The resolution of identity and chain of spheres approximations for the LPNO-CCSD singles Fock term
     Molec. Phys., 2012 110 2413-2417
     doi.org/10.1080/00268976.2012.687466
  3. Neese,F.
     The ORCA program system
     WIRES Comput. Molec. Sci., 2012 2(1)73-78
     doi.org/10.1002/wcms.81
  4. Izsak,R.; Neese,F.; Klopper,W.
     Robust fitting techniques in the chain of spheres approximation to the Fock exchange: The role of the complementary space
     J. Chem. Phys., 2013 139 
     doi.org/10.1063/1.4819264
  5. Neese,F.
     Software update: the ORCA program system, version 4.0
     WIRES Comput. Molec. Sci., 2018 8(1)1-6
     doi.org/10.1002/wcms.1327
  6. Neese,F.; Wennmohs,F.; Becker,U.; Riplinger,C.
     The ORCA quantum chemistry program package
     J. Chem. Phys., 2020 152 Art. No. L224108
     doi.org/10.1063/5.0004608

List of optional additional citations

  1. Neese,F.
     Approximate second-order SCF convergence for spin unrestricted wavefunctions
     Chem. Phys. Lett., 2000 325(1-3)93-98
     doi.org/10.1016/s0009-2614(00)00662-x

Timings for individual modules:

Sum of individual times          ...     1775.362 sec (=  29.589 min)
Startup calculation              ...      102.412 sec (=   1.707 min)   5.8 %
SCF iterations                   ...     1264.812 sec (=  21.080 min)  71.2 %
Property integrals               ...       64.162 sec (=   1.069 min)   3.6 %
SCF Response                     ...       38.851 sec (=   0.648 min)   2.2 %
Property calculations            ...       78.345 sec (=   1.306 min)   4.4 %
SCF Gradient evaluation          ...      226.251 sec (=   3.771 min)  12.7 %
Geometry relaxation              ...        0.528 sec (=   0.009 min)   0.0 %
                             ****ORCA TERMINATED NORMALLY****
TOTAL RUN TIME: 0 days 0 hours 29 minutes 48 seconds 863 msec
