
                                 *****************
                                 * O   R   C   A *
                                 *****************

                                            #,                                       
                                            ###                                      
                                            ####                                     
                                            #####                                    
                                            ######                                   
                                           ########,                                 
                                     ,,################,,,,,                         
                               ,,#################################,,                 
                          ,,##########################################,,             
                       ,#########################################, ''#####,          
                    ,#############################################,,   '####,        
                  ,##################################################,,,,####,       
                ,###########''''           ''''###############################       
              ,#####''   ,,,,##########,,,,          '''####'''          '####       
            ,##' ,,,,###########################,,,                        '##       
           ' ,,###''''                  '''############,,,                           
         ,,##''                                '''############,,,,        ,,,,,,###''
      ,#''                                            '''#######################'''  
     '                                                          ''''####''''         
             ,#######,   #######,   ,#######,      ##                                
            ,#'     '#,  ##    ##  ,#'     '#,    #''#        ,####,   ,####,        
            ##       ##  ##   ,#'  ##            #'  '#       #'       #'  '#        
            ##       ##  #######   ##           ,######,      #####,   #    #        
            '#,     ,#'  ##    ##  '#,     ,#' ,#      #,     #,   #   #,  ,#        
             '#######'   ##     ##  '#######'  #'      '#     '####' # '####'        



                #########################################################
                #                        -***-                          #
                #          Department of theory and spectroscopy        #
                #                                                       #
                #                      Frank Neese                      #
                #                                                       #
                #     Directorship, Architecture, Infrastructure        #
                #                    SHARK, DRIVERS                     #
                #        Core code/Algorithms in most modules           #
                #                                                       #
                #        Max Planck Institute fuer Kohlenforschung      #
                #                Kaiser Wilhelm Platz 1                 #
                #                 D-45470 Muelheim/Ruhr                 #
                #                      Germany                          #
                #                                                       #
                #                  All rights reserved                  #
                #                        -***-                          #
                #########################################################


                         Program Version 6.0.1  -  RELEASE   -


 With contributions from (in alphabetic order):
[Max-Planck-Institut fuer Kohlenforschung]                               
  Daniel Aravena         : Magnetic Suceptibility                        
  Michael Atanasov       : Ab Initio Ligand Field Theory (pilot matlab implementation)
  Alexander A. Auer      : GIAO ZORA, VPT2 properties, NMR spectrum      
  Ute Becker             : All parallelization in ORCA, NUMFREQ, NUMCALC 
  Giovanni Bistoni       : ED, misc. LED, open-shell LED, HFLD           
  Martin Brehm           : Molecular dynamics                            
  Dmytro Bykov           : pre 5.0 version of the SCF Hessian            
  Marcos Casanova-Páez   : Triplet and SCS-CIS(D). UHF-(DLPNO)-IP/EA/STEOM-CCSD. UHF-CVS-IP/STEOM-CCSD   
  Vijay G. Chilkuri      : MRCI spin determinant printing, contributions to CSF-ICE 
  Pauline Colinet        : FMM embedding                                 
  Dipayan Datta          : RHF DLPNO-CCSD density                        
  Achintya Kumar Dutta   : EOM-CC, STEOM-CC                              
  Nicolas Foglia         : Exact transition moments, OPA infrastructure, MCD improvements    
  Dmitry Ganyushin       : Spin-Orbit,Spin-Spin,Magnetic field MRCI      
  Miquel Garcia-Rates    : C-PCM and meta-GGA Hessian, CCSD/C-PCM, Gaussian charge scheme 
  Tiago L. C. Gouveia    : GS-ROHF, GS-ROCIS                             
  Yang Guo               : DLPNO-NEVPT2, F12-NEVPT2, CIM, IAO-localization        
  Andreas Hansen         : Spin unrestricted coupled pair/coupled cluster methods 
  Ingolf Harden          : AUTO-CI MPn and infrastructure                
  Benjamin Helmich-Paris : MC-RPA, TRAH-(SCF,CASSCF), AVAS, COSX integrals, SCF dyn. polar. 
  Lee Huntington         : MR-EOM, pCC                                   
  Robert Izsak           : Overlap fitted RIJCOSX, COSX-SCS-MP3, EOM     
  Riya Kayal             : Wick's Theorem for AUTO-CI, AUTO-CI UHF-CCSDT 
  Emily Kempfer          : AUTO-CI, RHF CISDT and CCSDT                  
  Christian Kollmar      : KDIIS, OOCD, Brueckner-CCSD(T), CCSD density, CASPT2, CASPT2-K, improved NEVPT2 
  Axel Koslowski         : Symmetry handling                             
  Simone Kossmann        : meta-GGA functionals, TD-DFT gradient, OOMP2, (MP2 Hessian; deprecated post 5.0) 
  Lucas Lang             : DCDCAS                                        
  Marvin Lechner         : AUTO-CI (C++ implementation), FIC-MRCC        
  Spencer Leger          : CASSCF response                               
  Dagmar Lenk            : GEPOL surface, SMD, ORCA-2-JSON               
  Dimitrios Liakos       : Extrapolation schemes; Compound Job, initial MDCI parallelization 
  Dimitrios Manganas     : Further ROCIS development; embedding schemes. LFT, Crystal Embedding 
  Dimitrios Pantazis     : SARC Basis sets                               
  Anastasios Papadopoulos: AUTO-CI, single reference methods and gradients 
  Taras Petrenko         : pre 6.0 DFT Hessian and TD-DFT gradient, (ASA, deprecated), ECA, 1-Electron XAS/XES, NRVS 
  Peter Pinski           : DLPNO-MP2, DLPNO-MP2 Gradient                 
  Christoph Reimann      : Effective Core Potentials                     
  Marius Retegan         : Local ZFS, SOC                                
  Christoph Riplinger    : Optimizer, TS searches, QM/MM, DLPNO-CCSD(T), (RO)-DLPNO pert. Triples 
  Michael Roemelt        : Original ROCIS implementation                 
  Masaaki Saitow         : Open-shell DLPNO-CCSD energy and density      
  Barbara Sandhoefer     : DKH picture change effects                    
  Kantharuban Sivalingam : CASSCF convergence/infrastructure, NEVPT2 and variants, FIC-MRCI 
  Bernardo de Souza      : ESD, SOC TD-DFT                               
  Georgi L. Stoychev     : AutoAux, RI-MP2 NMR, DLPNO-MP2 response, X2C  
  Van Anh Tran           : RI-MP2 g-tensors                              
  Willem Van den Heuvel  : Paramagnetic NMR                              
  Zikuan Wang            : NOTCH, Electric field optimization            
  Frank Wennmohs         : Technical directorship and infrastructure     
  Hang Xu                : AUTO-CI-Response properties                   
                                                                         
[FACCTs GmbH]                                                            
  Markus Bursch, Miquel Garcia-Rates, Christoph Riplinger, Bernardo de Souza, Georgi L. Stoychev 
                                                                 
  APM, Basis sets (HGBS, AHGBS, def-TZVP (Ac-Lr), def2-XVPD (La-Lu)), CI-OPT, improved COSX, DLPNO-Multilevel,           
  DOCKER, DRACO, updates on ESD, GOAT, IRC, LR-CPCM, MBIS, meta-GGA TD-DFT gradient, ML-optimized integration grids, 
  MM, NACMEs, nearIR, NEB, NEB-TS, NL-DFT gradient (VV10), 2- and 3-layer-ONIOM, interface openCOSMO-RS, QMMM,   
  Crystal-QMMM, SF, symmetry and pop. for TD-DFT, r2SCAN hybrids, SOLVATOR                                   
                                                                         
[Other institutions]                                                     
  V. Asgeirsson          : NEB                                           
  Christoph Bannwarth    : sTDA-DFT, sTD-DFT, PBEh-3c, B97-3c, D3        
  Sebastian Ehlert       : rSCAN, r2SCAN, r2SCAN-3c, D4, dhf basis sets  
  Marvin Friede          : D4 for Fr, Ra, Ac-Lr                          
  Lars Goerigk           : TD-DFT with DH, B97 family of functionals     
  Stefan Grimme          : VdW corrections, initial TS optimization, DFT functionals, gCP, sTDA/sTD-DF 
  Waldemar Hujo          : DFT-NL                                        
  H. Jonsson             : NEB                                           
  Holger Kruse           : gCP                                           
  Marcel Mueller         : wB97X-3c, vDZP basis set                      
  Hagen Neugebauer       : wr2SCAN                                       
  Tobias Risthaus        : range-separated hybrid DFT                    
  Lukas Wittmann         : regularized MP2, r2SCAN double-hybrids, wr2SCAN        
                                                                         
We gratefully acknowledge several colleagues who have allowed us to      
interface, adapt or use parts of their codes:                            
  Ed Valeev, F. Pavosevic, A. Kumar             : LibInt (2-el integral package), F12 methods 
  Garnet Chan, S. Sharma, J. Yang, R. Olivares  : DMRG                   
  Ulf Ekstrom                                   : XCFun DFT Library      
  Mihaly Kallay                                 : mrcc  (arbitrary order and MRCC methods)
  Frank Weinhold                                : gennbo (NPA and NBO analysis)           
  Simon Mueller                                 : openCOSMO-RS                            
  Christopher J. Cramer and Donald G. Truhlar   : smd solvation model                     
  S Lehtola, MJT Oliveira, MAL Marques          : LibXC Library                           
  Liviu Ungur et al                             : ANISO software                          


 Your calculation uses the libint2 library for the computation of 2-el integrals
 For citations please refer to: http://libint.valeyev.net

 Your ORCA version has been built with support for libXC version: 6.2.2
 For citations please refer to: https://libxc.gitlab.io

 This ORCA versions uses:
   CBLAS   interface :  Fast vector & matrix operations
   LAPACKE interface :  Fast linear algebra routines
   SCALAPACK package :  Parallel linear algebra routines
   Shared memory     :  Shared parallel matrices
   BLAS/LAPACK       :  OpenBLAS 0.3.27  USE64BITINT DYNAMIC_ARCH NO_AFFINITY SkylakeX SINGLE_THREADED
        Core in use  :  SkylakeX
   Copyright (c) 2011-2014, The OpenBLAS Project


Your calculation utilizes the atom-pairwise dispersion correction
based on EEQ partial charges (D4)


================================================================================

cite the ECPs for C  [vDZP-ECP], O  [vDZP-ECP] as follows:
   B-Ne (ecp-2-mwb), Al-Ar (ecp-10-mwb), Ga-Kr (ecp-28-mwb), Y-Cd (ecp-28-mwb), In-Xe (ecp-46-mwb):
     A. Bergner, M. Dolg, W. Küchle, H. Stoll, and H. Preuß, Mol. Phys. 80, 1431 (1993)., T. Leininger, A. Berning, A. Nicklass, H. Stoll, H.-J. Werner, and H.-J.Flad, Chem. Phys. 217, 19 (1997).
   Na-Mg, K-Ca, Rb-Sr, Cs-Ba (CRENBL):
     L. Fernandez Pacios and P. A. Christiansen, J. Chem. Phys. 82, 2664 (1985)., M. M. Hurley, L. F. Pacios, P. A. Christiansen, R. B. Ross, and W. C. Ermler, J. Chem. Phys. 84, 6840 (1986)., L. A. LaJohn, P. A. Christiansen, R. B. Ross, T. Atashroo, and W. C. Ermler, J. Chem. Phys. 87, 2812 (1987)., R. B. Ross, J. M. Powers, T. Atashroo, W. C. Ermler, L. A. LaJohn, and P. A. Christiansen, J. Chem. Phys. 93, 6654 (1990). 
   Sc-Zn (ecp-10-mdf):
     M. Dolg, U. Wedig, H. Stoll, and H. Preuss, J. Chem. Phys. 86, 866 (1986). 
   Y-Cd (ecp-28-mwb), Hf-Hg (ecp-60-mwb):
     D. Andrae, U. Häußermann, M. Dolg, H. Stoll, and H. Preuß, Theor. Chim. Acta 77, 123 (1990). 
   La (ecp-46-mwb):
     M. Dolg, H. Stoll, and H. Preuss, J. Chem. Phys. 90, 1730 (1989)., M. Dolg, H. Stoll, and H. Preuss, Theor. Chim. Acta 85, 441 (1993).
   Ce-Lu (SBKJC-ecp):
     T. R. Cundari and W. J. Stevens, J. Chem. Phys. 98, 5555 (1993).
   Tl-Rn (ecp-78-mwb):
     W. Küchle, M. Dolg, H. Stoll, and H. Preuss, Mol. Phys. 74, 1245 (1991).

ECP parameters for C  [vDZP-ECP], O  [vDZP-ECP] have been obtained from:
MM, AH, SG, J. Chem. Phys. 158, 014103 (2023), 10.1063/5.0133026

----- Orbital basis set information -----
Your calculation utilizes the basis: vDZP
   Marcel Mueller, Andreas Hansen, Stefan Grimme 
   J. Chem. Phys. 158, 014103 (2023). DOI: 10.1063/5.0133026

----- AuxJ basis set information -----
Your calculation utilizes the auxiliary basis: def2/J
   F. Weigend, Phys. Chem. Chem. Phys. 8, 1057 (2006).

================================================================================
                                        WARNINGS
                       Please study these warnings very carefully!
================================================================================

WARNING: Frozen-Core approximation turned on, but there are no core electrons.
  ===> : Turning off frozen-core approximation


WARNING: Geometry Optimization
  ===> : Switching off AutoStart
         For restart on a previous wavefunction, please use MOREAD

================================================================================
                                       INPUT FILE
================================================================================
NAME = ./output/fenchone/fenchone.inp
|  1> ! wB97X-3c OPT FREQ TightSCF
|  2> %pal
|  3>   nprocs 40
|  4> end
|  5> * xyz 0 1
|  6> C      1.926100     1.205143     0.794049
|  7> C      1.210328     0.142306    -0.068216
|  8> C      0.096922     0.720815    -1.013791
|  9> C     -0.850943     1.674928    -0.242883
| 10> C     -1.605993     0.721675     0.710981
| 11> C     -1.070374    -0.662633     0.296402
| 12> C     -0.844685    -0.469511    -1.189493
| 13> C      0.353218    -0.760698     0.771177
| 14> O      0.738954    -1.410159     1.732077
| 15> C     -1.965642    -1.848597     0.660253
| 16> C      2.264953    -0.662389    -0.857139
| 17> H      2.798021     0.759762     1.319646
| 18> H      1.261370     1.615518     1.582780
| 19> H      2.289914     2.035726     0.152459
| 20> H      0.476236     1.147890    -1.967145
| 21> H     -1.566137     2.146039    -0.953734
| 22> H     -0.328731     2.493279     0.291532
| 23> H     -1.381484     0.947759     1.777002
| 24> H     -2.703129     0.795226     0.541099
| 25> H     -0.378817    -1.350813    -1.681508
| 26> H     -1.778084    -0.211716    -1.744082
| 27> H     -1.512379    -2.796792     0.300220
| 28> H     -2.090807    -1.904855     1.762296
| 29> H     -2.966139    -1.731588     0.192306
| 30> H      1.815045    -1.483038    -1.450608
| 31> H      3.000541    -1.122653    -0.162837
| 32> H      2.811741     0.009378    -1.552843
| 33> *
| 34> 
| 35>                          ****END OF INPUT****
================================================================================

                       *****************************
                       * Geometry Optimization Run *
                       *****************************

Geometry optimization settings:
Update method            Update   .... BFGS
Choice of coordinates    CoordSys .... (2022) Redundant Internals
Initial Hessian          InHess   .... Almloef's Model
Max. no of cycles        MaxIter  .... 81

Convergence Tolerances:
Energy Change            TolE     ....  5.0000e-06 Eh
Max. Gradient            TolMAXG  ....  3.0000e-04 Eh/bohr
RMS Gradient             TolRMSG  ....  1.0000e-04 Eh/bohr
Max. Displacement        TolMAXD  ....  4.0000e-03 bohr
RMS Displacement         TolRMSD  ....  2.0000e-03 bohr
Strict Convergence                .... False

------------------------------------------------------------------------------
                        ORCA OPTIMIZATION COORDINATE SETUP
------------------------------------------------------------------------------

The optimization will be done in redundant internal coordinates (2022)
Making redundant internal coordinates   ...  (2022 redundants) done
Evaluating the initial hessian          ...  (Almloef) done
Evaluating the coordinates              ...  done
Calculating the B-matrix                .... done
Calculating the G-matrix                .... done
Diagonalizing the G-matrix              .... done
The first mode is                       ....   74
The number of degrees of freedom        ....   75

    -----------------------------------------------------------------
                    Redundant Internal Coordinates


    -----------------------------------------------------------------
         Definition                    Initial Value    Approx d2E/dq
    -----------------------------------------------------------------
      1. B(C   1,C   0)                  1.5445         0.354207   
      2. B(C   2,C   1)                  1.5711         0.321183   
      3. B(C   3,C   2)                  1.5502         0.346873   
      4. B(C   4,C   3)                  1.5455         0.352864   
      5. B(C   5,C   4)                  1.5411         0.358612   
      6. B(C   6,C   2)                  1.5279         0.376517   
      7. B(C   6,C   5)                  1.5153         0.394312   
      8. B(C   7,C   5)                  1.5039         0.411204   
      9. B(C   7,C   1)                  1.5015         0.414741   
     10. B(O   8,C   7)                  1.2223         1.036318   
     11. B(C   9,C   5)                  1.5298         0.373798   
     12. B(C  10,C   1)                  1.5434         0.355595   
     13. B(H  11,C   0)                  1.1112         0.333066   
     14. B(H  12,C   0)                  1.1101         0.334442   
     15. B(H  13,C   0)                  1.1108         0.333615   
     16. B(H  14,C   2)                  1.1114         0.332904   
     17. B(H  15,C   3)                  1.1130         0.330930   
     18. B(H  16,C   3)                  1.1082         0.336869   
     19. B(H  17,C   4)                  1.1126         0.331388   
     20. B(H  18,C   4)                  1.1126         0.331357   
     21. B(H  19,C   6)                  1.1117         0.332548   
     22. B(H  20,C   6)                  1.1159         0.327402   
     23. B(H  21,C   9)                  1.1109         0.333461   
     24. B(H  22,C   9)                  1.1106         0.333911   
     25. B(H  23,C   9)                  1.1107         0.333729   
     26. B(H  24,C  10)                  1.1082         0.336822   
     27. B(H  25,C  10)                  1.1113         0.332997   
     28. B(H  26,C  10)                  1.1110         0.333402   
     29. A(C   1,C   0,H  12)          111.9341         0.317643   
     30. A(C   1,C   0,H  13)          110.1133         0.317515   
     31. A(H  11,C   0,H  12)          106.3763         0.284015   
     32. A(C   1,C   0,H  11)          110.6023         0.317430   
     33. A(H  11,C   0,H  13)          108.4147         0.283906   
     34. A(H  12,C   0,H  13)          109.2737         0.284088   
     35. A(C   0,C   1,C   7)          111.4868         0.366556   
     36. A(C   7,C   1,C  10)          111.2379         0.366801   
     37. A(C   2,C   1,C   7)           98.8216         0.360475   
     38. A(C   0,C   1,C   2)          114.2699         0.350952   
     39. A(C   0,C   1,C  10)          109.1159         0.357056   
     40. A(C   2,C   1,C  10)          111.6276         0.351184   
     41. A(C   1,C   2,C   3)          111.1399         0.349714   
     42. A(C   3,C   2,H  14)          113.5010         0.316325   
     43. A(C   1,C   2,H  14)          114.5758         0.312401   
     44. A(C   1,C   2,C   6)          102.6555         0.354598   
     45. A(C   3,C   2,C   6)           99.1991         0.359264   
     46. A(C   6,C   2,H  14)          114.2723         0.320584   
     47. A(C   2,C   3,H  15)          109.6222         0.316020   
     48. A(C   2,C   3,C   4)          103.0630         0.355325   
     49. A(H  15,C   3,H  16)          107.3518         0.284051   
     50. A(C   4,C   3,H  16)          112.8342         0.317821   
     51. A(C   2,C   3,H  16)          113.9667         0.316935   
     52. A(C   4,C   3,H  15)          109.9577         0.316901   
     53. A(C   5,C   4,H  18)          111.1623         0.317803   
     54. A(H  17,C   4,H  18)          109.3798         0.283384   
     55. A(C   3,C   4,H  18)          110.2871         0.316968   
     56. A(C   3,C   4,H  17)          111.5566         0.316973   
     57. A(C   5,C   4,H  17)          111.7241         0.317808   
     58. A(C   3,C   4,C   5)          102.6035         0.357339   
     59. A(C   4,C   5,C   6)          101.5999         0.364169   
     60. A(C   6,C   5,C   7)          100.1891         0.372825   
     61. A(C   4,C   5,C   7)          107.6164         0.366794   
     62. A(C   7,C   5,C   9)          115.3615         0.369414   
     63. A(C   6,C   5,C   9)          114.7831         0.366764   
     64. A(C   4,C   5,C   9)          115.4022         0.360862   
     65. A(H  19,C   6,H  20)          108.2832         0.283010   
     66. A(C   5,C   6,H  20)          113.0916         0.322136   
     67. A(C   2,C   6,H  20)          113.1203         0.319712   
     68. A(C   5,C   6,H  19)          113.2899         0.322961   
     69. A(C   2,C   6,H  19)          114.2213         0.320528   
     70. A(C   2,C   6,C   5)           94.4918         0.367220   
     71. A(C   5,C   7,O   8)          125.5622         0.439305   
     72. A(C   1,C   7,O   8)          125.3724         0.439985   
     73. A(C   1,C   7,C   5)          108.9442         0.376089   
     74. A(H  22,C   9,H  23)          108.7774         0.284033   
     75. A(H  21,C   9,H  23)          108.7174         0.283974   
     76. A(C   5,C   9,H  23)          110.1983         0.320334   
     77. A(H  21,C   9,H  22)          108.9261         0.283998   
     78. A(C   5,C   9,H  22)          109.9524         0.320363   
     79. A(C   5,C   9,H  21)          110.2320         0.320292   
     80. A(H  25,C  10,H  26)          108.4147         0.283869   
     81. A(H  24,C  10,H  26)          108.1938         0.284373   
     82. A(C   1,C  10,H  26)          109.9461         0.317684   
     83. A(H  24,C  10,H  25)          107.2538         0.284319   
     84. A(C   1,C  10,H  25)          110.4184         0.317621   
     85. A(C   1,C  10,H  24)          112.4834         0.318213   
     86. D(C   7,C   1,C   0,H  11)     77.6398         0.010090   
     87. D(C   2,C   1,C   0,H  13)    -51.5598         0.010090   
     88. D(C   7,C   1,C   0,H  12)    -40.7906         0.010090   
     89. D(C   2,C   1,C   0,H  12)     70.2040         0.010090   
     90. D(C   2,C   1,C   0,H  11)   -171.3655         0.010090   
     91. D(C   7,C   1,C   0,H  13)   -162.5544         0.010090   
     92. D(C   6,C   2,C   1,C   7)    -35.0175         0.008449   
     93. D(C   3,C   2,C   1,C   7)     70.2005         0.008449   
     94. D(C   6,C   2,C   1,C  10)     82.1036         0.008449   
     95. D(C   6,C   2,C   1,C   0)   -153.4799         0.008449   
     96. D(C   3,C   2,C   1,C   0)    -48.2619         0.008449   
     97. D(C   3,C   2,C   1,C  10)   -172.6784         0.008449   
     98. D(C   4,C   3,C   2,H  14)    160.6865         0.009708   
     99. D(C   4,C   3,C   2,C   6)     39.0508         0.009708   
    100. D(C   4,C   3,C   2,C   1)    -68.4415         0.009708   
    101. D(H  15,C   3,C   2,H  14)     43.6397         0.009708   
    102. D(H  15,C   3,C   2,C   6)    -77.9961         0.009708   
    103. D(H  15,C   3,C   2,C   1)    174.5117         0.009708   
    104. D(H  17,C   4,C   3,H  16)     -7.5214         0.010019   
    105. D(H  17,C   4,C   3,H  15)   -127.3348         0.010019   
    106. D(H  17,C   4,C   3,C   2)    115.8561         0.010019   
    107. D(C   5,C   4,C   3,H  15)    112.9210         0.010019   
    108. D(C   5,C   4,C   3,C   2)     -3.8881         0.010019   
    109. D(C   5,C   4,C   3,H  16)   -127.2656         0.010019   
    110. D(C   7,C   5,C   4,H  18)   -170.5150         0.010323   
    111. D(C   7,C   5,C   4,C   3)     71.6106         0.010323   
    112. D(C   6,C   5,C   4,H  18)     84.7321         0.010323   
    113. D(C   7,C   5,C   4,H  17)    -48.0171         0.010323   
    114. D(C   6,C   5,C   4,H  17)   -152.7699         0.010323   
    115. D(C   6,C   5,C   4,C   3)    -33.1422         0.010323   
    116. D(C   5,C   6,C   2,C   1)     55.6603         0.011310   
    117. D(H  19,C   6,C   5,C   9)    -58.9754         0.012350   
    118. D(H  19,C   6,C   5,C   7)     65.2410         0.012350   
    119. D(H  19,C   6,C   5,C   4)    175.7770         0.012350   
    120. D(C   2,C   6,C   5,C   9)   -177.7816         0.012350   
    121. D(C   2,C   6,C   5,C   7)    -53.5652         0.012350   
    122. D(C   2,C   6,C   5,C   4)     56.9708         0.012350   
    123. D(H  19,C   6,C   2,H  14)     62.2807         0.011310   
    124. D(H  19,C   6,C   2,C   3)   -176.6441         0.011310   
    125. D(H  19,C   6,C   2,C   1)    -62.3887         0.011310   
    126. D(C   5,C   6,C   2,H  14)   -179.6703         0.011310   
    127. D(C   5,C   6,C   2,C   3)    -58.5952         0.011310   
    128. D(O   8,C   7,C   5,C   6)   -149.3427         0.012521   
    129. D(O   8,C   7,C   5,C   4)    104.9085         0.012521   
    130. D(C   1,C   7,C   5,C   9)    158.3076         0.012521   
    131. D(C   1,C   7,C   5,C   6)     34.4921         0.012521   
    132. D(C   1,C   7,C   5,C   4)    -71.2567         0.012521   
    133. D(O   8,C   7,C   1,C   2)   -175.8741         0.012729   
    134. D(O   8,C   7,C   1,C   0)    -55.3357         0.012729   
    135. D(C   5,C   7,C   1,C  10)   -117.1176         0.012729   
    136. D(C   5,C   7,C   1,C   2)      0.3002         0.012729   
    137. D(C   5,C   7,C   1,C   0)    120.8386         0.012729   
    138. D(H  22,C   9,C   5,C   7)     65.2161         0.011156   
    139. D(H  22,C   9,C   5,C   6)   -179.0319         0.011156   
    140. D(H  22,C   9,C   5,C   4)    -61.3583         0.011156   
    141. D(H  21,C   9,C   5,C   7)    -54.8865         0.011156   
    142. D(H  21,C   9,C   5,C   6)     60.8655         0.011156   
    143. D(H  21,C   9,C   5,C   4)    178.5391         0.011156   
    144. D(H  25,C  10,C   1,C   2)   -175.9378         0.010163   
    145. D(H  25,C  10,C   1,C   0)     56.8054         0.010163   
    146. D(H  24,C  10,C   1,C   7)     53.1717         0.010163   
    147. D(H  24,C  10,C   1,C   2)    -56.1628         0.010163   
    148. D(H  24,C  10,C   1,C   0)    176.5804         0.010163   
    149. D(H  25,C  10,C   1,C   7)    -66.6033         0.010163   
    -----------------------------------------------------------------

Number of atoms                         .... 27
Number of degrees of freedom            .... 149


         *************************************************************
         *                GEOMETRY OPTIMIZATION CYCLE   1            *
         *************************************************************
---------------------------------
CARTESIAN COORDINATES (ANGSTROEM)
---------------------------------
  C      1.926100    1.205143    0.794049
  C      1.210328    0.142306   -0.068216
  C      0.096922    0.720815   -1.013791
  C     -0.850943    1.674928   -0.242883
  C     -1.605993    0.721675    0.710981
  C     -1.070374   -0.662633    0.296402
  C     -0.844685   -0.469511   -1.189493
  C      0.353218   -0.760698    0.771177
  O      0.738954   -1.410159    1.732077
  C     -1.965642   -1.848597    0.660253
  C      2.264953   -0.662389   -0.857139
  H      2.798021    0.759762    1.319646
  H      1.261370    1.615518    1.582780
  H      2.289914    2.035726    0.152459
  H      0.476236    1.147890   -1.967145
  H     -1.566137    2.146039   -0.953734
  H     -0.328731    2.493279    0.291532
  H     -1.381484    0.947759    1.777002
  H     -2.703129    0.795226    0.541099
  H     -0.378817   -1.350813   -1.681508
  H     -1.778084   -0.211716   -1.744082
  H     -1.512379   -2.796792    0.300220
  H     -2.090807   -1.904855    1.762296
  H     -2.966139   -1.731588    0.192306
  H      1.815045   -1.483038   -1.450608
  H      3.000541   -1.122653   -0.162837
  H      2.811741    0.009378   -1.552843

----------------------------
CARTESIAN COORDINATES (A.U.)
----------------------------
  NO LB      ZA    FRAG     MASS         X           Y           Z
   0 C     4.0000*   0    12.011    3.639802    2.277390    1.500535
   1 C     4.0000*   0    12.011    2.287188    0.268919   -0.128910
   2 C     4.0000*   0    12.011    0.183156    1.362143   -1.915787
   3 C     4.0000*   0    12.011   -1.608049    3.165155   -0.458982
   4 C     4.0000*   0    12.011   -3.034887    1.363768    1.343559
   5 C     4.0000*   0    12.011   -2.022714   -1.252195    0.560119
   6 C     4.0000*   0    12.011   -1.596223   -0.887247   -2.247816
   7 C     4.0000*   0    12.011    0.667485   -1.437511    1.457313
   8 O     6.0000*   0    15.999    1.396421   -2.664814    3.273151
   9 C     4.0000*   0    12.011   -3.714525   -3.493342    1.247697
  10 C     4.0000*   0    12.011    4.280141   -1.251734   -1.619758
  11 H     1.0000    0     1.008    5.287493    1.435742    2.493770
  12 H     1.0000    0     1.008    2.383644    3.052887    2.991021
  13 H     1.0000    0     1.008    4.327310    3.846965    0.288106
  14 H     1.0000    0     1.008    0.899956    2.169198   -3.717365
  15 H     1.0000    0     1.008   -2.959570    4.055426   -1.802296
  16 H     1.0000    0     1.008   -0.621212    4.711614    0.550916
  17 H     1.0000    0     1.008   -2.610626    1.791005    3.358047
  18 H     1.0000    0     1.008   -5.108174    1.502759    1.022529
  19 H     1.0000    0     1.008   -0.715860   -2.552667   -3.177590
  20 H     1.0000    0     1.008   -3.360092   -0.400085   -3.295837
  21 H     1.0000    0     1.008   -2.857982   -5.285171    0.567334
  22 H     1.0000    0     1.008   -3.951053   -3.599654    3.330257
  23 H     1.0000    0     1.008   -5.605190   -3.272227    0.363406
  24 H     1.0000    0     1.008    3.429938   -2.802536   -2.741252
  25 H     1.0000    0     1.008    5.670201   -2.121507   -0.307717
  26 H     1.0000    0     1.008    5.313420    0.017722   -2.934448
* core charge reduced due to ECP

--------------------------------
INTERNAL COORDINATES (ANGSTROEM)
--------------------------------
 C      0   0   0     0.000000000000     0.00000000     0.00000000
 C      1   0   0     1.544491170185     0.00000000     0.00000000
 C      2   1   0     1.571132605652   114.26993547     0.00000000
 C      3   2   1     1.550186704709   111.13985531   311.73808303
 C      4   3   2     1.545525255376   103.06299149   291.55851082
 C      5   4   3     1.541126892656   102.60345205   356.11185889
 C      6   5   4     1.515293893154   101.59986450   326.85778018
 C      2   1   3     1.501544000209   111.48675944   249.00538364
 O      8   2   1     1.222260472329   125.37237191   304.66431151
 C      6   5   4     1.529837557168   115.40222732   202.02367244
 C      2   1   3     1.543427171453   109.11587473   125.74467678
 H      1   2   3     1.111243749954   110.60232317   188.63446210
 H      1   2   3     1.110121706790   111.93410768    70.20400021
 H      1   2   3     1.110795424273   110.11331267   308.44017095
 H      3   2   1     1.111375731037   114.57576158    82.05066919
 H      4   3   2     1.112994688288   109.62215826   174.51170501
 H      4   3   2     1.108153023896   113.96668964    54.18134156
 H      5   4   3     1.112618100957   111.55660512   115.85610270
 H      5   4   3     1.112644168646   110.28714507   237.61951597
 H      7   6   5     1.111667652157   113.28990648   175.77700886
 H      7   6   5     1.115912592521   113.09161043   299.47565823
 H     10   6   5     1.110920729073   110.23200507   178.53905378
 H     10   6   5     1.110553921986   109.95244305   298.64166383
 H     10   6   5     1.110702366928   110.19830440    58.53879382
 H     11   2   1     1.108191068194   112.48342565   176.58038985
 H     11   2   1     1.111300104672   110.41840138    56.80541018
 H     11   2   1     1.110968980147   109.94609457   297.22284522

---------------------------
INTERNAL COORDINATES (A.U.)
---------------------------
 C      0   0   0     0.000000000000     0.00000000     0.00000000
 C      1   0   0     2.918665327908     0.00000000     0.00000000
 C      2   1   0     2.969010344756   114.26993547     0.00000000
 C      3   2   1     2.929428328347   111.13985531   311.73808303
 C      4   3   2     2.920619465719   103.06299149   291.55851082
 C      5   4   3     2.912307764740   102.60345205   356.11185889
 C      6   5   4     2.863490470465   101.59986450   326.85778018
 C      2   1   3     2.837506938428   111.48675944   249.00538364
 O      8   2   1     2.309737557018   125.37237191   304.66431151
 C      6   5   4     2.890974012434   115.40222732   202.02367244
 C      2   1   3     2.916654661699   109.11587473   125.74467678
 H      1   2   3     2.099946355444   110.60232317   188.63446210
 H      1   2   3     2.097826001154   111.93410768    70.20400021
 H      1   2   3     2.099099142688   110.11331267   308.44017095
 H      3   2   1     2.100195763546   114.57576158    82.05066919
 H      4   3   2     2.103255149374   109.62215826   174.51170501
 H      4   3   2     2.094105729640   113.96668964    54.18134156
 H      5   4   3     2.102543502453   111.55660512   115.85610270
 H      5   4   3     2.102592763245   110.28714507   237.61951597
 H      7   6   5     2.100747414517   113.28990648   175.77700886
 H      7   6   5     2.108769189259   113.09161043   299.47565823
 H     10   6   5     2.099335934443   110.23200507   178.53905378
 H     10   6   5     2.098642769505   109.95244305   298.64166383
 H     10   6   5     2.098923289792   110.19830440    58.53879382
 H     11   2   1     2.094177622945   112.48342565   176.58038985
 H     11   2   1     2.100052850428   110.41840138    56.80541018
 H     11   2   1     2.099427115760   109.94609457   297.22284522

---------------------
BASIS SET INFORMATION
---------------------
There are 3 groups of distinct atoms

 Group   1 Type C   : 6s6p2d contracted to 2s2p1d pattern {42/42/2}
 Group   2 Type O   : 6s6p2d contracted to 2s2p1d pattern {42/42/2}
 Group   3 Type H   : 8s2p contracted to 2s1p pattern {53/2}

Atom   0C    basis set group =>   1
Atom   1C    basis set group =>   1
Atom   2C    basis set group =>   1
Atom   3C    basis set group =>   1
Atom   4C    basis set group =>   1
Atom   5C    basis set group =>   1
Atom   6C    basis set group =>   1
Atom   7C    basis set group =>   1
Atom   8O    basis set group =>   2
Atom   9C    basis set group =>   1
Atom  10C    basis set group =>   1
Atom  11H    basis set group =>   3
Atom  12H    basis set group =>   3
Atom  13H    basis set group =>   3
Atom  14H    basis set group =>   3
Atom  15H    basis set group =>   3
Atom  16H    basis set group =>   3
Atom  17H    basis set group =>   3
Atom  18H    basis set group =>   3
Atom  19H    basis set group =>   3
Atom  20H    basis set group =>   3
Atom  21H    basis set group =>   3
Atom  22H    basis set group =>   3
Atom  23H    basis set group =>   3
Atom  24H    basis set group =>   3
Atom  25H    basis set group =>   3
Atom  26H    basis set group =>   3
---------------------------------
AUXILIARY/J BASIS SET INFORMATION
---------------------------------
There are 3 groups of distinct atoms

 Group   1 Type C   : 12s5p4d2f1g contracted to 6s4p3d1f1g pattern {711111/2111/211/2/1}
 Group   2 Type O   : 12s5p4d2f1g contracted to 6s4p3d1f1g pattern {711111/2111/211/2/1}
 Group   3 Type H   : 5s2p1d contracted to 3s1p1d pattern {311/2/1}

Atom   0C    basis set group =>   1
Atom   1C    basis set group =>   1
Atom   2C    basis set group =>   1
Atom   3C    basis set group =>   1
Atom   4C    basis set group =>   1
Atom   5C    basis set group =>   1
Atom   6C    basis set group =>   1
Atom   7C    basis set group =>   1
Atom   8O    basis set group =>   2
Atom   9C    basis set group =>   1
Atom  10C    basis set group =>   1
Atom  11H    basis set group =>   3
Atom  12H    basis set group =>   3
Atom  13H    basis set group =>   3
Atom  14H    basis set group =>   3
Atom  15H    basis set group =>   3
Atom  16H    basis set group =>   3
Atom  17H    basis set group =>   3
Atom  18H    basis set group =>   3
Atom  19H    basis set group =>   3
Atom  20H    basis set group =>   3
Atom  21H    basis set group =>   3
Atom  22H    basis set group =>   3
Atom  23H    basis set group =>   3
Atom  24H    basis set group =>   3
Atom  25H    basis set group =>   3
Atom  26H    basis set group =>   3
-------------------------
ECP PARAMETER INFORMATION
-------------------------

 Group 1, Type C  ECP vDZP-ECP (replacing 2 core electrons, lmax=3)
 Group 2, Type O  ECP vDZP-ECP (replacing 2 core electrons, lmax=3)

Atom   0C    ECP group =>   1
Atom   1C    ECP group =>   1
Atom   2C    ECP group =>   1
Atom   3C    ECP group =>   1
Atom   4C    ECP group =>   1
Atom   5C    ECP group =>   1
Atom   6C    ECP group =>   1
Atom   7C    ECP group =>   1
Atom   8O    ECP group =>   2
Atom   9C    ECP group =>   1
Atom  10C    ECP group =>   1



           ************************************************************
           *        Program running with 40 parallel MPI-processes    *
           *              working on a common directory               *
           ************************************************************
------------------------------------------------------------------------------
                             ORCA STARTUP CALCULATIONS
                           -- RI-GTO INTEGRALS CHOSEN --
------------------------------------------------------------------------------
------------------------------------------------------------------------------
                   ___                                                        
                  /   \      - P O W E R E D   B Y -                         
                 /     \                                                     
                 |  |  |   _    _      __       _____    __    __             
                 |  |  |  | |  | |    /  \     |  _  \  |  |  /  |          
                  \  \/   | |  | |   /    \    | | | |  |  | /  /          
                 / \  \   | |__| |  /  /\  \   | |_| |  |  |/  /          
                |  |  |   |  __  | /  /__\  \  |    /   |      \           
                |  |  |   | |  | | |   __   |  |    \   |  |\   \          
                \     /   | |  | | |  |  |  |  | |\  \  |  | \   \       
                 \___/    |_|  |_| |__|  |__|  |_| \__\ |__|  \__/        
                                                                              
                      - O R C A' S   B I G   F R I E N D -                    
                                      &                                       
                       - I N T E G R A L  F E E D E R -                       
                                                                              
 v1 FN, 2020, v2 2021, v3 2022-2024                                           
------------------------------------------------------------------------------


----------------------
SHARK INTEGRAL PACKAGE
----------------------

Number of atoms                             ...     27
Number of basis functions                   ...    223
Number of shells                            ...    103
Maximum angular momentum                    ...      2
Integral batch strategy                     ... SHARK/LIBINT Hybrid
RI-J (if used) integral strategy            ... SPLIT-RIJ (Revised 2003 algorithm where possible)
Printlevel                                  ...      1
Contraction scheme used                     ... SEGMENTED contraction
Prescreening option                         ... SCHWARTZ
   Thresh                                   ... 2.500e-11
   Tcut                                     ... 2.500e-12
   Tpresel                                  ... 2.500e-12 
Coulomb Range Separation                    ... NOT USED
Exchange Range Separation                   ... Long Range
   Mu parameter                             ... 3.000e-01
   Scaling (regular/separated)              ... 1.670e-01 8.330e-01
Multipole approximations                    ... NOT USED
Finite Nucleus Model                        ... NOT USED
CABS basis                                  ... NOT available
Auxiliary Coulomb fitting basis             ... AVAILABLE
   # of basis functions in Aux-J            ...    715
   # of shells in Aux-J                     ...    245
   Maximum angular momentum in Aux-J        ...      4
Auxiliary J/K fitting basis                 ... NOT available
Auxiliary Correlation fitting basis         ... NOT available
Auxiliary 'external' fitting basis          ... NOT available

Checking pre-screening integrals            ... done (  0.0 sec) Dimension = 103
Check shell pair data                       ... done (  0.0 sec)
Shell pair information
Shell pair cut-off parameter TPreSel        ...   2.5e-12
Total number of shell pairs                 ...      5356
Shell pairs after pre-screening             ...      5356
Total number of primitive shell pairs       ...     49844
Primitive shell pairs kept                  ...     42041
          la=0 lb=0:   1485 shell pairs
          la=1 lb=0:   2052 shell pairs
          la=1 lb=1:    741 shell pairs
          la=2 lb=0:    594 shell pairs
          la=2 lb=1:    418 shell pairs
          la=2 lb=2:     66 shell pairs

Calculating one electron integrals          ... done (  0.0 sec)
Calculating ECP integrals                   ... done (  0.1 sec)
Calculating RI/J V-Matrix + Cholesky decomp.... done (  0.0 sec)
Calculating Nuclear repulsion               ... done (  0.0 sec) ENN=    366.078773625913 Eh

Diagonalization of the overlap matrix:
Smallest eigenvalue                        ... 1.098e-03
Time for diagonalization                   ...    0.007 sec
Threshold for overlap eigenvalues          ... 1.000e-07
Number of eigenvalues below threshold      ... 0
Time for construction of square roots      ...    0.005 sec
Total time needed                          ...    0.015 sec

-------------------
DFT GRID GENERATION
-------------------

General Integration Accuracy     IntAcc      ... 4.388
Radial Grid Type                 RadialGrid  ... OptM3 with GC (2021)
Angular Grid (max. ang.)         AngularGrid ... 4 (Lebedev-302)
Angular grid pruning method      GridPruning ... 4 (adaptive)
Weight generation scheme         WeightScheme... mBecke (2022)
Basis function cutoff            BFCut       ... 1.0000e-11
Integration weight cutoff        WCut        ... 1.0000e-14
Partially contracted basis set               ... off
Rotationally invariant grid construction     ... off
Angular grids for H and He will be reduced by one unit

Total number of grid points                  ...   116128
Total number of batches                      ...     1829
Average number of points per batch           ...       63
Average number of grid points per atom       ...     4301

--------------------
COSX GRID GENERATION
--------------------

GRIDX 1
-------
General Integration Accuracy     IntAcc      ... 3.816
Radial Grid Type                 RadialGrid  ... OptM3 with GC (2021)
Angular Grid (max. ang.)         AngularGrid ... 1 (Lebedev-50)
Angular grid pruning method      GridPruning ... 4 (adaptive)
Weight generation scheme         WeightScheme... mBecke (2022)
Basis function cutoff            BFCut       ... 1.0000e-11
Integration weight cutoff        WCut        ... 1.0000e-14
Partially contracted basis set               ... on
Rotationally invariant grid construction     ... off
Angular grids for H and He will be reduced by one unit

Total number of grid points                  ...    14822
Total number of batches                      ...      133
Average number of points per batch           ...      111
Average number of grid points per atom       ...      549
UseSFitting                                  ... on

GRIDX 2
-------
General Integration Accuracy     IntAcc      ... 4.020
Radial Grid Type                 RadialGrid  ... OptM3 with GC (2021)
Angular Grid (max. ang.)         AngularGrid ... 2 (Lebedev-110)
Angular grid pruning method      GridPruning ... 4 (adaptive)
Weight generation scheme         WeightScheme... mBecke (2022)
Basis function cutoff            BFCut       ... 1.0000e-11
Integration weight cutoff        WCut        ... 1.0000e-14
Partially contracted basis set               ... on
Rotationally invariant grid construction     ... off
Angular grids for H and He will be reduced by one unit

Total number of grid points                  ...    31006
Total number of batches                      ...      256
Average number of points per batch           ...      121
Average number of grid points per atom       ...     1148
UseSFitting                                  ... on

GRIDX 3
-------
General Integration Accuracy     IntAcc      ... 4.338
Radial Grid Type                 RadialGrid  ... OptM3 with GC (2021)
Angular Grid (max. ang.)         AngularGrid ... 3 (Lebedev-194)
Angular grid pruning method      GridPruning ... 4 (adaptive)
Weight generation scheme         WeightScheme... mBecke (2022)
Basis function cutoff            BFCut       ... 1.0000e-11
Integration weight cutoff        WCut        ... 1.0000e-14
Partially contracted basis set               ... on
Rotationally invariant grid construction     ... off
Angular grids for H and He will be reduced by one unit

Total number of grid points                  ...    67561
Total number of batches                      ...      542
Average number of points per batch           ...      124
Average number of grid points per atom       ...     2502
UseSFitting                                  ... on
Initializing property integral containers    ... done (  0.0 sec)

SHARK setup successfully completed in   3.5 seconds

Maximum memory used throughout the entire STARTUP-calculation: 35.8 MB


           ************************************************************
           *        Program running with 40 parallel MPI-processes    *
           *              working on a common directory               *
           ************************************************************
-------------------------------------------------------------------------------
                                 ORCA GUESS
                   Start orbitals & Density for SCF / CASSCF
-------------------------------------------------------------------------------

------------
SCF SETTINGS
------------
Hamiltonian:
 Density Functional     Method          .... DFT(GTOs)
 Exchange Functional    Exchange        .... WB97X-V
 Correlation Functional Correlation     .... WB97X-V
 Gradients option       PostSCFGGA      .... off
 Hybrid DFT is turned on
   Fraction HF Exchange ScalHFX         ....  0.167000
   Scaling of DF-GGA-X  ScalDFX         ....  0.000000
   Scaling of DF-GGA-C  ScalDFC         ....  1.000000
   Scaling of DF-LDA-C  ScalLDAC        ....  1.000000
   Perturbative correction              ....  0.000000
 Long-range corrected/Screened/Range-Separated Hybrid DFT is turned on
   Amount of maximum screened exact exchange              ....  0.833000
   Range separation parameter mu (erf(mu*r12)/r12)        ....  0.300000
   NL short-range parameter             ....  6.000000
   NL long-range parameter              ....  0.010000
 RI-approximation to the Coulomb term is turned on
   Number of AuxJ basis functions       .... 715
   RIJ-COSX (HFX calculated with COS-X)).... on


General Settings:
 Integral files         IntName         .... ./output/fenchone/fenchone
 Hartree-Fock type      HFTyp           .... RHF
 Total Charge           Charge          ....    0
 Multiplicity           Mult            ....    1
 Number of Electrons    NEL             ....   62
 Basis Dimension        Dim             ....  223
 Nuclear Repulsion      ENuc            ....    366.0787736259 Eh

Convergence Acceleration:
 AO-DIIS                CNVDIIS         .... on
   Start iteration      DIISMaxIt       ....    12
   Startup error        DIISStart       ....  0.200000
   # of expansion vecs  DIISMaxEq       ....     5
   Bias factor          DIISBfac        ....   1.050
   Max. coefficient     DIISMaxC        ....  10.000
 MO-DIIS                CNVKDIIS        .... off
 Trust-Rad. Augm. Hess. CNVTRAH         .... auto
   Auto Start mean grad. ratio tolernc. ....  1.125000
   Auto Start start iteration           ....    50
   Auto Start num. interpolation iter.  ....    10
   Max. Number of Micro iterations      ....    24
   Max. Number of Macro iterations      .... Maxiter - #DIIS iter
   Number of Davidson start vectors     ....     2
   Converg. threshold    (grad. norm)   ....   1.000e-05
   Grad. Scal. Fac. for Micro threshold ....   0.100
   Minimum threshold for Micro iter.    ....   1.000e-02
   NR start threshold (gradient norm)   ....   1.000e-04
   Initial trust radius                 ....   0.400
   Minimum AH scaling param. (alpha)    ....   1.000
   Maximum AH scaling param. (alpha)    .... 1000.000
   Quad. conv. algorithm                .... NR
   White noise on init. David. guess    .... on
   Maximum white noise                  ....   0.010
   Pseudo random numbers                .... off
   Inactive MOs                         .... canonical
   Orbital update algorithm             .... Taylor
   Preconditioner                       .... Diag
   Full preconditioner red. dimension   ....   250
 SOSCF                  CNVSOSCF        .... on
   Start iteration      SOSCFMaxIt      ....   150
   Startup grad/error   SOSCFStart      ....  0.003300
   Hessian update       SOSCFHessUp     .... L-BFGS
 Level Shifting         CNVShift        .... on
   Level shift para.    LevelShift      ....    0.2500
   Turn off err/grad.   ShiftErr        ....    0.0010
 Zerner damping         CNVZerner       .... off
 Static damping         CNVDamp         .... on
   Fraction old density DampFac         ....    0.7000
   Max. Damping (<1)    DampMax         ....    0.9800
   Min. Damping (>=0)   DampMin         ....    0.0000
   Turn off err/grad.   DampErr         ....    0.1000

SCF Procedure:
 Maximum # iterations   MaxIter         ....   125
 SCF integral mode      SCFMode         .... Direct
   Integral package                     .... SHARK and LIBINT hybrid scheme
 Reset frequency        DirectResetFreq ....    20
 Integral Threshold     Thresh          ....  2.500e-11 Eh
 Primitive CutOff       TCut            ....  2.500e-12 Eh

Convergence Tolerance:
 Convergence Check Mode ConvCheckMode   .... Total+1el-Energy
 Convergence forced     ConvForced      .... 0
 Energy Change          TolE            ....  1.000e-08 Eh
 1-El. energy change                    ....  1.000e-05 Eh
 Orbital Gradient       TolG            ....  1.000e-05
 Orbital Rotation angle TolX            ....  1.000e-05
 DIIS Error             TolErr          ....  5.000e-07

------------------------------
INITIAL GUESS: MODEL POTENTIAL
------------------------------
Loading Hartree-Fock densities                     ... done
Atomic calculation to generate a density for atom 0 (C  with ECP)
  Multiplicity assumed   :    1
  Atomic configuration   : 1s2 2s2 2p2 
  Number of open shells  : 1
  Command: /home/aspe232/Project/Software/ORCA/6_0_1/build/orca ./output/fenchone/fenchone_atom6.inp "" > ./output/fenchone/fenchone_atom6.out
Returned from the atomic calculation with res=0
Atomic calculation to generate a density for atom 8 (O  with ECP)
  Multiplicity assumed   :    3
  Atomic configuration   : 1s2 2s2 2p4 
  Number of open shells  : 1
  Command: /home/aspe232/Project/Software/ORCA/6_0_1/build/orca ./output/fenchone/fenchone_atom8.inp "" > ./output/fenchone/fenchone_atom8.out
Returned from the atomic calculation with res=0
Calculating cut-offs                               ... done
Initializing the effective Hamiltonian             ... done
Setting up the integral package (SHARK)            ... done
Starting the Coulomb interaction                   ... done (   0.0 sec)
Making the grid                                    ... done (   0.7 sec)
Mapping shells                                     ... done
Starting the XC term evaluation                    ... done (   0.0 sec)
  promolecular density results
     # of electrons  =     83.995185448
     EX              =    -42.670016577
     EC              =     -3.410782971
     EX+EC           =    -46.080799548
Transforming the Hamiltonian                       ... done (   0.0 sec)
Diagonalizing the Hamiltonian                      ... done (   0.0 sec)
Back transforming the eigenvectors                 ... done (   0.0 sec)
Now organizing SCF variables                       ... done
                      ------------------
                      INITIAL GUESS DONE (   1.9 sec)
                      ------------------
             **** ENERGY FILE WAS UPDATED (./output/fenchone/fenchone.en.tmp) ****
Finished Guess after   2.4 sec
Maximum memory used throughout the entire GUESS-calculation: 22.3 MB


           ************************************************************
           *        Program running with 40 parallel MPI-processes    *
           *              working on a common directory               *
           ************************************************************

-------------------------------------------------------------------------------------------
                                      ORCA LEAN-SCF
                              memory conserving SCF solver
-------------------------------------------------------------------------------------------

----------------------------------------D-I-I-S--------------------------------------------
Iteration    Energy (Eh)           Delta-E    RMSDP     MaxDP     DIISErr   Damp  Time(sec)
-------------------------------------------------------------------------------------------
               ***  Starting incremental Fock matrix formation  ***
    1    -82.2129952222622933     0.00e+00  3.78e-03  6.73e-02  1.79e-01  0.700   4.9
    2    -82.3957430011267320    -1.83e-01  2.76e-03  4.97e-02  1.08e-01  0.700   3.7
                               ***Turning on AO-DIIS***
    3    -82.4887291451518081    -9.30e-02  1.47e-03  2.59e-02  5.58e-02  0.700   3.5
    4    -82.5433874827098748    -5.47e-02  3.21e-03  6.01e-02  3.51e-02  0.000   3.6
    5    -82.6586922734966265    -1.15e-01  2.49e-04  4.43e-03  4.74e-03  0.000   3.8
                              *** Initializing SOSCF ***
---------------------------------------S-O-S-C-F--------------------------------------
Iteration    Energy (Eh)           Delta-E    RMSDP     MaxDP     MaxGrad    Time(sec)
--------------------------------------------------------------------------------------
    6    -82.6590066255761258    -3.14e-04  1.19e-04  1.97e-03  1.41e-03     3.9
               *** Restarting incremental Fock matrix formation ***
    7    -82.6590706903260752    -6.41e-05  6.86e-05  1.53e-03  4.34e-04     4.7
    8    -82.6590813736160612    -1.07e-05  4.40e-05  8.77e-04  2.18e-04     4.4
    9    -82.6590834787330664    -2.11e-06  1.37e-05  3.29e-04  7.66e-05     4.4
   10    -82.6590838263729779    -3.48e-07  6.18e-06  1.83e-04  4.79e-05     4.1
   11    -82.6590838529983785    -2.66e-08  2.85e-06  9.42e-05  2.08e-05     4.1
   12    -82.6590839013463778    -4.83e-08  4.47e-07  1.12e-05  2.97e-06     3.9
   13    -82.6590838800494225     2.13e-08  2.19e-07  4.19e-06  1.74e-06     3.4
                  *** Gradient check signals convergence ***

               *****************************************************
               *                     SUCCESS                       *
               *           SCF CONVERGED AFTER  13 CYCLES          *
               *****************************************************

Recomputing exchange energy using gridx3       ... done (    4.367 sec)
Old exchange energy                            :    -11.934722539 Eh
New exchange energy                            :    -11.934715476 Eh
Exchange energy change after final integration :      0.000007063 Eh
Total energy after final integration           :    -82.659076817 Eh
             **** ENERGY FILE WAS UPDATED (./output/fenchone/fenchone.en.tmp) ****

----------------
TOTAL SCF ENERGY
----------------

Total Energy       :        -82.65907681679069 Eh           -2249.26783 eV

Components:
Nuclear Repulsion  :        366.07877362591341 Eh            9961.50986 eV
Electronic Energy  :       -448.73785750596284 Eh          -12210.77789 eV
One Electron Energy:       -850.59014005128438 Eh          -23145.73442 eV
Two Electron Energy:        401.85228254532154 Eh           10934.95653 eV

Virial components:
Potential Energy   :       -147.11216128279432 Eh           -4003.12542 eV
Kinetic Energy     :         64.45308446600365 Eh            1753.85759 eV
Virial Ratio       :          2.28246890744833

DFT components:
N(Alpha)           :       31.000062776969 electrons
N(Beta)            :       31.000062776969 electrons
N(Total)           :       62.000125553938 electrons
E(X)               :      -12.683884363504 Eh       
E(C)               :       -2.352700038752 Eh       
E(XC)              :      -15.036584402255 Eh       

---------------
SCF CONVERGENCE
---------------

  Last Energy change         ...   -2.1297e-08  Tolerance :   1.0000e-08
  Last MAX-Density change    ...    4.1909e-06  Tolerance :   1.0000e-07
  Last RMS-Density change    ...    2.1851e-07  Tolerance :   5.0000e-09
  Last DIIS Error            ...    1.4148e-03  Tolerance :   5.0000e-07
  Last Orbital Gradient      ...    1.7439e-06  Tolerance :   1.0000e-05
  Last Orbital Rotation      ...    3.8458e-06  Tolerance :   1.0000e-05


----------------
ORBITAL ENERGIES
----------------

  NO   OCC          E(Eh)            E(eV) 
   0   2.0000      -1.160247       -31.5719 
   1   2.0000      -1.038418       -28.2568 
   2   2.0000      -0.940021       -25.5793 
   3   2.0000      -0.886601       -24.1256 
   4   2.0000      -0.857735       -23.3401 
   5   2.0000      -0.820897       -22.3377 
   6   2.0000      -0.803951       -21.8766 
   7   2.0000      -0.775755       -21.1094 
   8   2.0000      -0.704669       -19.1750 
   9   2.0000      -0.685298       -18.6479 
  10   2.0000      -0.626850       -17.0574 
  11   2.0000      -0.605528       -16.4773 
  12   2.0000      -0.598843       -16.2954 
  13   2.0000      -0.575112       -15.6496 
  14   2.0000      -0.556976       -15.1561 
  15   2.0000      -0.544367       -14.8130 
  16   2.0000      -0.530487       -14.4353 
  17   2.0000      -0.519581       -14.1385 
  18   2.0000      -0.508957       -13.8494 
  19   2.0000      -0.499870       -13.6022 
  20   2.0000      -0.491961       -13.3869 
  21   2.0000      -0.483329       -13.1521 
  22   2.0000      -0.474005       -12.8983 
  23   2.0000      -0.464092       -12.6286 
  24   2.0000      -0.456684       -12.4270 
  25   2.0000      -0.454576       -12.3696 
  26   2.0000      -0.437046       -11.8926 
  27   2.0000      -0.430224       -11.7070 
  28   2.0000      -0.413629       -11.2554 
  29   2.0000      -0.411217       -11.1898 
  30   2.0000      -0.344684        -9.3793 
  31   0.0000       0.063092         1.7168 
  32   0.0000       0.080816         2.1991 
  33   0.0000       0.093019         2.5312 
  34   0.0000       0.096081         2.6145 
  35   0.0000       0.106656         2.9022 
  36   0.0000       0.120092         3.2679 
  37   0.0000       0.130051         3.5389 
  38   0.0000       0.136227         3.7069 
  39   0.0000       0.143916         3.9162 
  40   0.0000       0.148138         4.0310 
  41   0.0000       0.167364         4.5542 
*Only the first 10 virtual orbitals were printed.

                    ********************************
                    * MULLIKEN POPULATION ANALYSIS *
                    ********************************

-----------------------
MULLIKEN ATOMIC CHARGES
-----------------------
   0 C :   -0.031904
   1 C :   -0.238411
   2 C :   -0.036986
   3 C :   -0.060815
   4 C :   -0.032152
   5 C :   -0.202829
   6 C :   -0.021288
   7 C :    0.294842
   8 O :   -0.314759
   9 C :   -0.038589
  10 C :   -0.033844
  11 H :    0.053252
  12 H :    0.034635
  13 H :    0.043589
  14 H :    0.047787
  15 H :    0.047242
  16 H :    0.041766
  17 H :    0.054055
  18 H :    0.049148
  19 H :    0.038518
  20 H :    0.044691
  21 H :    0.044976
  22 H :    0.051341
  23 H :    0.036473
  24 H :    0.031330
  25 H :    0.056419
  26 H :    0.041514
Sum of atomic charges:    0.0000000

--------------------------------
MULLIKEN REDUCED ORBITAL CHARGES
--------------------------------
  0 C s       :     0.950368  s :     0.950368
      pz      :     1.004284  p :     3.009178
      px      :     1.017860
      py      :     0.987033
      dz2     :     0.006039  d :     0.072358
      dxz     :     0.020300
      dyz     :     0.020170
      dx2y2   :     0.009767
      dxy     :     0.016083

  1 C s       :     1.077409  s :     1.077409
      pz      :     1.026138  p :     3.022509
      px      :     0.973075
      py      :     1.023296
      dz2     :     0.019801  d :     0.138492
      dxz     :     0.034670
      dyz     :     0.029759
      dx2y2   :     0.021546
      dxy     :     0.032716

  2 C s       :     1.036850  s :     1.036850
      pz      :     0.998596  p :     2.879763
      px      :     0.925756
      py      :     0.955411
      dz2     :     0.019906  d :     0.120373
      dxz     :     0.026463
      dyz     :     0.024774
      dx2y2   :     0.019103
      dxy     :     0.030127

  3 C s       :     0.996379  s :     0.996379
      pz      :     0.997140  p :     2.968933
      px      :     0.991466
      py      :     0.980327
      dz2     :     0.011596  d :     0.095504
      dxz     :     0.022714
      dyz     :     0.025050
      dx2y2   :     0.013503
      dxy     :     0.022641

  4 C s       :     0.994764  s :     0.994764
      pz      :     1.013835  p :     2.942301
      px      :     1.015992
      py      :     0.912474
      dz2     :     0.026283  d :     0.095087
      dxz     :     0.009895
      dyz     :     0.018430
      dx2y2   :     0.024631
      dxy     :     0.015848

  5 C s       :     1.066946  s :     1.066946
      pz      :     0.979409  p :     2.987972
      px      :     0.982683
      py      :     1.025880
      dz2     :     0.032743  d :     0.147911
      dxz     :     0.025678
      dyz     :     0.026773
      dx2y2   :     0.035412
      dxy     :     0.027304

  6 C s       :     0.993259  s :     0.993259
      pz      :     0.938955  p :     2.926990
      px      :     1.005708
      py      :     0.982327
      dz2     :     0.019102  d :     0.101039
      dxz     :     0.023180
      dyz     :     0.020435
      dx2y2   :     0.018535
      dxy     :     0.019788

  7 C s       :     1.081857  s :     1.081857
      pz      :     0.773854  p :     2.414577
      px      :     0.905221
      py      :     0.735502
      dz2     :     0.046097  d :     0.208724
      dxz     :     0.057097
      dyz     :     0.031172
      dx2y2   :     0.038323
      dxy     :     0.036036

  8 O s       :     1.777102  s :     1.777102
      pz      :     1.332836  p :     4.501729
      px      :     1.775888
      py      :     1.393005
      dz2     :     0.012305  d :     0.035928
      dxz     :     0.006471
      dyz     :     0.008801
      dx2y2   :     0.004108
      dxy     :     0.004244

  9 C s       :     0.942950  s :     0.942950
      pz      :     1.047098  p :     3.023877
      px      :     0.995659
      py      :     0.981120
      dz2     :     0.019542  d :     0.071761
      dxz     :     0.010712
      dyz     :     0.008727
      dx2y2   :     0.018352
      dxy     :     0.014428

 10 C s       :     0.954177  s :     0.954177
      pz      :     1.013950  p :     3.006685
      px      :     0.980874
      py      :     1.011861
      dz2     :     0.004133  d :     0.072982
      dxz     :     0.021033
      dyz     :     0.021202
      dx2y2   :     0.008309
      dxy     :     0.018306

 11 H s       :     0.903669  s :     0.903669
      pz      :     0.013255  p :     0.043079
      px      :     0.018231
      py      :     0.011593

 12 H s       :     0.921009  s :     0.921009
      pz      :     0.017658  p :     0.044356
      px      :     0.014667
      py      :     0.012031

 13 H s       :     0.913336  s :     0.913336
      pz      :     0.013854  p :     0.043076
      px      :     0.011492
      py      :     0.017729

 14 H s       :     0.912048  s :     0.912048
      pz      :     0.019061  p :     0.040165
      px      :     0.010076
      py      :     0.011028

 15 H s       :     0.910686  s :     0.910686
      pz      :     0.015092  p :     0.042072
      px      :     0.015598
      py      :     0.011382

 16 H s       :     0.913955  s :     0.913955
      pz      :     0.013547  p :     0.044279
      px      :     0.013762
      py      :     0.016970

 17 H s       :     0.903790  s :     0.903790
      pz      :     0.022691  p :     0.042154
      px      :     0.009398
      py      :     0.010065

 18 H s       :     0.908466  s :     0.908466
      pz      :     0.009584  p :     0.042386
      px      :     0.023165
      py      :     0.009638

 19 H s       :     0.918393  s :     0.918393
      pz      :     0.011933  p :     0.043089
      px      :     0.012523
      py      :     0.018633

 20 H s       :     0.913698  s :     0.913698
      pz      :     0.012436  p :     0.041611
      px      :     0.019317
      py      :     0.009858

 21 H s       :     0.911820  s :     0.911820
      pz      :     0.011210  p :     0.043204
      px      :     0.011704
      py      :     0.020290

 22 H s       :     0.905467  s :     0.905467
      pz      :     0.024005  p :     0.043191
      px      :     0.009782
      py      :     0.009404

 23 H s       :     0.920043  s :     0.920043
      pz      :     0.012478  p :     0.043484
      px      :     0.021264
      py      :     0.009741

 24 H s       :     0.924114  s :     0.924114
      pz      :     0.014399  p :     0.044556
      px      :     0.012333
      py      :     0.017824

 25 H s       :     0.900615  s :     0.900615
      pz      :     0.015028  p :     0.042966
      px      :     0.015551
      py      :     0.012387

 26 H s       :     0.915400  s :     0.915400
      pz      :     0.015509  p :     0.043087
      px      :     0.013319
      py      :     0.014259



                     *******************************
                     * LOEWDIN POPULATION ANALYSIS *
                     *******************************

----------------------
LOEWDIN ATOMIC CHARGES
----------------------
   0 C :   -0.098901
   1 C :   -0.071506
   2 C :   -0.045678
   3 C :   -0.071661
   4 C :   -0.054964
   5 C :   -0.088735
   6 C :   -0.066359
   7 C :    0.028845
   8 O :   -0.132399
   9 C :   -0.103640
  10 C :   -0.097802
  11 H :    0.056673
  12 H :    0.048213
  13 H :    0.050785
  14 H :    0.043451
  15 H :    0.048286
  16 H :    0.041400
  17 H :    0.048909
  18 H :    0.053129
  19 H :    0.046756
  20 H :    0.055767
  21 H :    0.052777
  22 H :    0.054288
  23 H :    0.048459
  24 H :    0.045602
  25 H :    0.057089
  26 H :    0.051216

-------------------------------
LOEWDIN REDUCED ORBITAL CHARGES
-------------------------------
  0 C s       :     0.776713  s :     0.776713
      pz      :     1.032004  p :     3.082946
      px      :     1.038726
      py      :     1.012216
      dz2     :     0.020962  d :     0.239241
      dxz     :     0.066786
      dyz     :     0.066149
      dx2y2   :     0.033761
      dxy     :     0.051584

  1 C s       :     0.751572  s :     0.751572
      pz      :     0.971213  p :     2.899390
      px      :     0.958313
      py      :     0.969864
      dz2     :     0.062045  d :     0.420544
      dxz     :     0.104340
      dyz     :     0.088095
      dx2y2   :     0.067173
      dxy     :     0.098893

  2 C s       :     0.758321  s :     0.758321
      pz      :     0.999279  p :     2.906980
      px      :     0.950433
      py      :     0.957268
      dz2     :     0.063695  d :     0.380376
      dxz     :     0.083228
      dyz     :     0.079728
      dx2y2   :     0.062569
      dxy     :     0.091156

  3 C s       :     0.766880  s :     0.766880
      pz      :     1.002056  p :     2.994367
      px      :     0.998999
      py      :     0.993311
      dz2     :     0.039351  d :     0.310414
      dxz     :     0.070220
      dyz     :     0.081362
      dx2y2   :     0.045385
      dxy     :     0.074096

  4 C s       :     0.765075  s :     0.765075
      pz      :     1.024673  p :     2.981029
      px      :     1.024452
      py      :     0.931903
      dz2     :     0.088325  d :     0.308860
      dxz     :     0.029256
      dyz     :     0.058949
      dx2y2   :     0.082201
      dxy     :     0.050130

  5 C s       :     0.740903  s :     0.740903
      pz      :     0.961532  p :     2.896487
      px      :     0.969353
      py      :     0.965602
      dz2     :     0.096600  d :     0.451346
      dxz     :     0.080114
      dyz     :     0.082759
      dx2y2   :     0.105252
      dxy     :     0.086620

  6 C s       :     0.754538  s :     0.754538
      pz      :     0.970840  p :     2.977161
      px      :     1.011283
      py      :     0.995039
      dz2     :     0.059135  d :     0.334660
      dxz     :     0.081703
      dyz     :     0.072392
      dx2y2   :     0.062689
      dxy     :     0.058740

  7 C s       :     0.776499  s :     0.776499
      pz      :     0.844656  p :     2.596971
      px      :     0.975392
      py      :     0.776923
      dz2     :     0.122904  d :     0.597685
      dxz     :     0.160402
      dyz     :     0.106305
      dx2y2   :     0.105480
      dxy     :     0.102594

  8 O s       :     1.529676  s :     1.529676
      pz      :     1.423171  p :     4.527588
      px      :     1.700604
      py      :     1.403813
      dz2     :     0.019038  d :     0.075135
      dxz     :     0.017450
      dyz     :     0.021357
      dx2y2   :     0.008476
      dxy     :     0.008814

  9 C s       :     0.776489  s :     0.776489
      pz      :     1.062856  p :     3.090340
      px      :     1.024119
      py      :     1.003365
      dz2     :     0.063855  d :     0.236812
      dxz     :     0.034790
      dyz     :     0.029294
      dx2y2   :     0.063398
      dxy     :     0.045475

 10 C s       :     0.776932  s :     0.776932
      pz      :     1.037571  p :     3.080101
      px      :     1.004821
      py      :     1.037709
      dz2     :     0.014607  d :     0.240769
      dxz     :     0.067751
      dyz     :     0.069990
      dx2y2   :     0.028849
      dxy     :     0.059571

 11 H s       :     0.798473  s :     0.798473
      pz      :     0.045038  p :     0.144854
      px      :     0.057018
      py      :     0.042799

 12 H s       :     0.804638  s :     0.804638
      pz      :     0.053770  p :     0.147149
      px      :     0.050395
      py      :     0.042984

 13 H s       :     0.804435  s :     0.804435
      pz      :     0.047087  p :     0.144780
      px      :     0.043036
      py      :     0.054657

 14 H s       :     0.810047  s :     0.810047
      pz      :     0.062323  p :     0.146502
      px      :     0.040067
      py      :     0.044112

 15 H s       :     0.805447  s :     0.805447
      pz      :     0.051251  p :     0.146267
      px      :     0.051277
      py      :     0.043739

 16 H s       :     0.807544  s :     0.807544
      pz      :     0.047737  p :     0.151056
      px      :     0.048387
      py      :     0.054932

 17 H s       :     0.805204  s :     0.805204
      pz      :     0.066705  p :     0.145888
      px      :     0.039651
      py      :     0.039531

 18 H s       :     0.802695  s :     0.802695
      pz      :     0.039296  p :     0.144176
      px      :     0.067823
      py      :     0.037057

 19 H s       :     0.806885  s :     0.806885
      pz      :     0.042510  p :     0.146360
      px      :     0.045972
      py      :     0.057878

 20 H s       :     0.803486  s :     0.803486
      pz      :     0.042797  p :     0.140747
      px      :     0.059223
      py      :     0.038728

 21 H s       :     0.803569  s :     0.803569
      pz      :     0.042101  p :     0.143654
      px      :     0.042663
      py      :     0.058890

 22 H s       :     0.800332  s :     0.800332
      pz      :     0.067241  p :     0.145380
      px      :     0.039465
      py      :     0.038674

 23 H s       :     0.806958  s :     0.806958
      pz      :     0.045056  p :     0.144583
      px      :     0.061083
      py      :     0.038444

 24 H s       :     0.805703  s :     0.805703
      pz      :     0.048632  p :     0.148696
      px      :     0.045456
      py      :     0.054607

 25 H s       :     0.798373  s :     0.798373
      pz      :     0.049486  p :     0.144538
      px      :     0.051085
      py      :     0.043967

 26 H s       :     0.803715  s :     0.803715
      pz      :     0.050452  p :     0.145069
      px      :     0.046422
      py      :     0.048195



                      *****************************
                      * MAYER POPULATION ANALYSIS *
                      *****************************

  NA   - Mulliken gross atomic population
  ZA   - Total nuclear charge
  QA   - Mulliken gross atomic charge
  VA   - Mayer's total valence
  BVA  - Mayer's bonded valence
  FA   - Mayer's free valence

  ATOM       NA         ZA         QA         VA         BVA        FA
  0 C      4.0319     4.0000    -0.0319     3.9618     3.9618     0.0000
  1 C      4.2384     4.0000    -0.2384     4.0826     4.0826     0.0000
  2 C      4.0370     4.0000    -0.0370     3.9416     3.9416     0.0000
  3 C      4.0608     4.0000    -0.0608     3.9729     3.9729     0.0000
  4 C      4.0322     4.0000    -0.0322     3.9553     3.9553    -0.0000
  5 C      4.2028     4.0000    -0.2028     4.0698     4.0698    -0.0000
  6 C      4.0213     4.0000    -0.0213     3.9224     3.9224     0.0000
  7 C      3.7052     4.0000     0.2948     3.9417     3.9417     0.0000
  8 O      6.3148     6.0000    -0.3148     2.0664     2.0664    -0.0000
  9 C      4.0386     4.0000    -0.0386     3.9877     3.9877    -0.0000
 10 C      4.0338     4.0000    -0.0338     3.9643     3.9643     0.0000
 11 H      0.9467     1.0000     0.0533     1.0277     1.0277    -0.0000
 12 H      0.9654     1.0000     0.0346     1.0303     1.0303    -0.0000
 13 H      0.9564     1.0000     0.0436     1.0215     1.0215     0.0000
 14 H      0.9522     1.0000     0.0478     1.0226     1.0226     0.0000
 15 H      0.9528     1.0000     0.0472     1.0157     1.0157     0.0000
 16 H      0.9582     1.0000     0.0418     1.0259     1.0259    -0.0000
 17 H      0.9459     1.0000     0.0541     1.0204     1.0204    -0.0000
 18 H      0.9509     1.0000     0.0491     1.0226     1.0226    -0.0000
 19 H      0.9615     1.0000     0.0385     1.0298     1.0298     0.0000
 20 H      0.9553     1.0000     0.0447     1.0279     1.0279     0.0000
 21 H      0.9550     1.0000     0.0450     1.0287     1.0287     0.0000
 22 H      0.9487     1.0000     0.0513     1.0316     1.0316     0.0000
 23 H      0.9635     1.0000     0.0365     1.0235     1.0235    -0.0000
 24 H      0.9687     1.0000     0.0313     1.0341     1.0341     0.0000
 25 H      0.9436     1.0000     0.0564     1.0263     1.0263    -0.0000
 26 H      0.9585     1.0000     0.0415     1.0266     1.0266     0.0000

  Mayer bond orders larger than 0.100000
B(  0-C ,  1-C ) :   1.0054 B(  0-C , 11-H ) :   0.9908 B(  0-C , 12-H ) :   0.9924 
B(  0-C , 13-H ) :   0.9906 B(  1-C ,  2-C ) :   0.9674 B(  1-C ,  7-C ) :   0.9949 
B(  1-C , 10-C ) :   1.0044 B(  2-C ,  3-C ) :   0.9956 B(  2-C ,  6-C ) :   0.9854 
B(  2-C , 14-H ) :   1.0018 B(  3-C ,  4-C ) :   0.9728 B(  3-C , 15-H ) :   1.0026 
B(  3-C , 16-H ) :   1.0038 B(  4-C ,  5-C ) :   0.9714 B(  4-C , 17-H ) :   0.9991 
B(  4-C , 18-H ) :   0.9972 B(  5-C ,  6-C ) :   0.9645 B(  5-C ,  7-C ) :   1.0015 
B(  5-C ,  9-C ) :   1.0405 B(  6-C , 19-H ) :   1.0019 B(  6-C , 20-H ) :   0.9968 
B(  7-C ,  8-O ) :   1.9607 B(  9-C , 21-H ) :   0.9871 B(  9-C , 22-H ) :   0.9849 
B(  9-C , 23-H ) :   0.9895 B( 10-C , 24-H ) :   0.9933 B( 10-C , 25-H ) :   0.9889 
B( 10-C , 26-H ) :   0.9920 

-------
TIMINGS
-------

Total SCF time: 0 days 0 hours 1 min 1 sec 

Total time                  ....      61.411 sec
Sum of individual times     ....      59.106 sec  ( 96.2%)

SCF preparation             ....       2.548 sec  (  4.1%)
Fock matrix formation       ....      55.233 sec  ( 89.9%)
  Startup                   ....       0.327 sec  (  0.6% of F)
  Split-RI-J                ....       1.773 sec  (  3.2% of F)
  Chain of spheres X        ....      26.634 sec  ( 48.2% of F)
  XC integration            ....      25.543 sec  ( 46.2% of F)
    XC Preparation          ....       0.000 sec  (  0.0% of XC)
    Basis function eval.    ....       0.611 sec  (  2.4% of XC)
    Density eval.           ....       0.299 sec  (  1.2% of XC)
    XC-Functional eval.     ....       0.185 sec  (  0.7% of XC)
    XC-Potential eval.      ....       0.374 sec  (  1.5% of XC)
Diagonalization             ....       0.000 sec  (  0.0%)
Density matrix formation    ....       0.280 sec  (  0.5%)
Total Energy calculation    ....       0.254 sec  (  0.4%)
Population analysis         ....       0.062 sec  (  0.1%)
Orbital Transformation      ....       0.057 sec  (  0.1%)
Orbital Orthonormalization  ....       0.000 sec  (  0.0%)
DIIS solution               ....       0.456 sec  (  0.7%)
SOSCF solution              ....       0.217 sec  (  0.4%)
Finished LeanSCF after  61.5 sec

Maximum memory used throughout the entire LEANSCF-calculation: 42.5 MB


           ************************************************************
           *        Program running with 40 parallel MPI-processes    *
           *              working on a common directory               *
           ************************************************************

[...]
 24:    810.31   0.000137    0.69  0.000053  ( 0.000703  0.005737  0.004413)
 25:    855.53   0.000668    3.38  0.000244  ( 0.014109 -0.001555  0.006508)
 26:    874.38   0.000796    4.02  0.000284  (-0.011473 -0.011982  0.002962)
 27:    879.44   0.000342    1.73  0.000121  (-0.000126 -0.007296  0.008257)
 28:    932.20   0.000131    0.66  0.000044  (-0.003912 -0.004525  0.002870)
 29:    937.47   0.000119    0.60  0.000040  (-0.001770  0.002501 -0.005501)
 30:    979.82   0.001440    7.28  0.000459  ( 0.018958  0.008969 -0.004350)
 31:    986.44   0.001129    5.70  0.000357  (-0.015825  0.006379  0.008122)
 32:    992.27   0.000302    1.52  0.000095  (-0.006933  0.004195  0.005406)
 33:   1004.04   0.000917    4.63  0.000285  (-0.016243  0.004101  0.002070)
 34:   1033.23   0.000664    3.36  0.000201  (-0.012459 -0.002320 -0.006329)
 35:   1041.13   0.000564    2.85  0.000169  ( 0.010652  0.000879  0.007394)
 36:   1064.20   0.000288    1.46  0.000084  ( 0.006486  0.005284 -0.003809)
 37:   1073.26   0.008308   41.99  0.002416  ( 0.047284  0.011898 -0.006195)
 38:   1119.74   0.000410    2.07  0.000114  (-0.001866 -0.010137  0.002843)
 39:   1155.96   0.001203    6.08  0.000325  ( 0.013073 -0.003472  0.011906)
 40:   1183.87   0.000616    3.12  0.000162  (-0.006818 -0.006907  0.008264)
 41:   1225.30   0.000421    2.13  0.000107  ( 0.004898  0.008262  0.003866)
 42:   1236.79   0.000255    1.29  0.000064  ( 0.007780  0.000302  0.001932)
 43:   1261.42   0.000099    0.50  0.000024  (-0.004394  0.000104  0.002264)
 44:   1276.86   0.000642    3.25  0.000157  ( 0.007806 -0.004513  0.008698)
 45:   1294.55   0.000161    0.82  0.000039  ( 0.005713  0.002470  0.000435)
 46:   1307.92   0.000577    2.92  0.000138  ( 0.010221  0.004302 -0.003834)
 47:   1316.10   0.000331    1.67  0.000078  ( 0.006097  0.002261 -0.006008)
 48:   1341.79   0.000592    2.99  0.000138  (-0.011061 -0.003499 -0.001776)
 49:   1363.27   0.000943    4.76  0.000216  ( 0.012975 -0.000144 -0.006887)
 50:   1394.53   0.000703    3.55  0.000157  (-0.005618 -0.009695  0.005633)
 51:   1412.76   0.000714    3.61  0.000158  (-0.011092 -0.003988  0.004332)
 52:   1430.00   0.001696    8.57  0.000370  ( 0.004330 -0.013131 -0.013379)
 53:   1449.62   0.003137   15.85  0.000675  (-0.024838 -0.007086 -0.002840)
 54:   1456.03   0.001547    7.82  0.000332  (-0.007253  0.014338 -0.008569)
 55:   1509.09   0.000366    1.85  0.000076  (-0.005082  0.005613  0.004295)
 56:   1515.30   0.000504    2.55  0.000104  (-0.003882  0.008095 -0.004827)
 57:   1517.27   0.001453    7.34  0.000299  (-0.004159  0.008002  0.014746)
 58:   1522.69   0.001686    8.52  0.000346  (-0.005986  0.004602 -0.016988)
 59:   1528.61   0.001994   10.08  0.000407  ( 0.017169 -0.001283 -0.010523)
 60:   1531.25   0.000955    4.83  0.000195  ( 0.011082 -0.007702 -0.003538)
 61:   1539.58   0.003123   15.78  0.000633  ( 0.004270  0.023954  0.006408)
 62:   1544.37   0.002836   14.33  0.000573  (-0.011310  0.003516 -0.020804)
 63:   1565.31   0.002194   11.09  0.000437  ( 0.020157 -0.002018 -0.005190)
 64:   1893.11   0.046497  234.97  0.007665  (-0.028674  0.051429 -0.064787)
 65:   3104.56   0.005634   28.47  0.000566  (-0.004119 -0.020280 -0.011752)
 66:   3104.90   0.004647   23.48  0.000467  (-0.017411 -0.010245  0.007678)
 67:   3107.39   0.005389   27.23  0.000541  ( 0.022594  0.004757 -0.002842)
 68:   3117.50   0.005752   29.07  0.000576  (-0.015872 -0.003695  0.017612)
 69:   3124.49   0.005764   29.13  0.000576  (-0.010315 -0.014453 -0.016136)
 70:   3133.12   0.006805   34.39  0.000678  ( 0.016726 -0.019873 -0.001760)
 71:   3157.52   0.007743   39.13  0.000765  ( 0.005091  0.015294 -0.022482)
 72:   3172.74   0.001447    7.31  0.000142  ( 0.007099 -0.004215  0.008611)
 73:   3186.44   0.002684   13.57  0.000263  ( 0.013957 -0.007657 -0.003073)
 74:   3195.48   0.002125   10.74  0.000207  ( 0.011773  0.008094 -0.001833)
 75:   3197.06   0.002764   13.97  0.000270  ( 0.014955 -0.006246  0.002668)
 76:   3197.84   0.002636   13.32  0.000257  ( 0.008254  0.012509  0.005715)
 77:   3200.08   0.003683   18.61  0.000359  ( 0.006584 -0.011153  0.013834)
 78:   3203.21   0.001499    7.58  0.000146  (-0.002030  0.005889  0.010358)
 79:   3211.20   0.003882   19.62  0.000377  ( 0.006751 -0.012735 -0.013019)
 80:   3213.21   0.001983   10.02  0.000193  ( 0.010044  0.005635  0.007745)

* The epsilon (eps) is given for a Dirac delta lineshape.
** The dipole moment derivative (T) already includes vibrational overlap.

The first frequency considered to be a vibration is 6
The total number of vibrations considered is 75


--------------------------
THERMOCHEMISTRY AT 298.15K
--------------------------

Temperature         ...   298.15 K
Pressure            ...     1.00 atm
Total Mass          ...   152.24 AMU
Quasi RRHO          ...     True
Cut-Off Frequency   ...     1.00 cm^-1

Throughout the following assumptions are being made:
  (1) The electronic state is orbitally nondegenerate
  (2) There are no thermally accessible electronically excited states
  (3) Hindered rotations indicated by low frequency modes are not
      treated as such but are treated as vibrations and this may
      cause some error
  (4) All equations used are the standard statistical mechanics
      equations for an ideal gas
  (5) All vibrations are strictly harmonic

freq.      88.37  E(vib)   ...       0.48 
freq.     186.84  E(vib)   ...       0.37 
freq.     194.88  E(vib)   ...       0.36 
freq.     205.29  E(vib)   ...       0.35 
freq.     215.35  E(vib)   ...       0.34 
freq.     234.14  E(vib)   ...       0.32 
freq.     266.69  E(vib)   ...       0.29 
freq.     300.95  E(vib)   ...       0.26 
freq.     309.46  E(vib)   ...       0.26 
freq.     335.82  E(vib)   ...       0.24 
freq.     382.30  E(vib)   ...       0.21 
freq.     434.57  E(vib)   ...       0.17 
freq.     459.98  E(vib)   ...       0.16 
freq.     524.84  E(vib)   ...       0.13 
freq.     540.28  E(vib)   ...       0.12 
freq.     620.29  E(vib)   ...       0.09 
freq.     687.63  E(vib)   ...       0.07 
freq.     751.93  E(vib)   ...       0.06 
freq.     810.31  E(vib)   ...       0.05 
freq.     855.53  E(vib)   ...       0.04 
freq.     874.38  E(vib)   ...       0.04 
freq.     879.44  E(vib)   ...       0.04 
freq.     932.20  E(vib)   ...       0.03 
freq.     937.47  E(vib)   ...       0.03 
freq.     979.82  E(vib)   ...       0.02 
freq.     986.44  E(vib)   ...       0.02 
freq.     992.27  E(vib)   ...       0.02 
freq.    1004.04  E(vib)   ...       0.02 
freq.    1033.23  E(vib)   ...       0.02 
freq.    1041.13  E(vib)   ...       0.02 
freq.    1064.20  E(vib)   ...       0.02 
freq.    1073.26  E(vib)   ...       0.02 
freq.    1119.74  E(vib)   ...       0.01 
freq.    1155.96  E(vib)   ...       0.01 
freq.    1183.87  E(vib)   ...       0.01 
freq.    1225.30  E(vib)   ...       0.01 
freq.    1236.79  E(vib)   ...       0.01 
freq.    1261.42  E(vib)   ...       0.01 
freq.    1276.86  E(vib)   ...       0.01 
freq.    1294.55  E(vib)   ...       0.01 
freq.    1307.92  E(vib)   ...       0.01 
freq.    1316.10  E(vib)   ...       0.01 
freq.    1341.79  E(vib)   ...       0.01 
freq.    1363.27  E(vib)   ...       0.01 
freq.    1394.53  E(vib)   ...       0.00 
freq.    1412.76  E(vib)   ...       0.00 
freq.    1430.00  E(vib)   ...       0.00 
freq.    1449.62  E(vib)   ...       0.00 
freq.    1456.03  E(vib)   ...       0.00 
freq.    1509.09  E(vib)   ...       0.00 
freq.    1515.30  E(vib)   ...       0.00 
freq.    1517.27  E(vib)   ...       0.00 
freq.    1522.69  E(vib)   ...       0.00 
freq.    1528.61  E(vib)   ...       0.00 
freq.    1531.25  E(vib)   ...       0.00 
freq.    1539.58  E(vib)   ...       0.00 
freq.    1544.37  E(vib)   ...       0.00 
freq.    1565.31  E(vib)   ...       0.00 
freq.    1893.11  E(vib)   ...       0.00 
freq.    3104.56  E(vib)   ...       0.00 
freq.    3104.90  E(vib)   ...       0.00 
freq.    3107.39  E(vib)   ...       0.00 
freq.    3117.50  E(vib)   ...       0.00 
freq.    3124.49  E(vib)   ...       0.00 
freq.    3133.12  E(vib)   ...       0.00 
freq.    3157.52  E(vib)   ...       0.00 
freq.    3172.74  E(vib)   ...       0.00 
freq.    3186.44  E(vib)   ...       0.00 
freq.    3195.48  E(vib)   ...       0.00 
freq.    3197.06  E(vib)   ...       0.00 
freq.    3197.84  E(vib)   ...       0.00 
freq.    3200.08  E(vib)   ...       0.00 
freq.    3203.21  E(vib)   ...       0.00 
freq.    3211.20  E(vib)   ...       0.00 
freq.    3213.21  E(vib)   ...       0.00 

------------
INNER ENERGY
------------

The inner energy is: U= E(el) + E(ZPE) + E(vib) + E(rot) + E(trans)
    E(el)   - is the total energy from the electronic structure calculation
              = E(kin-el) + E(nuc-el) + E(el-el) + E(nuc-nuc)
    E(ZPE)  - the the zero temperature vibrational energy from the frequency calculation
    E(vib)  - the the finite temperature correction to E(ZPE) due to population
              of excited vibrational states
    E(rot)  - is the rotational thermal energy
    E(trans)- is the translational thermal energy

Summary of contributions to the inner energy U:
Electronic energy                ...    -82.70512027 Eh
Zero point energy                ...      0.24768959 Eh     155.43 kcal/mol
Thermal vibrational correction   ...      0.00766189 Eh       4.81 kcal/mol
Thermal rotational correction    ...      0.00141627 Eh       0.89 kcal/mol
Thermal translational correction ...      0.00141627 Eh       0.89 kcal/mol
-----------------------------------------------------------------------
Total thermal energy                    -82.44693625 Eh


Summary of corrections to the electronic energy:
(perhaps to be used in another calculation)
Total thermal correction                  0.01049443 Eh       6.59 kcal/mol
Non-thermal (ZPE) correction              0.24768959 Eh     155.43 kcal/mol
-----------------------------------------------------------------------
Total correction                          0.25818402 Eh     162.01 kcal/mol


--------
ENTHALPY
--------

The enthalpy is H = U + kB*T
                kB is Boltzmann's constant
Total thermal energy              ...    -82.44693625 Eh 
Thermal Enthalpy correction       ...      0.00094421 Eh       0.59 kcal/mol
-----------------------------------------------------------------------
Total Enthalpy                    ...    -82.44599204 Eh


Note: Only C1 symmetry has been detected, increase convergence thresholds 
      if your molecule has a higher symmetry. Symmetry factor of 1.0 is   
      used for the rotational entropy correction. 
 

Note: Rotational entropy computed according to Herzberg 
Infrared and Raman Spectra, Chapter V,1, Van Nostrand Reinhold, 1945 
Point Group:  C1, Symmetry Number:   1  
Rotational constants in cm-1:     0.052670     0.039537     0.032531 

Vibrational entropy computed according to the QRRHO of S. Grimme
Chem.Eur.J. 2012 18 9955 using a reference frequency of 100.0 cm-1


-------
ENTROPY
-------

The entropy contributions are T*S = T*(S(el)+S(vib)+S(rot)+S(trans))
     S(el)   - electronic entropy
     S(vib)  - vibrational entropy
     S(rot)  - rotational entropy
     S(trans)- translational entropy
The entropies will be listed as multiplied by the temperature to get
units of energy

Electronic entropy                ...      0.00000000 Eh      0.00 kcal/mol
Vibrational entropy               ...      0.01247964 Eh      7.83 kcal/mol
Rotational entropy                ...      0.01404277 Eh      8.81 kcal/mol
Translational entropy             ...      0.01946646 Eh     12.22 kcal/mol
-----------------------------------------------------------------------
Final entropy term                ...      0.04598887 Eh     28.86 kcal/mol

In case the symmetry of your molecule has not been determined correctly
or in case you have a reason to use a different symmetry number we print 
out the resulting rotational entropy values for sn=1,12:

 non-linear molecules -----------------------------------
|  sn= 1 | S(rot)=       0.01404277 Eh      8.81 kcal/mol|
|  sn= 2 | S(rot)=       0.01338832 Eh      8.40 kcal/mol|
|  sn= 3 | S(rot)=       0.01300549 Eh      8.16 kcal/mol|
|  sn= 4 | S(rot)=       0.01273386 Eh      7.99 kcal/mol|
|  sn= 5 | S(rot)=       0.01252317 Eh      7.86 kcal/mol|
|  sn= 6 | S(rot)=       0.01235103 Eh      7.75 kcal/mol|
|  sn= 7 | S(rot)=       0.01220548 Eh      7.66 kcal/mol|
|  sn= 8 | S(rot)=       0.01207940 Eh      7.58 kcal/mol|
|  sn= 9 | S(rot)=       0.01196820 Eh      7.51 kcal/mol|
|  sn=10 | S(rot)=       0.01186872 Eh      7.45 kcal/mol|
|  sn=11 | S(rot)=       0.01177873 Eh      7.39 kcal/mol|
|  sn=12 | S(rot)=       0.01169657 Eh      7.34 kcal/mol|
 linear molecules ---------------------------------------
|  Dinfh | S(rot)=       0.00856016 Eh      5.37 kcal/mol|
|  Cinfv | S(rot)=       0.00921461 Eh      5.78 kcal/mol|
 --------------------------------------------------------


-------------------
GIBBS FREE ENERGY
-------------------

The Gibbs free energy is G = H - T*S

Total enthalpy                    ...    -82.44599204 Eh 
Total entropy correction          ...     -0.04598887 Eh    -28.86 kcal/mol
-----------------------------------------------------------------------
Final Gibbs free energy         ...    -82.49198091 Eh

For completeness - the Gibbs free energy minus the electronic energy
G-E(el)                           ...      0.21313936 Eh    133.75 kcal/mol


Maximum memory used throughout the entire PROP-calculation: 127.9 MB

--------------------------------
SUGGESTED CITATIONS FOR THIS RUN
--------------------------------

Below you find a list of papers that are relevant to this ORCA run
We neither can nor want to force you to cite these papers, but we appreciate if you do
You receive ORCA, which is the product of decades of hard work by many enthusiastic individuals, for free
The only thing we kindly ask in return is that you cite our papers,
We deeply appreciate it, if you show your appreciation for ORCA by not just citing the generic ORCA reference.

Please note that relegating all ORCA citations to the supporting information does *not* help us.
SI sections are not indexed - citations you put there will not count into any citation statistics
But we need these citations in order to attract the funding resources that allow us to do what we are doing

Therefore, if you are a happy ORCA user, please consider citing a few of the papers listed below in the main body of your paper

In addition to the list printed below, the program has created the file ./output/fenchone/fenchone.bibtex that contains the list in bibtex format
You can import this file easily into all common literature databanks and citation aid programs


List of essential papers. We consider these as the minimum necessary citations

  1. Neese,F.
     Software update: the ORCA program system, version 5.0
     WIRES Comput. Molec. Sci., 2022 12(1)e1606
     doi.org/10.1002/wcms.1606
  2. Mueller,M.; Hansen,A.; Grimme,S.
     wB97X-3c: A composite range-separated hybrid DFT method with a molecule-optimized polarized valence double-zeta basis set
     J. Chem. Phys., 2023 158 014103
     doi.org/10.1063/5.0133026

List of papers to cite with high priority. The work reported in these papers was absolutely
necessary for this run to complete.
Our perspective: the developers of density functionals and basis sets usually get cited in chemistry papers
Good! But without the algorithms to do something with them, the functionals or basis sets would not do anything.
Hence, in our opinion, the algorithm design and method developments papers are equally worthy of getting cited

  1. Neese,F.
     An improvement of the resolution of the identity approximation for the formation of the Coulomb matrix
     J. Comp. Chem., 2003 24(14)1740-1747
     doi.org/10.1002/jcc.10318
  2. Neese,F.; Wennmohs,F.; Hansen,A.; Becker,U.
     Efficient, approximate and parallel Hartree-Fock and hybrid DFT calculations. A 'chain-of-spheres' algorithm for the Hartree-Fock exchange
     Chem. Phys., 2009 356(1-3)98-109
     doi.org/10.1016/j.chemphys.2008.10.036
  3. Bykov,D.; Petrenko,T.; Izsak,R.; Kossmann,S.; Becker,U.; Valeev,E.; Neese,F.
     Efficient implementation of the analytic second derivatives of Hartree-Fock and hybrid DFT energies: a detailed analysis of different approximations
     Molec. Phys., 2015 113 1961-1977
     doi.org/10.1080/00268976.2015.1025114
  4. Helmich-Paris,B.; de Souza,B.; Neese,F.; Izsák,R.
     An improved chain of spheres for exchange algorithm
     J. Chem. Phys., 2021 155 104109
     doi.org/doi: 10.1063/5.0058766.
  5. Neese,F.
     The SHARK Integral Generation and Digestion System
     J. Comp. Chem., 2022  1-16
     doi.org/10.1002/jcc.26942
  6. Caldeweyher,E.; Bannwarth,C.; Grimme,S.
     Extension of the D3 dispersion coefficient model
     J. Chem. Phys., 2017 147 034112
     doi.org/10.1063/1.4993215
  7. Caldeweyher,E.; Ehlert,S.; Hansen,A.; Neugebauer,H.; Spicher,S.; Bannwarth,C.; Grimme,S.
     A generally applicable atomic-charge dependent London dispersion correction
     J. Chem. Phys., 2019 150 154122
     doi.org/10.1063/1.5090222
  8. Caldeweyher,E.; Mewes,J.; Ehlert,S.; Grimme,S.
     Extension and evaluation of the D4 London-dispersion model for periodic systems
     Phys. Chem. Chem. Phys., 2020 22(16)8499-8512
     doi.org/10.1039/D0CP00502A
  9. Wittmann,L.; Gordiy,I.; Friede,M.; Helmich-Paris,B.; Grimme,S.; Hansen,A.; Bursch,M.
     Extension of the D3 and D4 London Dispersion Corrections to the full Actinides Series
     Phys. Chem. Chem. Phys., 2024 26(32)21379-21394
     doi.org/https://doi.org/10.1039/D4CP01514B 

List of suggested additional citations. These are papers that are important in the 'surrounding' of 
of this run, or papers that preceded the highly important papers. If you like your results we are grateful for a citation.

  1. Izsak,R.; Neese,F.
     An overlap fitted chain of spheres exchange method
     J. Chem. Phys., 2011 135 144105
     doi.org/10.1063/1.3646921
  2. Izsak,R.; Hansen,A.; Neese,F.
     The resolution of identity and chain of spheres approximations for the LPNO-CCSD singles Fock term
     Molec. Phys., 2012 110 2413-2417
     doi.org/10.1080/00268976.2012.687466
  3. Neese,F.
     The ORCA program system
     WIRES Comput. Molec. Sci., 2012 2(1)73-78
     doi.org/10.1002/wcms.81
  4. Izsak,R.; Neese,F.; Klopper,W.
     Robust fitting techniques in the chain of spheres approximation to the Fock exchange: The role of the complementary space
     J. Chem. Phys., 2013 139 
     doi.org/10.1063/1.4819264
  5. Neese,F.
     Software update: the ORCA program system, version 4.0
     WIRES Comput. Molec. Sci., 2018 8(1)1-6
     doi.org/10.1002/wcms.1327
  6. Neese,F.; Wennmohs,F.; Becker,U.; Riplinger,C.
     The ORCA quantum chemistry program package
     J. Chem. Phys., 2020 152 Art. No. L224108
     doi.org/10.1063/5.0004608

List of optional additional citations

  1. Neese,F.
     Approximate second-order SCF convergence for spin unrestricted wavefunctions
     Chem. Phys. Lett., 2000 325(1-3)93-98
     doi.org/10.1016/s0009-2614(00)00662-x

Timings for individual modules:

Sum of individual times          ...      684.257 sec (=  11.404 min)
Startup calculation              ...       30.681 sec (=   0.511 min)   4.5 %
SCF iterations                   ...      374.960 sec (=   6.249 min)  54.8 %
Property integrals               ...       56.895 sec (=   0.948 min)   8.3 %
SCF Response                     ...       41.311 sec (=   0.689 min)   6.0 %
Property calculations            ...      104.134 sec (=   1.736 min)  15.2 %
SCF Gradient evaluation          ...       76.113 sec (=   1.269 min)  11.1 %
Geometry relaxation              ...        0.162 sec (=   0.003 min)   0.0 %
                             ****ORCA TERMINATED NORMALLY****
TOTAL RUN TIME: 0 days 0 hours 11 minutes 28 seconds 265 msec
