
                                 *****************
                                 * O   R   C   A *
                                 *****************

                                            #,                                       
                                            ###                                      
                                            ####                                     
                                            #####                                    
                                            ######                                   
                                           ########,                                 
                                     ,,################,,,,,                         
                               ,,#################################,,                 
                          ,,##########################################,,             
                       ,#########################################, ''#####,          
                    ,#############################################,,   '####,        
                  ,##################################################,,,,####,       
                ,###########''''           ''''###############################       
              ,#####''   ,,,,##########,,,,          '''####'''          '####       
            ,##' ,,,,###########################,,,                        '##       
           ' ,,###''''                  '''############,,,                           
         ,,##''                                '''############,,,,        ,,,,,,###''
      ,#''                                            '''#######################'''  
     '                                                          ''''####''''         
             ,#######,   #######,   ,#######,      ##                                
            ,#'     '#,  ##    ##  ,#'     '#,    #''#        ,####,   ,####,        
            ##       ##  ##   ,#'  ##            #'  '#       #'       #'  '#        
            ##       ##  #######   ##           ,######,      #####,   #    #        
            '#,     ,#'  ##    ##  '#,     ,#' ,#      #,     #,   #   #,  ,#        
             '#######'   ##     ##  '#######'  #'      '#     '####' # '####'        



                #########################################################
                #                        -***-                          #
                #          Department of theory and spectroscopy        #
                #                                                       #
                #                      Frank Neese                      #
                #                                                       #
                #     Directorship, Architecture, Infrastructure        #
                #                    SHARK, DRIVERS                     #
                #        Core code/Algorithms in most modules           #
                #                                                       #
                #        Max Planck Institute fuer Kohlenforschung      #
                #                Kaiser Wilhelm Platz 1                 #
                #                 D-45470 Muelheim/Ruhr                 #
                #                      Germany                          #
                #                                                       #
                #                  All rights reserved                  #
                #                        -***-                          #
                #########################################################


                         Program Version 6.0.1  -  RELEASE   -


 With contributions from (in alphabetic order):
[Max-Planck-Institut fuer Kohlenforschung]                               
  Daniel Aravena         : Magnetic Suceptibility                        
  Michael Atanasov       : Ab Initio Ligand Field Theory (pilot matlab implementation)
  Alexander A. Auer      : GIAO ZORA, VPT2 properties, NMR spectrum      
  Ute Becker             : All parallelization in ORCA, NUMFREQ, NUMCALC 
  Giovanni Bistoni       : ED, misc. LED, open-shell LED, HFLD           
  Martin Brehm           : Molecular dynamics                            
  Dmytro Bykov           : pre 5.0 version of the SCF Hessian            
  Marcos Casanova-Páez   : Triplet and SCS-CIS(D). UHF-(DLPNO)-IP/EA/STEOM-CCSD. UHF-CVS-IP/STEOM-CCSD   
  Vijay G. Chilkuri      : MRCI spin determinant printing, contributions to CSF-ICE 
  Pauline Colinet        : FMM embedding                                 
  Dipayan Datta          : RHF DLPNO-CCSD density                        
  Achintya Kumar Dutta   : EOM-CC, STEOM-CC                              
  Nicolas Foglia         : Exact transition moments, OPA infrastructure, MCD improvements    
  Dmitry Ganyushin       : Spin-Orbit,Spin-Spin,Magnetic field MRCI      
  Miquel Garcia-Rates    : C-PCM and meta-GGA Hessian, CCSD/C-PCM, Gaussian charge scheme 
  Tiago L. C. Gouveia    : GS-ROHF, GS-ROCIS                             
  Yang Guo               : DLPNO-NEVPT2, F12-NEVPT2, CIM, IAO-localization        
  Andreas Hansen         : Spin unrestricted coupled pair/coupled cluster methods 
  Ingolf Harden          : AUTO-CI MPn and infrastructure                
  Benjamin Helmich-Paris : MC-RPA, TRAH-(SCF,CASSCF), AVAS, COSX integrals, SCF dyn. polar. 
  Lee Huntington         : MR-EOM, pCC                                   
  Robert Izsak           : Overlap fitted RIJCOSX, COSX-SCS-MP3, EOM     
  Riya Kayal             : Wick's Theorem for AUTO-CI, AUTO-CI UHF-CCSDT 
  Emily Kempfer          : AUTO-CI, RHF CISDT and CCSDT                  
  Christian Kollmar      : KDIIS, OOCD, Brueckner-CCSD(T), CCSD density, CASPT2, CASPT2-K, improved NEVPT2 
  Axel Koslowski         : Symmetry handling                             
  Simone Kossmann        : meta-GGA functionals, TD-DFT gradient, OOMP2, (MP2 Hessian; deprecated post 5.0) 
  Lucas Lang             : DCDCAS                                        
  Marvin Lechner         : AUTO-CI (C++ implementation), FIC-MRCC        
  Spencer Leger          : CASSCF response                               
  Dagmar Lenk            : GEPOL surface, SMD, ORCA-2-JSON               
  Dimitrios Liakos       : Extrapolation schemes; Compound Job, initial MDCI parallelization 
  Dimitrios Manganas     : Further ROCIS development; embedding schemes. LFT, Crystal Embedding 
  Dimitrios Pantazis     : SARC Basis sets                               
  Anastasios Papadopoulos: AUTO-CI, single reference methods and gradients 
  Taras Petrenko         : pre 6.0 DFT Hessian and TD-DFT gradient, (ASA, deprecated), ECA, 1-Electron XAS/XES, NRVS 
  Peter Pinski           : DLPNO-MP2, DLPNO-MP2 Gradient                 
  Christoph Reimann      : Effective Core Potentials                     
  Marius Retegan         : Local ZFS, SOC                                
  Christoph Riplinger    : Optimizer, TS searches, QM/MM, DLPNO-CCSD(T), (RO)-DLPNO pert. Triples 
  Michael Roemelt        : Original ROCIS implementation                 
  Masaaki Saitow         : Open-shell DLPNO-CCSD energy and density      
  Barbara Sandhoefer     : DKH picture change effects                    
  Kantharuban Sivalingam : CASSCF convergence/infrastructure, NEVPT2 and variants, FIC-MRCI 
  Bernardo de Souza      : ESD, SOC TD-DFT                               
  Georgi L. Stoychev     : AutoAux, RI-MP2 NMR, DLPNO-MP2 response, X2C  
  Van Anh Tran           : RI-MP2 g-tensors                              
  Willem Van den Heuvel  : Paramagnetic NMR                              
  Zikuan Wang            : NOTCH, Electric field optimization            
  Frank Wennmohs         : Technical directorship and infrastructure     
  Hang Xu                : AUTO-CI-Response properties                   
                                                                         
[FACCTs GmbH]                                                            
  Markus Bursch, Miquel Garcia-Rates, Christoph Riplinger, Bernardo de Souza, Georgi L. Stoychev 
                                                                 
  APM, Basis sets (HGBS, AHGBS, def-TZVP (Ac-Lr), def2-XVPD (La-Lu)), CI-OPT, improved COSX, DLPNO-Multilevel,           
  DOCKER, DRACO, updates on ESD, GOAT, IRC, LR-CPCM, MBIS, meta-GGA TD-DFT gradient, ML-optimized integration grids, 
  MM, NACMEs, nearIR, NEB, NEB-TS, NL-DFT gradient (VV10), 2- and 3-layer-ONIOM, interface openCOSMO-RS, QMMM,   
  Crystal-QMMM, SF, symmetry and pop. for TD-DFT, r2SCAN hybrids, SOLVATOR                                   
                                                                         
[Other institutions]                                                     
  V. Asgeirsson          : NEB                                           
  Christoph Bannwarth    : sTDA-DFT, sTD-DFT, PBEh-3c, B97-3c, D3        
  Sebastian Ehlert       : rSCAN, r2SCAN, r2SCAN-3c, D4, dhf basis sets  
  Marvin Friede          : D4 for Fr, Ra, Ac-Lr                          
  Lars Goerigk           : TD-DFT with DH, B97 family of functionals     
  Stefan Grimme          : VdW corrections, initial TS optimization, DFT functionals, gCP, sTDA/sTD-DF 
  Waldemar Hujo          : DFT-NL                                        
  H. Jonsson             : NEB                                           
  Holger Kruse           : gCP                                           
  Marcel Mueller         : wB97X-3c, vDZP basis set                      
  Hagen Neugebauer       : wr2SCAN                                       
  Tobias Risthaus        : range-separated hybrid DFT                    
  Lukas Wittmann         : regularized MP2, r2SCAN double-hybrids, wr2SCAN        
                                                                         
We gratefully acknowledge several colleagues who have allowed us to      
interface, adapt or use parts of their codes:                            
  Ed Valeev, F. Pavosevic, A. Kumar             : LibInt (2-el integral package), F12 methods 
  Garnet Chan, S. Sharma, J. Yang, R. Olivares  : DMRG                   
  Ulf Ekstrom                                   : XCFun DFT Library      
  Mihaly Kallay                                 : mrcc  (arbitrary order and MRCC methods)
  Frank Weinhold                                : gennbo (NPA and NBO analysis)           
  Simon Mueller                                 : openCOSMO-RS                            
  Christopher J. Cramer and Donald G. Truhlar   : smd solvation model                     
  S Lehtola, MJT Oliveira, MAL Marques          : LibXC Library                           
  Liviu Ungur et al                             : ANISO software                          


 Your calculation uses the libint2 library for the computation of 2-el integrals
 For citations please refer to: http://libint.valeyev.net

 Your ORCA version has been built with support for libXC version: 6.2.2
 For citations please refer to: https://libxc.gitlab.io

 This ORCA versions uses:
   CBLAS   interface :  Fast vector & matrix operations
   LAPACKE interface :  Fast linear algebra routines
   SCALAPACK package :  Parallel linear algebra routines
   Shared memory     :  Shared parallel matrices
   BLAS/LAPACK       :  OpenBLAS 0.3.27  USE64BITINT DYNAMIC_ARCH NO_AFFINITY SkylakeX SINGLE_THREADED
        Core in use  :  SkylakeX
   Copyright (c) 2011-2014, The OpenBLAS Project


Your calculation utilizes the atom-pairwise dispersion correction
based on EEQ partial charges (D4)


================================================================================

cite the ECPs for C  [vDZP-ECP], N  [vDZP-ECP], S  [vDZP-ECP] as follows:
   B-Ne (ecp-2-mwb), Al-Ar (ecp-10-mwb), Ga-Kr (ecp-28-mwb), Y-Cd (ecp-28-mwb), In-Xe (ecp-46-mwb):
     A. Bergner, M. Dolg, W. Küchle, H. Stoll, and H. Preuß, Mol. Phys. 80, 1431 (1993)., T. Leininger, A. Berning, A. Nicklass, H. Stoll, H.-J. Werner, and H.-J.Flad, Chem. Phys. 217, 19 (1997).
   Na-Mg, K-Ca, Rb-Sr, Cs-Ba (CRENBL):
     L. Fernandez Pacios and P. A. Christiansen, J. Chem. Phys. 82, 2664 (1985)., M. M. Hurley, L. F. Pacios, P. A. Christiansen, R. B. Ross, and W. C. Ermler, J. Chem. Phys. 84, 6840 (1986)., L. A. LaJohn, P. A. Christiansen, R. B. Ross, T. Atashroo, and W. C. Ermler, J. Chem. Phys. 87, 2812 (1987)., R. B. Ross, J. M. Powers, T. Atashroo, W. C. Ermler, L. A. LaJohn, and P. A. Christiansen, J. Chem. Phys. 93, 6654 (1990). 
   Sc-Zn (ecp-10-mdf):
     M. Dolg, U. Wedig, H. Stoll, and H. Preuss, J. Chem. Phys. 86, 866 (1986). 
   Y-Cd (ecp-28-mwb), Hf-Hg (ecp-60-mwb):
     D. Andrae, U. Häußermann, M. Dolg, H. Stoll, and H. Preuß, Theor. Chim. Acta 77, 123 (1990). 
   La (ecp-46-mwb):
     M. Dolg, H. Stoll, and H. Preuss, J. Chem. Phys. 90, 1730 (1989)., M. Dolg, H. Stoll, and H. Preuss, Theor. Chim. Acta 85, 441 (1993).
   Ce-Lu (SBKJC-ecp):
     T. R. Cundari and W. J. Stevens, J. Chem. Phys. 98, 5555 (1993).
   Tl-Rn (ecp-78-mwb):
     W. Küchle, M. Dolg, H. Stoll, and H. Preuss, Mol. Phys. 74, 1245 (1991).

ECP parameters for C  [vDZP-ECP], N  [vDZP-ECP], S  [vDZP-ECP] have been obtained from:
MM, AH, SG, J. Chem. Phys. 158, 014103 (2023), 10.1063/5.0133026

----- Orbital basis set information -----
Your calculation utilizes the basis: vDZP
   Marcel Mueller, Andreas Hansen, Stefan Grimme 
   J. Chem. Phys. 158, 014103 (2023). DOI: 10.1063/5.0133026

----- AuxJ basis set information -----
Your calculation utilizes the auxiliary basis: def2/J
   F. Weigend, Phys. Chem. Chem. Phys. 8, 1057 (2006).

================================================================================
                                        WARNINGS
                       Please study these warnings very carefully!
================================================================================

WARNING: Frozen-Core approximation turned on, but there are no core electrons.
  ===> : Turning off frozen-core approximation


WARNING: Geometry Optimization
  ===> : Switching off AutoStart
         For restart on a previous wavefunction, please use MOREAD

================================================================================
                                       INPUT FILE
================================================================================
NAME = ./output/allyl_isothiocyanate/allyl_isothiocyanate.inp
|  1> ! wB97X-3c OPT FREQ TightSCF
|  2> %pal
|  3>   nprocs 40
|  4> end
|  5> * xyz 0 1
|  6> C     -1.322264     0.811578     0.009483
|  7> C     -0.837381    -0.261631     0.640316
|  8> C      0.258317    -1.102320     0.043710
|  9> N      1.563402    -0.483442     0.250457
| 10> C      1.925128     0.559575    -0.383216
| 11> S      2.380997     1.880324    -1.185557
| 12> H     -2.114885     1.396551     0.464443
| 13> H     -0.938247     1.111305    -0.960873
| 14> H     -1.249982    -0.540266     1.605538
| 15> H      0.257343    -2.087712     0.554896
| 16> H      0.077573    -1.283962    -1.039198
| 17> *
| 18> 
| 19>                          ****END OF INPUT****
================================================================================

                       *****************************
                       * Geometry Optimization Run *
                       *****************************

Geometry optimization settings:
Update method            Update   .... BFGS
Choice of coordinates    CoordSys .... (2022) Redundant Internals
Initial Hessian          InHess   .... Almloef's Model
Max. no of cycles        MaxIter  .... 50

Convergence Tolerances:
Energy Change            TolE     ....  5.0000e-06 Eh
Max. Gradient            TolMAXG  ....  3.0000e-04 Eh/bohr
RMS Gradient             TolRMSG  ....  1.0000e-04 Eh/bohr
Max. Displacement        TolMAXD  ....  4.0000e-03 bohr
RMS Displacement         TolRMSD  ....  2.0000e-03 bohr
Strict Convergence                .... False

------------------------------------------------------------------------------
                        ORCA OPTIMIZATION COORDINATE SETUP
------------------------------------------------------------------------------

The optimization will be done in redundant internal coordinates (2022)
Making redundant internal coordinates   ...  (2022 redundants) done
Evaluating the initial hessian          ...  (Almloef) done
Evaluating the coordinates              ...  done
Calculating the B-matrix                .... done
Calculating the G-matrix                .... done
Diagonalizing the G-matrix              .... done
Small eigenvalue found = 2.429e-02
The first mode is                       ....   10
The number of degrees of freedom        ....   27

    -----------------------------------------------------------------
                    Redundant Internal Coordinates


    -----------------------------------------------------------------
         Definition                    Initial Value    Approx d2E/dq
    -----------------------------------------------------------------
      1. B(C   1,C   0)                  1.3360         0.761949   
      2. B(C   2,C   1)                  1.5044         0.410397   
      3. B(N   3,C   2)                  1.4591         0.434126   
      4. B(C   4,N   3)                  1.2729         0.860405   
      5. B(S   5,C   4)                  1.6112         0.747491   
      6. B(H   6,C   0)                  1.0851         0.366648   
      7. B(H   7,C   0)                  1.0858         0.365740   
      8. B(H   8,C   1)                  1.0861         0.365347   
      9. B(H   9,C   2)                  1.1101         0.334475   
     10. B(H  10,C   2)                  1.1128         0.331152   
     11. A(C   1,C   0,H   6)          120.0133         0.366645   
     12. A(H   6,C   0,H   7)          118.9631         0.292378   
     13. A(C   1,C   0,H   7)          121.0232         0.366490   
     14. A(C   2,C   1,H   8)          119.0632         0.330168   
     15. A(C   0,C   1,H   8)          119.2001         0.366422   
     16. A(C   0,C   1,C   2)          121.7347         0.418314   
     17. A(N   3,C   2,H  10)          110.6338         0.325917   
     18. A(C   1,C   2,H  10)          111.0286         0.324863   
     19. A(N   3,C   2,H   9)          108.1821         0.326453   
     20. A(C   1,C   2,H   9)          108.2272         0.325396   
     21. A(C   1,C   2,N   3)          110.9915         0.376558   
     22. A(H   9,C   2,H  10)          107.6427         0.283765   
     23. A(C   2,N   3,C   4)          122.0857         0.426213   
     24. L(N   3,C   4,S   5,C   2, 2) 179.9390         0.500502   
     25. L(N   3,C   4,S   5,C   2, 1) 179.9332         0.500502   
     26. D(H   8,C   1,C   0,H   7)   -179.4073         0.041532   
     27. D(C   2,C   1,C   0,H   7)      0.0752         0.041532   
     28. D(C   2,C   1,C   0,H   6)    179.8301         0.041532   
     29. D(H   8,C   1,C   0,H   6)      0.3476         0.041532   
     30. D(N   3,C   2,C   1,H   8)   -100.4968         0.012473   
     31. D(H   9,C   2,C   1,C   0)   -161.4102         0.012473   
     32. D(N   3,C   2,C   1,C   0)     80.0200         0.012473   
     33. D(H  10,C   2,C   1,C   0)    -43.4761         0.012473   
     34. D(H   9,C   2,C   1,H   8)     18.0729         0.012473   
     35. D(C   4,N   3,C   2,H  10)     51.6726         0.014843   
     36. D(C   4,N   3,C   2,H   9)    169.3535         0.014843   
     37. D(C   4,N   3,C   2,C   1)    -72.0495         0.014843   
    -----------------------------------------------------------------

Number of atoms                         .... 11
Number of degrees of freedom            .... 37


         *************************************************************
         *                GEOMETRY OPTIMIZATION CYCLE   1            *
         *************************************************************
---------------------------------
CARTESIAN COORDINATES (ANGSTROEM)
---------------------------------
  C     -1.322264    0.811578    0.009483
  C     -0.837381   -0.261631    0.640316
  C      0.258317   -1.102320    0.043710
  N      1.563402   -0.483442    0.250457
  C      1.925128    0.559575   -0.383216
  S      2.380997    1.880324   -1.185557
  H     -2.114885    1.396551    0.464443
  H     -0.938247    1.111305   -0.960873
  H     -1.249982   -0.540266    1.605538
  H      0.257343   -2.087712    0.554896
  H      0.077573   -1.283962   -1.039198

----------------------------
CARTESIAN COORDINATES (A.U.)
----------------------------
  NO LB      ZA    FRAG     MASS         X           Y           Z
   0 C     4.0000*   0    12.011   -2.498717    1.533660    0.017920
   1 C     4.0000*   0    12.011   -1.582421   -0.494411    1.210022
   2 C     4.0000*   0    12.011    0.488148   -2.083083    0.082600
   3 N     5.0000*   0    14.007    2.954402   -0.913573    0.473295
   4 C     4.0000*   0    12.011    3.637965    1.057444   -0.724173
   5 S     6.0000*   0    32.060    4.499432    3.553297   -2.240378
   6 H     1.0000    0     1.008   -3.996553    2.639099    0.877670
   7 H     1.0000    0     1.008   -1.773030    2.100062   -1.815787
   8 H     1.0000    0     1.008   -2.362124   -1.020955    3.034027
   9 H     1.0000    0     1.008    0.486308   -3.945204    1.048601
  10 H     1.0000    0     1.008    0.146592   -2.426337   -1.963800
* core charge reduced due to ECP

--------------------------------
INTERNAL COORDINATES (ANGSTROEM)
--------------------------------
 C      0   0   0     0.000000000000     0.00000000     0.00000000
 C      1   0   0     1.335978800453     0.00000000     0.00000000
 C      2   1   0     1.504410456345   121.73474823     0.00000000
 N      3   2   1     1.459109714215   110.99147683    80.02004280
 C      4   3   2     1.272898908906   122.08570130   287.95050119
 S      5   4   3     1.611193826466   179.92610610    25.28636121
 H      1   2   3     1.085094494489   120.01329676   179.83011123
 H      1   2   3     1.085769817942   121.02316043     0.07518532
 H      2   1   3     1.086061949297   119.20006768   180.51753085
 H      3   2   1     1.110094351367   108.22720846   198.58976850
 H      3   2   1     1.112812628507   111.02858069   316.52392198

---------------------------
INTERNAL COORDINATES (A.U.)
---------------------------
 C      0   0   0     0.000000000000     0.00000000     0.00000000
 C      1   0   0     2.524634053580     0.00000000     0.00000000
 C      2   1   0     2.842923755500   121.73474823     0.00000000
 N      3   2   1     2.757317759211   110.99147683    80.02004280
 C      4   3   2     2.405430333999   122.08570130   287.95050119
 S      5   4   3     3.044715080686   179.92610610    25.28636121
 H      1   2   3     2.050531424010   120.01329676   179.83011123
 H      1   2   3     2.051807600388   121.02316043     0.07518532
 H      2   1   3     2.052359648643   119.20006768   180.51753085
 H      3   2   1     2.097774306896   108.22720846   198.58976850
 H      3   2   1     2.102911106247   111.02858069   316.52392198

---------------------
BASIS SET INFORMATION
---------------------
There are 4 groups of distinct atoms

 Group   1 Type C   : 6s6p2d contracted to 2s2p1d pattern {42/42/2}
 Group   2 Type N   : 6s6p2d contracted to 2s2p1d pattern {42/42/2}
 Group   3 Type S   : 6s6p2d contracted to 2s2p1d pattern {42/42/2}
 Group   4 Type H   : 8s2p contracted to 2s1p pattern {53/2}

Atom   0C    basis set group =>   1
Atom   1C    basis set group =>   1
Atom   2C    basis set group =>   1
Atom   3N    basis set group =>   2
Atom   4C    basis set group =>   1
Atom   5S    basis set group =>   3
Atom   6H    basis set group =>   4
Atom   7H    basis set group =>   4
Atom   8H    basis set group =>   4
Atom   9H    basis set group =>   4
Atom  10H    basis set group =>   4
---------------------------------
AUXILIARY/J BASIS SET INFORMATION
---------------------------------
There are 4 groups of distinct atoms

 Group   1 Type C   : 12s5p4d2f1g contracted to 6s4p3d1f1g pattern {711111/2111/211/2/1}
 Group   2 Type N   : 12s5p4d2f1g contracted to 6s4p3d1f1g pattern {711111/2111/211/2/1}
 Group   3 Type S   : 14s5p5d2f1g contracted to 8s4p3d1f1g pattern {71111111/2111/311/2/1}
 Group   4 Type H   : 5s2p1d contracted to 3s1p1d pattern {311/2/1}

Atom   0C    basis set group =>   1
Atom   1C    basis set group =>   1
Atom   2C    basis set group =>   1
Atom   3N    basis set group =>   2
Atom   4C    basis set group =>   1
Atom   5S    basis set group =>   3
Atom   6H    basis set group =>   4
Atom   7H    basis set group =>   4
Atom   8H    basis set group =>   4
Atom   9H    basis set group =>   4
Atom  10H    basis set group =>   4
-------------------------
ECP PARAMETER INFORMATION
-------------------------

 Group 1, Type C  ECP vDZP-ECP (replacing 2 core electrons, lmax=3)
 Group 2, Type N  ECP vDZP-ECP (replacing 2 core electrons, lmax=3)
 Group 3, Type S  ECP vDZP-ECP (replacing 10 core electrons, lmax=3)

Atom   0C    ECP group =>   1
Atom   1C    ECP group =>   1
Atom   2C    ECP group =>   1
Atom   3N    ECP group =>   2
Atom   4C    ECP group =>   1
Atom   5S    ECP group =>   3



           ************************************************************
           *        Program running with 40 parallel MPI-processes    *
           *              working on a common directory               *
           ************************************************************
------------------------------------------------------------------------------
                             ORCA STARTUP CALCULATIONS
                           -- RI-GTO INTEGRALS CHOSEN --
------------------------------------------------------------------------------
------------------------------------------------------------------------------
                   ___                                                        
                  /   \      - P O W E R E D   B Y -                         
                 /     \                                                     
                 |  |  |   _    _      __       _____    __    __             
                 |  |  |  | |  | |    /  \     |  _  \  |  |  /  |          
                  \  \/   | |  | |   /    \    | | | |  |  | /  /          
                 / \  \   | |__| |  /  /\  \   | |_| |  |  |/  /          
                |  |  |   |  __  | /  /__\  \  |    /   |      \           
                |  |  |   | |  | | |   __   |  |    \   |  |\   \          
                \     /   | |  | | |  |  |  |  | |\  \  |  | \   \       
                 \___/    |_|  |_| |__|  |__|  |_| \__\ |__|  \__/        
                                                                              
                      - O R C A' S   B I G   F R I E N D -                    
                                      &                                       
                       - I N T E G R A L  F E E D E R -                       
                                                                              
 v1 FN, 2020, v2 2021, v3 2022-2024                                           
------------------------------------------------------------------------------


----------------------
SHARK INTEGRAL PACKAGE
----------------------

Number of atoms                             ...     11
Number of basis functions                   ...    103
Number of shells                            ...     45
Maximum angular momentum                    ...      2
Integral batch strategy                     ... SHARK/LIBINT Hybrid
RI-J (if used) integral strategy            ... SPLIT-RIJ (Revised 2003 algorithm where possible)
Printlevel                                  ...      1
Contraction scheme used                     ... SEGMENTED contraction
Prescreening option                         ... SCHWARTZ
   Thresh                                   ... 2.500e-11
   Tcut                                     ... 2.500e-12
   Tpresel                                  ... 2.500e-12 
Coulomb Range Separation                    ... NOT USED
Exchange Range Separation                   ... Long Range
   Mu parameter                             ... 3.000e-01
   Scaling (regular/separated)              ... 1.670e-01 8.330e-01
Multipole approximations                    ... NOT USED
Finite Nucleus Model                        ... NOT USED
CABS basis                                  ... NOT available
Auxiliary Coulomb fitting basis             ... AVAILABLE
   # of basis functions in Aux-J            ...    351
   # of shells in Aux-J                     ...    117
   Maximum angular momentum in Aux-J        ...      4
Auxiliary J/K fitting basis                 ... NOT available
Auxiliary Correlation fitting basis         ... NOT available
Auxiliary 'external' fitting basis          ... NOT available

Checking pre-screening integrals            ... done (  0.0 sec) Dimension = 45
Check shell pair data                       ... done (  0.0 sec)
Shell pair information
Shell pair cut-off parameter TPreSel        ...   2.5e-12
Total number of shell pairs                 ...      1035
Shell pairs after pre-screening             ...      1035
Total number of primitive shell pairs       ...      9205
Primitive shell pairs kept                  ...      8318
          la=0 lb=0:    253 shell pairs
          la=1 lb=0:    374 shell pairs
          la=1 lb=1:    153 shell pairs
          la=2 lb=0:    132 shell pairs
          la=2 lb=1:    102 shell pairs
          la=2 lb=2:     21 shell pairs

Calculating one electron integrals          ... done (  0.0 sec)
Calculating ECP integrals                   ... done (  0.0 sec)
Calculating RI/J V-Matrix + Cholesky decomp.... done (  0.0 sec)
Calculating Nuclear repulsion               ... done (  0.0 sec) ENN=    102.348043070357 Eh

Diagonalization of the overlap matrix:
Smallest eigenvalue                        ... 1.726e-03
Time for diagonalization                   ...    0.002 sec
Threshold for overlap eigenvalues          ... 1.000e-07
Number of eigenvalues below threshold      ... 0
Time for construction of square roots      ...    0.003 sec
Total time needed                          ...    0.008 sec

-------------------
DFT GRID GENERATION
-------------------

General Integration Accuracy     IntAcc      ... 4.388
Radial Grid Type                 RadialGrid  ... OptM3 with GC (2021)
Angular Grid (max. ang.)         AngularGrid ... 4 (Lebedev-302)
Angular grid pruning method      GridPruning ... 4 (adaptive)
Weight generation scheme         WeightScheme... mBecke (2022)
Basis function cutoff            BFCut       ... 1.0000e-11
Integration weight cutoff        WCut        ... 1.0000e-14
Partially contracted basis set               ... off
Rotationally invariant grid construction     ... off
Angular grids for H and He will be reduced by one unit

Total number of grid points                  ...    53832
Total number of batches                      ...      847
Average number of points per batch           ...       63
Average number of grid points per atom       ...     4894

--------------------
COSX GRID GENERATION
--------------------

GRIDX 1
-------
General Integration Accuracy     IntAcc      ... 3.816
Radial Grid Type                 RadialGrid  ... OptM3 with GC (2021)
Angular Grid (max. ang.)         AngularGrid ... 1 (Lebedev-50)
Angular grid pruning method      GridPruning ... 4 (adaptive)
Weight generation scheme         WeightScheme... mBecke (2022)
Basis function cutoff            BFCut       ... 1.0000e-11
Integration weight cutoff        WCut        ... 1.0000e-14
Partially contracted basis set               ... on
Rotationally invariant grid construction     ... off
Angular grids for H and He will be reduced by one unit

Total number of grid points                  ...     7912
Total number of batches                      ...       68
Average number of points per batch           ...      116
Average number of grid points per atom       ...      719
UseSFitting                                  ... on

GRIDX 2
-------
General Integration Accuracy     IntAcc      ... 4.020
Radial Grid Type                 RadialGrid  ... OptM3 with GC (2021)
Angular Grid (max. ang.)         AngularGrid ... 2 (Lebedev-110)
Angular grid pruning method      GridPruning ... 4 (adaptive)
Weight generation scheme         WeightScheme... mBecke (2022)
Basis function cutoff            BFCut       ... 1.0000e-11
Integration weight cutoff        WCut        ... 1.0000e-14
Partially contracted basis set               ... on
Rotationally invariant grid construction     ... off
Angular grids for H and He will be reduced by one unit

Total number of grid points                  ...    14959
Total number of batches                      ...      123
Average number of points per batch           ...      121
Average number of grid points per atom       ...     1360
UseSFitting                                  ... on

GRIDX 3
-------
General Integration Accuracy     IntAcc      ... 4.338
Radial Grid Type                 RadialGrid  ... OptM3 with GC (2021)
Angular Grid (max. ang.)         AngularGrid ... 3 (Lebedev-194)
Angular grid pruning method      GridPruning ... 4 (adaptive)
Weight generation scheme         WeightScheme... mBecke (2022)
Basis function cutoff            BFCut       ... 1.0000e-11
Integration weight cutoff        WCut        ... 1.0000e-14
Partially contracted basis set               ... on
Rotationally invariant grid construction     ... off
Angular grids for H and He will be reduced by one unit

Total number of grid points                  ...    33578
Total number of batches                      ...      268
Average number of points per batch           ...      125
Average number of grid points per atom       ...     3053
UseSFitting                                  ... on
Initializing property integral containers    ... done (  0.0 sec)

SHARK setup successfully completed in   1.8 seconds

Maximum memory used throughout the entire STARTUP-calculation: 15.6 MB


           ************************************************************
           *        Program running with 40 parallel MPI-processes    *
           *              working on a common directory               *
           ************************************************************
-------------------------------------------------------------------------------
                                 ORCA GUESS
                   Start orbitals & Density for SCF / CASSCF
-------------------------------------------------------------------------------

------------
SCF SETTINGS
------------
Hamiltonian:
 Density Functional     Method          .... DFT(GTOs)
 Exchange Functional    Exchange        .... WB97X-V
 Correlation Functional Correlation     .... WB97X-V
 Gradients option       PostSCFGGA      .... off
 Hybrid DFT is turned on
   Fraction HF Exchange ScalHFX         ....  0.167000
   Scaling of DF-GGA-X  ScalDFX         ....  0.000000
   Scaling of DF-GGA-C  ScalDFC         ....  1.000000
   Scaling of DF-LDA-C  ScalLDAC        ....  1.000000
   Perturbative correction              ....  0.000000
 Long-range corrected/Screened/Range-Separated Hybrid DFT is turned on
   Amount of maximum screened exact exchange              ....  0.833000
   Range separation parameter mu (erf(mu*r12)/r12)        ....  0.300000
   NL short-range parameter             ....  6.000000
   NL long-range parameter              ....  0.010000
 RI-approximation to the Coulomb term is turned on
   Number of AuxJ basis functions       .... 351
   RIJ-COSX (HFX calculated with COS-X)).... on


General Settings:
 Integral files         IntName         .... ./output/allyl_isothiocyanate/allyl_isothiocyanate
 Hartree-Fock type      HFTyp           .... RHF
 Total Charge           Charge          ....    0
 Multiplicity           Mult            ....    1
 Number of Electrons    NEL             ....   32
 Basis Dimension        Dim             ....  103
 Nuclear Repulsion      ENuc            ....    102.3480430704 Eh

Convergence Acceleration:
 AO-DIIS                CNVDIIS         .... on
   Start iteration      DIISMaxIt       ....    12
   Startup error        DIISStart       ....  0.200000
   # of expansion vecs  DIISMaxEq       ....     5
   Bias factor          DIISBfac        ....   1.050
   Max. coefficient     DIISMaxC        ....  10.000
 MO-DIIS                CNVKDIIS        .... off
 Trust-Rad. Augm. Hess. CNVTRAH         .... auto
   Auto Start mean grad. ratio tolernc. ....  1.125000
   Auto Start start iteration           ....    50
   Auto Start num. interpolation iter.  ....    10
   Max. Number of Micro iterations      ....    24
   Max. Number of Macro iterations      .... Maxiter - #DIIS iter
   Number of Davidson start vectors     ....     2
   Converg. threshold    (grad. norm)   ....   1.000e-05
   Grad. Scal. Fac. for Micro threshold ....   0.100
   Minimum threshold for Micro iter.    ....   1.000e-02
   NR start threshold (gradient norm)   ....   1.000e-04
   Initial trust radius                 ....   0.400
   Minimum AH scaling param. (alpha)    ....   1.000
   Maximum AH scaling param. (alpha)    .... 1000.000
   Quad. conv. algorithm                .... NR
   White noise on init. David. guess    .... on
   Maximum white noise                  ....   0.010
   Pseudo random numbers                .... off
   Inactive MOs                         .... canonical
   Orbital update algorithm             .... Taylor
   Preconditioner                       .... Diag
   Full preconditioner red. dimension   ....   250
 SOSCF                  CNVSOSCF        .... on
   Start iteration      SOSCFMaxIt      ....   150
   Startup grad/error   SOSCFStart      ....  0.003300
   Hessian update       SOSCFHessUp     .... L-BFGS
 Level Shifting         CNVShift        .... on
   Level shift para.    LevelShift      ....    0.2500
   Turn off err/grad.   ShiftErr        ....    0.0010
 Zerner damping         CNVZerner       .... off
 Static damping         CNVDamp         .... on
   Fraction old density DampFac         ....    0.7000
   Max. Damping (<1)    DampMax         ....    0.9800
   Min. Damping (>=0)   DampMin         ....    0.0000
   Turn off err/grad.   DampErr         ....    0.1000

SCF Procedure:
 Maximum # iterations   MaxIter         ....   125
 SCF integral mode      SCFMode         .... Direct
   Integral package                     .... SHARK and LIBINT hybrid scheme
 Reset frequency        DirectResetFreq ....    20
 Integral Threshold     Thresh          ....  2.500e-11 Eh
 Primitive CutOff       TCut            ....  2.500e-12 Eh

Convergence Tolerance:
 Convergence Check Mode ConvCheckMode   .... Total+1el-Energy
 Convergence forced     ConvForced      .... 0
 Energy Change          TolE            ....  1.000e-08 Eh
 1-El. energy change                    ....  1.000e-05 Eh
 Orbital Gradient       TolG            ....  1.000e-05
 Orbital Rotation angle TolX            ....  1.000e-05
 DIIS Error             TolErr          ....  5.000e-07

------------------------------
INITIAL GUESS: MODEL POTENTIAL
------------------------------
Loading Hartree-Fock densities                     ... done
Atomic calculation to generate a density for atom 0 (C  with ECP)
  Multiplicity assumed   :    1
  Atomic configuration   : 1s2 2s2 2p2 
  Number of open shells  : 1
  Command: /home/aspe232/Project/Software/ORCA/6_0_1/build/orca ./output/allyl_isothiocyanate/allyl_isothiocyanate_atom6.inp "" > ./output/allyl_isothiocyanate/allyl_isothiocyanate_atom6.out
Returned from the atomic calculation with res=0
Atomic calculation to generate a density for atom 3 (N  with ECP)
  Multiplicity assumed   :    4
  Atomic configuration   : 1s2 2s2 2p3 
  Number of open shells  : 1
  Command: /home/aspe232/Project/Software/ORCA/6_0_1/build/orca ./output/allyl_isothiocyanate/allyl_isothiocyanate_atom7.inp "" > ./output/allyl_isothiocyanate/allyl_isothiocyanate_atom7.out
Returned from the atomic calculation with res=0
Atomic calculation to generate a density for atom 5 (S  with ECP)
  Multiplicity assumed   :    3
  Atomic configuration   : 1s2 2s2 2p6 3s2 3p4 
  Number of open shells  : 1
  Command: /home/aspe232/Project/Software/ORCA/6_0_1/build/orca ./output/allyl_isothiocyanate/allyl_isothiocyanate_atom16.inp "" > ./output/allyl_isothiocyanate/allyl_isothiocyanate_atom16.out
Returned from the atomic calculation with res=0
Calculating cut-offs                               ... done
Initializing the effective Hamiltonian             ... done
Setting up the integral package (SHARK)            ... done
Starting the Coulomb interaction                   ... done (   0.0 sec)
Making the grid                                    ... done (   0.3 sec)
Mapping shells                                     ... done
Starting the XC term evaluation                    ... done (   0.0 sec)
  promolecular density results
     # of electrons  =     51.995771925
     EX              =    -37.581109406
     EC              =     -2.281574220
     EX+EC           =    -39.862683626
Transforming the Hamiltonian                       ... done (   0.0 sec)
Diagonalizing the Hamiltonian                      ... done (   0.0 sec)
Back transforming the eigenvectors                 ... done (   0.0 sec)
Now organizing SCF variables                       ... done
                      ------------------
                      INITIAL GUESS DONE (   1.8 sec)
                      ------------------
             **** ENERGY FILE WAS UPDATED (./output/allyl_isothiocyanate/allyl_isothiocyanate.en.tmp) ****
Finished Guess after   2.0 sec
Maximum memory used throughout the entire GUESS-calculation: 9.0 MB


           ************************************************************
           *        Program running with 40 parallel MPI-processes    *
           *              working on a common directory               *
           ************************************************************

-------------------------------------------------------------------------------------------
                                      ORCA LEAN-SCF
                              memory conserving SCF solver
-------------------------------------------------------------------------------------------

----------------------------------------D-I-I-S--------------------------------------------
Iteration    Energy (Eh)           Delta-E    RMSDP     MaxDP     DIISErr   Damp  Time(sec)
-------------------------------------------------------------------------------------------
               ***  Starting incremental Fock matrix formation  ***
    1    -45.7073905705809977     0.00e+00  4.67e-03  8.44e-02  1.50e-01  0.700   1.9
    2    -45.7833191268711914    -7.59e-02  3.55e-03  6.62e-02  9.35e-02  0.700   1.2
                               ***Turning on AO-DIIS***
    3    -45.8215020522607972    -3.82e-02  1.98e-03  3.55e-02  5.08e-02  0.700   1.3
    4    -45.8438209209647596    -2.23e-02  4.48e-03  8.97e-02  3.08e-02  0.000   1.4
    5    -45.8915234223364905    -4.77e-02  4.64e-04  6.31e-03  5.68e-03  0.000   1.5
                              *** Initializing SOSCF ***
---------------------------------------S-O-S-C-F--------------------------------------
Iteration    Energy (Eh)           Delta-E    RMSDP     MaxDP     MaxGrad    Time(sec)
--------------------------------------------------------------------------------------
    6    -45.8918232439847600    -3.00e-04  2.72e-04  4.12e-03  2.71e-03     1.5
               *** Restarting incremental Fock matrix formation ***
    7    -45.8918811599716037    -5.79e-05  1.66e-04  2.95e-03  1.08e-03     1.8
    8    -45.8918954543940458    -1.43e-05  1.10e-04  1.82e-03  7.90e-04     1.2
    9    -45.8919082626121337    -1.28e-05  2.31e-05  3.14e-04  9.93e-05     1.3
   10    -45.8919085796293871    -3.17e-07  1.54e-05  1.94e-04  5.50e-05     1.3
   11    -45.8919086624150907    -8.28e-08  5.99e-06  8.23e-05  3.02e-05     1.4
   12    -45.8919086910339331    -2.86e-08  2.89e-06  3.19e-05  9.93e-06     1.4
   13    -45.8919086962132496    -5.18e-09  1.00e-06  1.39e-05  3.26e-06     1.3
                 **** Energy Check signals convergence ****

               *****************************************************
               *                     SUCCESS                       *
               *           SCF CONVERGED AFTER  13 CYCLES          *
               *****************************************************

Recomputing exchange energy using gridx3       ... done (    0.588 sec)
Old exchange energy                            :     -6.020379660 Eh
New exchange energy                            :     -6.020388521 Eh
Exchange energy change after final integration :     -0.000008860 Eh
Total energy after final integration           :    -45.891917557 Eh
             **** ENERGY FILE WAS UPDATED (./output/allyl_isothiocyanate/allyl_isothiocyanate.en.tmp) ****

----------------
TOTAL SCF ENERGY
----------------

Total Energy       :        -45.89191755668323 Eh           -1248.78256 eV

Components:
Nuclear Repulsion  :        102.34804307035685 Eh            2785.03184 eV
Electronic Energy  :       -148.23995176657007 Eh           -4033.81416 eV
One Electron Energy:       -272.18873497214554 Eh           -7406.63202 eV
Two Electron Energy:        123.94878320557545 Eh            3372.81786 eV

Virial components:
Potential Energy   :        -76.70069721894319 Eh           -2087.13208 eV
Kinetic Energy     :         30.80877966225997 Eh             838.34952 eV
Virial Ratio       :          2.48957271465380

DFT components:
N(Alpha)           :       15.999971464400 electrons
N(Beta)            :       15.999971464400 electrons
N(Total)           :       31.999942928801 electrons
E(X)               :       -6.219395152946 Eh       
E(C)               :       -1.177877992401 Eh       
E(XC)              :       -7.397273145346 Eh       

---------------
SCF CONVERGENCE
---------------

  Last Energy change         ...    5.1793e-09  Tolerance :   1.0000e-08
  Last MAX-Density change    ...    1.3902e-05  Tolerance :   1.0000e-07
  Last RMS-Density change    ...    1.0020e-06  Tolerance :   5.0000e-09
  Last DIIS Error            ...    2.7133e-03  Tolerance :   5.0000e-07
  Last Orbital Gradient      ...    3.2557e-06  Tolerance :   1.0000e-05
  Last Orbital Rotation      ...    2.1487e-05  Tolerance :   1.0000e-05


----------------
ORBITAL ENERGIES
----------------

  NO   OCC          E(Eh)            E(eV) 
   0   2.0000      -1.091471       -29.7004 
   1   2.0000      -0.952589       -25.9213 
   2   2.0000      -0.919197       -25.0126 
   3   2.0000      -0.839738       -22.8504 
   4   2.0000      -0.709414       -19.3041 
   5   2.0000      -0.650698       -17.7064 
   6   2.0000      -0.613399       -16.6914 
   7   2.0000      -0.580472       -15.7954 
   8   2.0000      -0.568430       -15.4678 
   9   2.0000      -0.534478       -14.5439 
  10   2.0000      -0.507962       -13.8224 
  11   2.0000      -0.472784       -12.8651 
  12   2.0000      -0.466587       -12.6965 
  13   2.0000      -0.392087       -10.6692 
  14   2.0000      -0.371707       -10.1147 
  15   2.0000      -0.351644        -9.5687 
  16   0.0000       0.010713         0.2915 
  17   0.0000       0.044512         1.2112 
  18   0.0000       0.079513         2.1636 
  19   0.0000       0.090986         2.4759 
  20   0.0000       0.108227         2.9450 
  21   0.0000       0.112614         3.0644 
  22   0.0000       0.142297         3.8721 
  23   0.0000       0.153403         4.1743 
  24   0.0000       0.159632         4.3438 
  25   0.0000       0.220030         5.9873 
  26   0.0000       0.287927         7.8349 
*Only the first 10 virtual orbitals were printed.

                    ********************************
                    * MULLIKEN POPULATION ANALYSIS *
                    ********************************

-----------------------
MULLIKEN ATOMIC CHARGES
-----------------------
   0 C :   -0.020725
   1 C :   -0.028585
   2 C :   -0.004594
   3 N :   -0.158365
   4 C :    0.118939
   5 S :   -0.127839
   6 H :    0.038907
   7 H :    0.025558
   8 H :    0.022391
   9 H :    0.070881
  10 H :    0.063431
Sum of atomic charges:    0.0000000

--------------------------------
MULLIKEN REDUCED ORBITAL CHARGES
--------------------------------
  0 C s       :     1.019373  s :     1.019373
      pz      :     0.991730  p :     2.935647
      px      :     0.974184
      py      :     0.969733
      dz2     :     0.015991  d :     0.065705
      dxz     :     0.010909
      dyz     :     0.013132
      dx2y2   :     0.011319
      dxy     :     0.014353

  1 C s       :     1.062735  s :     1.062735
      pz      :     0.981397  p :     2.874900
      px      :     0.929076
      py      :     0.964427
      dz2     :     0.021568  d :     0.090950
      dxz     :     0.015753
      dyz     :     0.016910
      dx2y2   :     0.018324
      dxy     :     0.018396

  2 C s       :     1.018181  s :     1.018181
      pz      :     1.071879  p :     2.854663
      px      :     0.774413
      py      :     1.008371
      dz2     :     0.024343  d :     0.131750
      dxz     :     0.023984
      dyz     :     0.018310
      dx2y2   :     0.038537
      dxy     :     0.026576

  3 N s       :     1.483706  s :     1.483706
      pz      :     1.306719  p :     3.618923
      px      :     1.180306
      py      :     1.131898
      dz2     :     0.009682  d :     0.055736
      dxz     :     0.009289
      dyz     :     0.011912
      dx2y2   :     0.015690
      dxy     :     0.009163

  4 C s       :     1.253086  s :     1.253086
      pz      :     0.807303  p :     2.473909
      px      :     0.828801
      py      :     0.837806
      dz2     :     0.038162  d :     0.154067
      dxz     :     0.016919
      dyz     :     0.028212
      dx2y2   :     0.034579
      dxy     :     0.036194

  5 S s       :     1.896928  s :     1.896928
      pz      :     1.434419  p :     4.131620
      px      :     1.485638
      py      :     1.211563
      dz2     :     0.012939  d :     0.099291
      dxz     :     0.008401
      dyz     :     0.033628
      dx2y2   :     0.023186
      dxy     :     0.021137

  6 H s       :     0.911323  s :     0.911323
      pz      :     0.013633  p :     0.049769
      px      :     0.020380
      py      :     0.015756

  7 H s       :     0.923810  s :     0.923810
      pz      :     0.024092  p :     0.050632
      px      :     0.014217
      py      :     0.012323

  8 H s       :     0.929285  s :     0.929285
      pz      :     0.023030  p :     0.048324
      px      :     0.013733
      py      :     0.011561

  9 H s       :     0.887822  s :     0.887822
      pz      :     0.012471  p :     0.041297
      px      :     0.007763
      py      :     0.021063

 10 H s       :     0.894460  s :     0.894460
      pz      :     0.024227  p :     0.042109
      px      :     0.008862
      py      :     0.009021



                     *******************************
                     * LOEWDIN POPULATION ANALYSIS *
                     *******************************

----------------------
LOEWDIN ATOMIC CHARGES
----------------------
   0 C :   -0.049324
   1 C :   -0.051694
   2 C :   -0.086976
   3 N :   -0.037603
   4 C :   -0.198430
   5 S :    0.178215
   6 H :    0.042709
   7 H :    0.036728
   8 H :    0.042515
   9 H :    0.064960
  10 H :    0.058900

-------------------------------
LOEWDIN REDUCED ORBITAL CHARGES
-------------------------------
  0 C s       :     0.835286  s :     0.835286
      pz      :     1.026322  p :     2.997957
      px      :     0.973031
      py      :     0.998603
      dz2     :     0.054463  d :     0.216081
      dxz     :     0.030252
      dyz     :     0.050670
      dx2y2   :     0.028601
      dxy     :     0.052095

  1 C s       :     0.818385  s :     0.818385
      pz      :     1.018471  p :     2.935810
      px      :     0.933719
      py      :     0.983619
      dz2     :     0.070887  d :     0.297499
      dxz     :     0.046771
      dyz     :     0.059324
      dx2y2   :     0.056933
      dxy     :     0.063585

  2 C s       :     0.769439  s :     0.769439
      pz      :     1.067742  p :     2.931400
      px      :     0.856613
      py      :     1.007045
      dz2     :     0.077148  d :     0.386137
      dxz     :     0.068956
      dyz     :     0.053704
      dx2y2   :     0.112612
      dxy     :     0.073717

  3 N s       :     1.164296  s :     1.164296
      pz      :     1.298059  p :     3.726954
      px      :     1.205495
      py      :     1.223400
      dz2     :     0.017564  d :     0.146354
      dxz     :     0.024908
      dyz     :     0.033100
      dx2y2   :     0.044781
      dxy     :     0.026001

  4 C s       :     0.968976  s :     0.968976
      pz      :     0.903426  p :     2.775734
      px      :     0.821033
      py      :     1.051274
      dz2     :     0.098955  d :     0.453720
      dxz     :     0.044891
      dyz     :     0.106760
      dx2y2   :     0.103492
      dxy     :     0.099622

  5 S s       :     1.589699  s :     1.589699
      pz      :     1.418135  p :     4.107671
      px      :     1.437744
      py      :     1.251793
      dz2     :     0.014239  d :     0.124415
      dxz     :     0.010200
      dyz     :     0.045097
      dx2y2   :     0.029943
      dxy     :     0.024937

  6 H s       :     0.806856  s :     0.806856
      pz      :     0.044918  p :     0.150435
      px      :     0.057641
      py      :     0.047876

  7 H s       :     0.813847  s :     0.813847
      pz      :     0.065220  p :     0.149424
      px      :     0.044666
      py      :     0.039538

  8 H s       :     0.806441  s :     0.806441
      pz      :     0.066838  p :     0.151044
      px      :     0.045038
      py      :     0.039168

  9 H s       :     0.797259  s :     0.797259
      pz      :     0.045293  p :     0.137781
      px      :     0.029589
      py      :     0.062899

 10 H s       :     0.801855  s :     0.801855
      pz      :     0.070524  p :     0.139245
      px      :     0.031489
      py      :     0.037232



                      *****************************
                      * MAYER POPULATION ANALYSIS *
                      *****************************

  NA   - Mulliken gross atomic population
  ZA   - Total nuclear charge
  QA   - Mulliken gross atomic charge
  VA   - Mayer's total valence
  BVA  - Mayer's bonded valence
  FA   - Mayer's free valence

  ATOM       NA         ZA         QA         VA         BVA        FA
  0 C      4.0207     4.0000    -0.0207     3.9792     3.9792     0.0000
  1 C      4.0286     4.0000    -0.0286     3.9969     3.9969     0.0000
  2 C      4.0046     4.0000    -0.0046     3.9933     3.9933     0.0000
  3 N      5.1584     5.0000    -0.1584     2.9982     2.9982     0.0000
  4 C      3.8811     4.0000     0.1189     3.9913     3.9913    -0.0000
  5 S      6.1278     6.0000    -0.1278     2.2087     2.2087     0.0000
  6 H      0.9611     1.0000     0.0389     1.0401     1.0401     0.0000
  7 H      0.9744     1.0000     0.0256     1.0515     1.0515    -0.0000
  8 H      0.9776     1.0000     0.0224     1.0511     1.0511     0.0000
  9 H      0.9291     1.0000     0.0709     1.0115     1.0115     0.0000
 10 H      0.9366     1.0000     0.0634     1.0262     1.0262    -0.0000

  Mayer bond orders larger than 0.100000
B(  0-C ,  1-C ) :   1.9308 B(  0-C ,  6-H ) :   0.9991 B(  0-C ,  7-H ) :   0.9992 
B(  1-C ,  2-C ) :   1.0047 B(  1-C ,  8-H ) :   1.0073 B(  2-C ,  3-N ) :   0.9196 
B(  2-C ,  9-H ) :   1.0056 B(  2-C , 10-H ) :   0.9881 B(  3-N ,  4-C ) :   1.9277 
B(  3-N ,  5-S ) :   0.1713 B(  4-C ,  5-S ) :   1.9982 

-------
TIMINGS
-------

Total SCF time: 0 days 0 hours 0 min 21 sec 

Total time                  ....      21.080 sec
Sum of individual times     ....      20.110 sec  ( 95.4%)

SCF preparation             ....       1.114 sec  (  5.3%)
Fock matrix formation       ....      17.875 sec  ( 84.8%)
  Startup                   ....       0.267 sec  (  1.5% of F)
  Split-RI-J                ....       0.544 sec  (  3.0% of F)
  Chain of spheres X        ....       5.028 sec  ( 28.1% of F)
  XC integration            ....      11.544 sec  ( 64.6% of F)
    XC Preparation          ....       0.000 sec  (  0.0% of XC)
    Basis function eval.    ....       0.173 sec  (  1.5% of XC)
    Density eval.           ....       0.048 sec  (  0.4% of XC)
    XC-Functional eval.     ....       0.109 sec  (  0.9% of XC)
    XC-Potential eval.      ....       0.076 sec  (  0.7% of XC)
Diagonalization             ....       0.000 sec  (  0.0%)
Density matrix formation    ....       0.427 sec  (  2.0%)
Total Energy calculation    ....       0.190 sec  (  0.9%)
Population analysis         ....       0.041 sec  (  0.2%)
Orbital Transformation      ....       0.037 sec  (  0.2%)
Orbital Orthonormalization  ....       0.000 sec  (  0.0%)
DIIS solution               ....       0.261 sec  (  1.2%)
SOSCF solution              ....       0.164 sec  (  0.8%)
Finished LeanSCF after  21.1 sec

Maximum memory used throughout the entire LEANSCF-calculation: 13.1 MB


           ************************************************************
           *        Program running with 40 parallel MPI-processes    *
           *              working on a common directory               *
           ************************************************************

------------------------------------------------------------------------------
                         ORCA PROPERTY INTEGRAL CALCULATIONS
------------------------------------------------------------------------------

GBWName                                   ... ./output/allyl_isothiocyanate/allyl_isothiocyanate.gbw
Number of atoms                           ...     11
Number of basis functions                 ...    103
Max core memory                           ...   1024 MB

Dipole integrals                          ... YES
Quadrupole integrals                      ...  NO
Linear momentum integrals                 ...  NO
Angular momentum integrals                ...  NO
Higher moments length integrals           ...  NO
Higher moments velocity integrals         ...  NO
Kinetic energy integrals                  ...  NO
GIAO right hand sides                     ...  NO
GIAO dipole derivative integrals          ...  NO
SOC integrals                             ...  NO
EPR diamagnetic integrals (GIAO)          ...  NO
EPR gauge integrals                       ...  NO
Field gradient integrals                  ...  NO (   0 nuclei)
Spin-dipole/Fermi contact integrals       ...  NO (   0 nuclei)
Contact density integrals                 ...  NO (   0 nuclei)
Nucleus-orbit integrals                   ...  NO (   0 nuclei)
Geometric perturbations                   ...  NO (  11 nuclei)

Choice of electric origin   ... Center of mass
Position of electric origin ... (  1.8014,  0.9946, -0.5745) 
Choice of magnetic origin   ... GIAO
Position of magnetic origin ... (  0.0000,  0.0000,  0.0000) 

Calculating integrals                     ... Electric Dipole (Length)     done (  0.1 sec)

Property integrals calculated in   0.1 sec

Maximum memory used throughout the entire PROPINT-calculation: 8.0 MB


-------------------------------------------------------------------------------
                          DFT DISPERSION CORRECTION                            
                                                                               
                                DFTD4 V3.4.0                                   
-------------------------------------------------------------------------------
The wB97X-3c composite method is recognized
Using three-body term ABC
Active option DFTDOPT                   ...         5   

-------------------------   ----------------
Dispersion correction           -0.011083426
-------------------------   ----------------


-------------------------   --------------------
FINAL SINGLE POINT ENERGY       -45.903000982626
-------------------------   --------------------



           ************************************************************
           *        Program running with 40 parallel MPI-processes    *
           *              working on a common directory               *
           ************************************************************
------------------------------------------------------------------------------
                         ORCA SCF GRADIENT CALCULATION
------------------------------------------------------------------------------

Nuc. rep. gradient        (SHARK) ... done (  0.0 sec)
HCore & Overlap gradient  (SHARK) ... done (  0.0 sec)
ECP gradient              (SHARK) ... done (  0.1 sec)
Split-RIJ-J gradient      (SHARK) ... done (  0.2 sec)
COSX-gradient                     ... done (  1.4 sec)
XC gradient                       ... done (  0.5 sec)
Dispersion correction             ... done (  0.1 sec)

-------------------
DISPERSION GRADIENT
-------------------

   1   C   :   -0.000597586    0.000234772    0.000018161
   2   C   :   -0.000382113   -0.000100865    0.000185178
   3   C   :   -0.000065847   -0.000385392    0.000027767
   4   N   :    0.000356500   -0.000342262    0.000159983
   5   C   :    0.000480201    0.000135483   -0.000081118
   6   S   :    0.000530263    0.000562507   -0.000334054
   7   H   :   -0.000079039    0.000064244    0.000010728
   8   H   :   -0.000169511    0.000081409   -0.000044836
   9   H   :   -0.000081006   -0.000011418    0.000090186
  10   H   :    0.000015468   -0.000110915    0.000027077
  11   H   :   -0.000007330   -0.000127562   -0.000059072

Difference to translation invariance:
           :    0.0000000000    0.0000000000    0.0000000000

Difference to rotation invariance:
           :    0.0000000000   -0.0000000000   -0.0000000000

Norm of the Dispersion gradient    ...    0.0014446405
RMS gradient                       ...    0.0002514796
MAX gradient                       ...    0.0005975858

------------------
CARTESIAN GRADIENT
------------------

   1   C   :   -0.002551838    0.013948596   -0.009675023
   2   C   :    0.008823786   -0.014719775    0.013126766
   3   C   :    0.008370516    0.018291181   -0.004296086
   4   N   :   -0.032947751   -0.091481889    0.059630870
   5   C   :    0.021190037    0.055722665   -0.032605013
   6   S   :    0.009042268    0.035501183   -0.023264827
   7   H   :   -0.002524398   -0.000855401    0.003039360
   8   H   :    0.002417742   -0.000973225   -0.001781301
   9   H   :   -0.003927100    0.000596721    0.001163062
  10   H   :   -0.004132269   -0.012097031    0.008791308
  11   H   :   -0.003760992   -0.003933025   -0.014129116

Difference to translation invariance:
           :   -0.0000000000   -0.0000000000   -0.0000000000

Difference to rotation invariance:
           :    0.0000620310    0.0000041903    0.0000440192

Norm of the Cartesian gradient     ...    0.1456324081
RMS gradient                       ...    0.0253513482
MAX gradient                       ...    0.0914818890

-------
TIMINGS
-------

Total SCF gradient time     ....        2.337 sec

Densities                   ....       0.001 sec  (  0.0%)
One electron gradient       ....       0.015 sec  (  0.7%)
RI-J Coulomb gradient       ....       0.198 sec  (  8.5%)
COSX gradient               ....       1.399 sec  ( 59.9%)
XC gradient                 ....       0.545 sec  ( 23.3%)

Maximum memory used throughout the entire SCFGRAD-calculation: 27.9 MB
------------------------------------------------------------------------------
                         ORCA GEOMETRY RELAXATION STEP
------------------------------------------------------------------------------

Reading the OPT-File                    .... done
Getting information on internals        .... done
Copying old internal coords+grads       .... done
Making the new internal coordinates     .... (2022 redundants) done
Validating the new internal coordinates .... (2022 redundants) done
Calculating the B-matrix                .... done
Calculating the G,G- and P matrices     .... done
Transforming gradient to internals      .... done
Projecting the internal gradient        .... done
Number of atoms                         ....  11
Number of internal coordinates          ....  37
Current Energy                          ....   -45.903000983 Eh
Current gradient norm                   ....     0.145632408 Eh/bohr
Maximum allowed component of the step   ....  0.300
Current trust radius                    ....  0.300
Evaluating the initial hessian          ....  (Almloef) done
Projecting the Hessian                  .... done
Forming the augmented Hessian           .... done
Diagonalizing the augmented Hessian     .... done
Last element of RFO vector              ....  0.982320876
Lowest eigenvalues of augmented Hessian:
 -0.019727883  0.012746166  0.014845267  0.025681020  0.041532853
Length of the computed step             ....  0.190574143
The final length of the internal step   ....  0.190574143
Converting the step to Cartesian space:
 Initial RMS(Int)=    0.0313301961
Transforming coordinates:
 Iter   0:  RMS(Cart)=    0.0708698910 RMS(Int)=    1.0300873108
 Iter   5:  RMS(Cart)=    0.0000047514 RMS(Int)=    0.0000039742
 Iter  10:  RMS(Cart)=    0.0000001033 RMS(Int)=    0.0000000866
done
Storing new coordinates                 .... done

                                .--------------------.
          ----------------------|Geometry convergence|-------------------------
          Item                value                   Tolerance       Converged
          ---------------------------------------------------------------------
          RMS gradient        0.0204409843            0.0001000000      NO
          MAX gradient        0.1111520946            0.0003000000      NO
          RMS step            0.0313301961            0.0020000000      NO
          MAX step            0.1262901682            0.0040000000      NO
          ........................................................
          Max(Bonds)      0.0668      Max(Angles)    1.87
          Max(Dihed)        2.93      Max(Improp)    0.00
          ---------------------------------------------------------------------

The optimization has not yet converged - more geometry cycles are needed


    ---------------------------------------------------------------------------
                         Redundant Internal Coordinates
                            (Angstroem and degrees)

        Definition                    Value    dE/dq     Step     New-Value
    ----------------------------------------------------------------------------
     1. B(C   1,C   0)                1.3360  0.014678 -0.0099    1.3260   
     2. B(C   2,C   1)                1.5044 -0.000420  0.0005    1.5049   
     3. B(N   3,C   2)                1.4591 -0.002007  0.0023    1.4614   
     4. B(C   4,N   3)                1.2729  0.111152 -0.0668    1.2061   
     5. B(S   5,C   4)                1.6112  0.043245 -0.0298    1.5814   
     6. B(H   6,C   0)                1.0851  0.002657 -0.0036    1.0815   
     7. B(H   7,C   0)                1.0858  0.002180 -0.0030    1.0828   
     8. B(H   8,C   1)                1.0861  0.002373 -0.0033    1.0828   
     9. B(H   9,C   2)                1.1101  0.014791 -0.0221    1.0880   
    10. B(H  10,C   2)                1.1128  0.015001 -0.0226    1.0902   
    11. A(C   1,C   0,H   6)          120.01 -0.002450    0.40    120.42   
    12. A(H   6,C   0,H   7)          118.96  0.003549   -0.60    118.36   
    13. A(C   1,C   0,H   7)          121.02 -0.001100    0.20    121.23   
    14. A(C   2,C   1,H   8)          119.06  0.005795   -0.88    118.19   
    15. A(C   0,C   1,H   8)          119.20 -0.000084    0.08    119.28   
    16. A(C   0,C   1,C   2)          121.73 -0.005718    0.81    122.54   
    17. A(N   3,C   2,H  10)          110.63  0.003125   -0.64    109.99   
    18. A(C   1,C   2,H  10)          111.03  0.002030   -0.27    110.76   
    19. A(N   3,C   2,H   9)          108.18  0.005787   -1.03    107.15   
    20. A(C   1,C   2,H   9)          108.23 -0.003848    0.96    109.19   
    21. A(C   1,C   2,N   3)          110.99 -0.006540    1.03    112.02   
    22. A(H   9,C   2,H  10)          107.64 -0.000405   -0.07    107.58   
    23. A(C   2,N   3,C   4)          122.09 -0.014543    1.87    123.95   
    24. L(N   3,C   4,S   5,C   2, 2) 179.94 -0.000005    0.00    179.94   
    25. L(N   3,C   4,S   5,C   2, 1) 179.93 -0.011060    1.22    181.15   
    26. D(H   8,C   1,C   0,H   7)   -179.41  0.000206   -0.23   -179.64   
    27. D(C   2,C   1,C   0,H   7)      0.08 -0.000720    0.71      0.79   
    28. D(C   2,C   1,C   0,H   6)    179.83 -0.001217    1.18    181.01   
    29. D(H   8,C   1,C   0,H   6)      0.35 -0.000291    0.23      0.58   
    30. D(N   3,C   2,C   1,H   8)   -100.50 -0.002107    2.93    -97.56   
    31. D(H   9,C   2,C   1,C   0)   -161.41 -0.000283    1.92   -159.49   
    32. D(N   3,C   2,C   1,C   0)     80.02 -0.001153    1.99     82.01   
    33. D(H  10,C   2,C   1,C   0)    -43.48 -0.001952    2.27    -41.21   
    34. D(H   9,C   2,C   1,H   8)     18.07 -0.001237    2.86     20.94   
    35. D(C   4,N   3,C   2,H  10)     51.67 -0.001363    0.08     51.75   
    36. D(C   4,N   3,C   2,H   9)    169.35  0.003381   -0.98    168.37   
    37. D(C   4,N   3,C   2,C   1)    -72.05 -0.001561    0.15    -71.90   
    ----------------------------------------------------------------------------

Geometry step timings:
Preparation and reading OPT file:      0.001 s (13.499 %)
Internal coordinates            :      0.000 s ( 2.130 %)
B/P matrices and projection     :      0.001 s (15.503 %)
Hessian update/contruction      :      0.001 s (25.501 %)
Making the step                 :      0.001 s (12.723 %)
Converting the step to Cartesian:      0.000 s ( 7.923 %)
Storing new data                :      0.000 s ( 2.256 %)
Checking convergence            :      0.000 s ( 0.090 %)
Final printing                  :      0.001 s (19.978 %)
Total time                      :      0.006 s

Time for energy+gradient        :     29.081 s
Time for complete geometry iter :     29.537 s

         *************************************************************
         *                GEOMETRY OPTIMIZATION CYCLE   2            *
         *************************************************************
---------------------------------
CARTESIAN COORDINATES (ANGSTROEM)
---------------------------------
  C     -1.374188    0.793929    0.006020
  C     -0.839985   -0.244699    0.633927
  C      0.260870   -1.075782    0.032076
  N      1.574298   -0.462099    0.216826
  C      1.946809    0.522186   -0.372258
  S      2.462647    1.811597   -1.128598
  H     -2.153015    1.377485    0.477652
  H     -1.043623    1.082080   -0.983982
  H     -1.198624   -0.508474    1.620973
  H      0.287642   -2.045095    0.525485
  H      0.077169   -1.251129   -1.028122

----------------------------
CARTESIAN COORDINATES (A.U.)
----------------------------
  NO LB      ZA    FRAG     MASS         X           Y           Z
   0 C     4.0000*   0    12.011   -2.596839    1.500308    0.011375
   1 C     4.0000*   0    12.011   -1.587342   -0.462414    1.197949
   2 C     4.0000*   0    12.011    0.492972   -2.032933    0.060614
   3 N     5.0000*   0    14.007    2.974993   -0.873241    0.409743
   4 C     4.0000*   0    12.011    3.678937    0.986789   -0.703465
   5 S     6.0000*   0    32.060    4.653729    3.423423   -2.132741
   6 H     1.0000    0     1.008   -4.068608    2.603070    0.902631
   7 H     1.0000    0     1.008   -1.972162    2.044836   -1.859456
   8 H     1.0000    0     1.008   -2.265072   -0.960876    3.063196
   9 H     1.0000    0     1.008    0.543565   -3.864670    0.993022
  10 H     1.0000    0     1.008    0.145829   -2.364291   -1.942870
* core charge reduced due to ECP

--------------------------------
INTERNAL COORDINATES (ANGSTROEM)
--------------------------------
 C      0   0   0     0.000000000000     0.00000000     0.00000000
 C      1   0   0     1.326042158197     0.00000000     0.00000000
 C      2   1   0     1.504926872302   122.53829813     0.00000000
 N      3   2   1     1.461449520410   112.02193540    82.00762888
 C      4   3   2     1.206069030341   123.95426834   288.09605730
 S      5   4   3     1.581366488394   178.84830000   178.50580299
 H      1   2   3     1.081455795716   120.41516150   181.00755823
 H      1   2   3     1.082777529101   121.22498893     0.78919070
 H      2   1   3     1.082801576378   119.27603537   179.57174604
 H      3   2   1     1.087997038691   109.18597370   200.51598459
 H      3   2   1     1.090189087990   110.76170260   318.79332472

---------------------------
INTERNAL COORDINATES (A.U.)
---------------------------
 C      0   0   0     0.000000000000     0.00000000     0.00000000
 C      1   0   0     2.505856521027     0.00000000     0.00000000
 C      2   1   0     2.843899640229   122.53829813     0.00000000
 N      3   2   1     2.761739352126   112.02193540    82.00762888
 C      4   3   2     2.279140165948   123.95426834   288.09605730
 S      5   4   3     2.988349580426   178.84830000   178.50580299
 H      1   2   3     2.043655279844   120.41516150   181.00755823
 H      1   2   3     2.046152993965   121.22498893     0.78919070
 H      2   1   3     2.046198436733   119.27603537   179.57174604
 H      3   2   1     2.056016437643   109.18597370   200.51598459
 H      3   2   1     2.060158810491   110.76170260   318.79332472



           ************************************************************
           *        Program running with 40 parallel MPI-processes    *
           *              working on a common directory               *
           ************************************************************
------------------------------------------------------------------------------
                   ___                                                        
                  /   \      - P O W E R E D   B Y -                         
                 /     \                                                     
                 |  |  |   _    _      __       _____    __    __             
                 |  |  |  | |  | |    /  \     |  _  \  |  |  /  |          
                  \  \/   | |  | |   /    \    | | | |  |  | /  /          
                 / \  \   | |__| |  /  /\  \   | |_| |  |  |/  /          
                |  |  |   |  __  | /  /__\  \  |    /   |      \           
                |  |  |   | |  | | |   __   |  |    \   |  |\   \          
                \     /   | |  | | |  |  |  |  | |\  \  |  | \   \       
                 \___/    |_|  |_| |__|  |__|  |_| \__\ |__|  \__/        
                                                                              
                      - O R C A' S   B I G   F R I E N D -                    
                                      &                                       
                       - I N T E G R A L  F E E D E R -                       
                                                                              
 v1 FN, 2020, v2 2021, v3 2022-2024                                           
------------------------------------------------------------------------------


----------------------
SHARK INTEGRAL PACKAGE
----------------------

Number of atoms                             ...     11
Number of basis functions                   ...    103
Number of shells                            ...     45
Maximum angular momentum                    ...      2
Integral batch strategy                     ... SHARK/LIBINT Hybrid
RI-J (if used) integral strategy            ... SPLIT-RIJ (Revised 2003 algorithm where possible)
Printlevel                                  ...      1
Contraction scheme used                     ... SEGMENTED contraction
Prescreening option                         ... SCHWARTZ
   Thresh                                   ... 2.500e-11
   Tcut                                     ... 2.500e-12
   Tpresel                                  ... 2.500e-12 
Coulomb Range Separation                    ... NOT USED
Exchange Range Separation                   ... Long Range
   Mu parameter                             ... 3.000e-01
   Scaling (regular/separated)              ... 1.670e-01 8.330e-01
Multipole approximations                    ... NOT USED
Finite Nucleus Model                        ... NOT USED
CABS basis                                  ... NOT available
Auxiliary Coulomb fitting basis             ... AVAILABLE
   # of basis functions in Aux-J            ...    351
   # of shells in Aux-J                     ...    117
   Maximum angular momentum in Aux-J        ...      4
Auxiliary J/K fitting basis                 ... NOT available
Auxiliary Correlation fitting basis         ... NOT available
Auxiliary 'external' fitting basis          ... NOT available

Checking pre-screening integrals            ... done (  0.0 sec) Dimension = 45
Check shell pair data                       ... done (  0.0 sec)
Shell pair information
Shell pair cut-off parameter TPreSel        ...   2.5e-12
Total number of shell pairs                 ...      1035
Shell pairs after pre-screening             ...      1035
Total number of primitive shell pairs       ...      9205
Primitive shell pairs kept                  ...      8324
          la=0 lb=0:    253 shell pairs
          la=1 lb=0:    374 shell pairs
          la=1 lb=1:    153 shell pairs
          la=2 lb=0:    132 shell pairs
          la=2 lb=1:    102 shell pairs
          la=2 lb=2:     21 shell pairs

Calculating one electron integrals          ... done (  0.0 sec)
Calculating ECP integrals                   ... done (  0.0 sec)
Calculating RI/J V-Matrix + Cholesky decomp.... done (  0.0 sec)
Calculating Nuclear repulsion               ... done (  0.0 sec) ENN=    103.199506930350 Eh

Diagonalization of the overlap matrix:
Smallest eigenvalue                        ... 1.441e-03
Time for diagonalization                   ...    0.002 sec
Threshold for overlap eigenvalues          ... 1.000e-07
Number of eigenvalues below threshold      ... 0
Time for construction of square roots      ...    0.002 sec
Total time needed                          ...    0.008 sec

-------------------
DFT GRID GENERATION
-------------------

General Integration Accuracy     IntAcc      ... 4.388
Radial Grid Type                 RadialGrid  ... OptM3 with GC (2021)
Angular Grid (max. ang.)         AngularGrid ... 4 (Lebedev-302)
Angular grid pruning method      GridPruning ... 4 (adaptive)
Weight generation scheme         WeightScheme... mBecke (2022)
Basis function cutoff            BFCut       ... 1.0000e-11
Integration weight cutoff        WCut        ... 1.0000e-14
Partially contracted basis set               ... off
Rotationally invariant grid construction     ... off
Angular grids for H and He will be reduced by one unit

Total number of grid points                  ...    53828
Total number of batches                      ...      848
Average number of points per batch           ...       63
Average number of grid points per atom       ...     4893

--------------------
COSX GRID GENERATION
--------------------

GRIDX 1
-------
General Integration Accuracy     IntAcc      ... 3.816
Radial Grid Type                 RadialGrid  ... OptM3 with GC (2021)
Angular Grid (max. ang.)         AngularGrid ... 1 (Lebedev-50)
Angular grid pruning method      GridPruning ... 4 (adaptive)
[...]
      0      -0.040028  -0.007452  -0.339689   0.000504   0.000563  -0.002158
      1       0.008001   0.001568   0.137836  -0.001989  -0.000171   0.000651
      2      -0.032645  -0.005112  -0.134425  -0.002463   0.000521  -0.001323
      3      -0.085653  -0.015198   0.390401   0.008064  -0.000503  -0.002872
      4       0.053536   0.005969  -0.190796   0.005785   0.001101  -0.003910
      5       0.002902   0.003952   0.100303   0.001245   0.000728  -0.009698
      6       0.063313  -0.014679  -0.062552   0.065090  -0.011225   0.027551
      7      -0.013351  -0.072771   0.038478   0.017373  -0.067589  -0.026435
      8      -0.012998  -0.029822   0.004050  -0.012331  -0.010804   0.085284
      9      -0.002010   0.000619  -0.004389  -0.471200  -0.002971   0.000250
     10       0.002001  -0.004834   0.004118  -0.405364  -0.001945   0.000397
     11       0.004383  -0.000992   0.001706  -0.026230   0.000134  -0.000420
     12       0.001147  -0.010409  -0.000457   0.536723   0.002539  -0.000351
     13       0.001599  -0.008771  -0.000902   0.517818   0.002456  -0.000525
     14       0.000424  -0.000387  -0.000021   0.051096   0.000292   0.000112
     15       0.000158   0.001036   0.000123  -0.030933  -0.000208   0.000047
     16       0.000180   0.000932   0.000093  -0.026532  -0.000212   0.000033
     17       0.000005   0.000062  -0.000031  -0.001654  -0.000023   0.000025
     18       0.449198   0.065191   0.072586  -0.000961  -0.004123   0.015877
     19      -0.003040  -0.007388   0.179481  -0.007864   0.003716  -0.018655
     20       0.505294   0.083800   0.388724   0.012054   0.005712  -0.016680
     21       0.470462   0.080524   0.255877  -0.002328  -0.001700   0.007971
     22      -0.349739  -0.045009  -0.309553   0.007194  -0.003243   0.009663
     23      -0.089607  -0.021557  -0.273730  -0.007372  -0.010022   0.028996
     24       0.213404   0.024291  -0.230698  -0.002435  -0.000843   0.043222
     25      -0.162624   0.003251   0.271687   0.007202  -0.000414   0.037375
     26      -0.027596  -0.007708   0.224581   0.018858  -0.002376   0.117291
     27      -0.136247   0.314879  -0.048747   0.153242  -0.061920  -0.042865
     28      -0.061341   0.310949   0.061662  -0.002228   0.684988   0.498797
     29      -0.059165   0.544528   0.045146   0.033051  -0.418586  -0.288016
     30      -0.244436   0.042390   0.154614   0.110947   0.219265  -0.293355
     31      -0.050021   0.657532  -0.080142   0.050037   0.113740  -0.173678
     32       0.114243  -0.213463  -0.048855  -0.086907   0.534515  -0.722797
                 30         31         32    
      0      -0.056127  -0.016854   0.021642
      1       0.018719   0.000516  -0.055535
      2      -0.030224  -0.018655  -0.079147
      3       0.001071   0.031289  -0.003999
      4      -0.008885   0.021940  -0.002775
      5      -0.014945   0.075686  -0.009603
      6      -0.002215   0.004786  -0.000682
      7       0.001111  -0.003821   0.000515
      8      -0.006036   0.009098  -0.000706
      9      -0.000143  -0.000638   0.000119
     10      -0.000069  -0.000370   0.000082
     11       0.000095  -0.000128   0.000055
     12       0.000164   0.000258  -0.000081
     13       0.000132   0.000460  -0.000106
     14      -0.000039   0.000187  -0.000032
     15      -0.000017  -0.000036   0.000008
     16      -0.000012  -0.000049   0.000010
     17       0.000002  -0.000010   0.000002
     18       0.358441   0.038458  -0.446302
     19      -0.400068  -0.042953   0.485837
     20      -0.334181  -0.035266   0.393675
     21       0.231214   0.079197   0.205886
     22       0.210080   0.070648   0.171876
     23       0.663517   0.223660   0.562319
     24       0.069182  -0.299441   0.034633
     25       0.069861  -0.286408   0.031696
     26       0.206132  -0.861030   0.096864
     27       0.002189  -0.007583   0.000753
     28      -0.025523   0.058781  -0.004746
     29       0.015209  -0.030848   0.002950
     30       0.021969  -0.032710   0.001965
     31       0.014988  -0.020886   0.003817
     32       0.058552  -0.084644   0.009659


-----------
IR SPECTRUM
-----------

 Mode   freq       eps      Int      T**2         TX        TY        TZ
       cm**-1   L/(mol*cm) km/mol    a.u.
----------------------------------------------------------------------------
  6:     27.99   0.000413    2.09  0.004603  (-0.013083 -0.034085  0.057185)
  7:     52.89   0.001034    5.22  0.006099  (-0.053097 -0.037913 -0.042919)
  8:    122.00   0.000650    3.28  0.001662  ( 0.013421  0.031310 -0.022399)
  9:    350.51   0.001373    6.94  0.001222  ( 0.001124  0.031029  0.016066)
 10:    416.87   0.000448    2.26  0.000335  (-0.009943 -0.013496  0.007379)
 11:    474.19   0.000422    2.13  0.000278  ( 0.003392 -0.004421  0.015699)
 12:    511.01   0.005374   27.16  0.003282  ( 0.035633  0.041788  0.016299)
 13:    640.29   0.002366   11.96  0.001153  (-0.008797  0.032505 -0.004400)
 14:    744.92   0.015356   77.60  0.006433  ( 0.064101  0.046684 -0.012027)
 15:    945.54   0.000885    4.47  0.000292  ( 0.015696  0.002937 -0.006081)
 16:    980.82   0.008935   45.15  0.002843  ( 0.027010  0.044502 -0.011526)
 17:    990.74   0.002997   15.15  0.000944  (-0.013650 -0.017617  0.021151)
 18:   1044.43   0.004437   22.42  0.001326  ( 0.020926  0.027143 -0.012291)
 19:   1174.34   0.002891   14.61  0.000768  ( 0.001699  0.024784  0.012291)
 20:   1185.10   0.001326    6.70  0.000349  ( 0.015886  0.008192  0.005440)
 21:   1309.89   0.000465    2.35  0.000111  (-0.000963 -0.009951  0.003309)
 22:   1343.53   0.001393    7.04  0.000324  ( 0.016035  0.007496  0.003206)
 23:   1393.27   0.008420   42.55  0.001886  ( 0.040679  0.015114 -0.001628)
 24:   1482.75   0.004206   21.26  0.000885  ( 0.028555 -0.001338  0.008253)
 25:   1522.07   0.001020    5.16  0.000209  (-0.009919  0.003791  0.009819)
 26:   1776.34   0.000780    3.94  0.000137  ( 0.009504 -0.006474  0.002208)
 27:   2261.68   0.305451  1543.63  0.042146  ( 0.162471  0.125125  0.009623)
 28:   3128.65   0.004530   22.89  0.000452  (-0.011354 -0.017817 -0.002346)
 29:   3187.76   0.000468    2.36  0.000046  ( 0.003314  0.001475  0.005713)
 30:   3212.11   0.000893    4.51  0.000087  (-0.007165 -0.000142 -0.005950)
 31:   3237.52   0.000353    1.78  0.000034  (-0.000247  0.000675  0.005788)
 32:   3313.57   0.000243    1.23  0.000023  ( 0.000583 -0.002215 -0.004197)

* The epsilon (eps) is given for a Dirac delta lineshape.
** The dipole moment derivative (T) already includes vibrational overlap.

The first frequency considered to be a vibration is 6
The total number of vibrations considered is 27


--------------------------
THERMOCHEMISTRY AT 298.15K
--------------------------

Temperature         ...   298.15 K
Pressure            ...     1.00 atm
Total Mass          ...    99.15 AMU
Quasi RRHO          ...     True
Cut-Off Frequency   ...     1.00 cm^-1

Throughout the following assumptions are being made:
  (1) The electronic state is orbitally nondegenerate
  (2) There are no thermally accessible electronically excited states
  (3) Hindered rotations indicated by low frequency modes are not
      treated as such but are treated as vibrations and this may
      cause some error
  (4) All equations used are the standard statistical mechanics
      equations for an ideal gas
  (5) All vibrations are strictly harmonic

freq.      27.99  E(vib)   ...       0.55 
freq.      52.89  E(vib)   ...       0.52 
freq.     122.00  E(vib)   ...       0.44 
freq.     350.51  E(vib)   ...       0.23 
freq.     416.87  E(vib)   ...       0.18 
freq.     474.19  E(vib)   ...       0.15 
freq.     511.01  E(vib)   ...       0.14 
freq.     640.29  E(vib)   ...       0.09 
freq.     744.92  E(vib)   ...       0.06 
freq.     945.54  E(vib)   ...       0.03 
freq.     980.82  E(vib)   ...       0.02 
freq.     990.74  E(vib)   ...       0.02 
freq.    1044.43  E(vib)   ...       0.02 
freq.    1174.34  E(vib)   ...       0.01 
freq.    1185.10  E(vib)   ...       0.01 
freq.    1309.89  E(vib)   ...       0.01 
freq.    1343.53  E(vib)   ...       0.01 
freq.    1393.27  E(vib)   ...       0.00 
freq.    1482.75  E(vib)   ...       0.00 
freq.    1522.07  E(vib)   ...       0.00 
freq.    1776.34  E(vib)   ...       0.00 
freq.    2261.68  E(vib)   ...       0.00 
freq.    3128.65  E(vib)   ...       0.00 
freq.    3187.76  E(vib)   ...       0.00 
freq.    3212.11  E(vib)   ...       0.00 
freq.    3237.52  E(vib)   ...       0.00 
freq.    3313.57  E(vib)   ...       0.00 

------------
INNER ENERGY
------------

The inner energy is: U= E(el) + E(ZPE) + E(vib) + E(rot) + E(trans)
    E(el)   - is the total energy from the electronic structure calculation
              = E(kin-el) + E(nuc-el) + E(el-el) + E(nuc-nuc)
    E(ZPE)  - the the zero temperature vibrational energy from the frequency calculation
    E(vib)  - the the finite temperature correction to E(ZPE) due to population
              of excited vibrational states
    E(rot)  - is the rotational thermal energy
    E(trans)- is the translational thermal energy

Summary of contributions to the inner energy U:
Electronic energy                ...    -45.92253028 Eh
Zero point energy                ...      0.08390671 Eh      52.65 kcal/mol
Thermal vibrational correction   ...      0.00398310 Eh       2.50 kcal/mol
Thermal rotational correction    ...      0.00141627 Eh       0.89 kcal/mol
Thermal translational correction ...      0.00141627 Eh       0.89 kcal/mol
-----------------------------------------------------------------------
Total thermal energy                    -45.83180793 Eh


Summary of corrections to the electronic energy:
(perhaps to be used in another calculation)
Total thermal correction                  0.00681565 Eh       4.28 kcal/mol
Non-thermal (ZPE) correction              0.08390671 Eh      52.65 kcal/mol
-----------------------------------------------------------------------
Total correction                          0.09072235 Eh      56.93 kcal/mol


--------
ENTHALPY
--------

The enthalpy is H = U + kB*T
                kB is Boltzmann's constant
Total thermal energy              ...    -45.83180793 Eh 
Thermal Enthalpy correction       ...      0.00094421 Eh       0.59 kcal/mol
-----------------------------------------------------------------------
Total Enthalpy                    ...    -45.83086372 Eh


Note: Only C1 symmetry has been detected, increase convergence thresholds 
      if your molecule has a higher symmetry. Symmetry factor of 1.0 is   
      used for the rotational entropy correction. 
 

Note: Rotational entropy computed according to Herzberg 
Infrared and Raman Spectra, Chapter V,1, Van Nostrand Reinhold, 1945 
Point Group:  C1, Symmetry Number:   1  
Rotational constants in cm-1:     0.285191     0.040291     0.036533 

Vibrational entropy computed according to the QRRHO of S. Grimme
Chem.Eur.J. 2012 18 9955 using a reference frequency of 100.0 cm-1


-------
ENTROPY
-------

The entropy contributions are T*S = T*(S(el)+S(vib)+S(rot)+S(trans))
     S(el)   - electronic entropy
     S(vib)  - vibrational entropy
     S(rot)  - rotational entropy
     S(trans)- translational entropy
The entropies will be listed as multiplied by the temperature to get
units of energy

Electronic entropy                ...      0.00000000 Eh      0.00 kcal/mol
Vibrational entropy               ...      0.00726824 Eh      4.56 kcal/mol
Rotational entropy                ...      0.01318167 Eh      8.27 kcal/mol
Translational entropy             ...      0.01885917 Eh     11.83 kcal/mol
-----------------------------------------------------------------------
Final entropy term                ...      0.03930908 Eh     24.67 kcal/mol

In case the symmetry of your molecule has not been determined correctly
or in case you have a reason to use a different symmetry number we print 
out the resulting rotational entropy values for sn=1,12:

 non-linear molecules -----------------------------------
|  sn= 1 | S(rot)=       0.01318167 Eh      8.27 kcal/mol|
|  sn= 2 | S(rot)=       0.01252721 Eh      7.86 kcal/mol|
|  sn= 3 | S(rot)=       0.01214438 Eh      7.62 kcal/mol|
|  sn= 4 | S(rot)=       0.01187276 Eh      7.45 kcal/mol|
|  sn= 5 | S(rot)=       0.01166207 Eh      7.32 kcal/mol|
|  sn= 6 | S(rot)=       0.01148993 Eh      7.21 kcal/mol|
|  sn= 7 | S(rot)=       0.01134438 Eh      7.12 kcal/mol|
|  sn= 8 | S(rot)=       0.01121830 Eh      7.04 kcal/mol|
|  sn= 9 | S(rot)=       0.01110709 Eh      6.97 kcal/mol|
|  sn=10 | S(rot)=       0.01100761 Eh      6.91 kcal/mol|
|  sn=11 | S(rot)=       0.01091762 Eh      6.85 kcal/mol|
|  sn=12 | S(rot)=       0.01083547 Eh      6.80 kcal/mol|
 linear molecules ---------------------------------------
|  Dinfh | S(rot)=       0.00845060 Eh      5.30 kcal/mol|
|  Cinfv | S(rot)=       0.00910506 Eh      5.71 kcal/mol|
 --------------------------------------------------------


-------------------
GIBBS FREE ENERGY
-------------------

The Gibbs free energy is G = H - T*S

Total enthalpy                    ...    -45.83086372 Eh 
Total entropy correction          ...     -0.03930908 Eh    -24.67 kcal/mol
-----------------------------------------------------------------------
Final Gibbs free energy         ...    -45.87017280 Eh

For completeness - the Gibbs free energy minus the electronic energy
G-E(el)                           ...      0.05235748 Eh     32.85 kcal/mol


Maximum memory used throughout the entire PROP-calculation: 30.4 MB

--------------------------------
SUGGESTED CITATIONS FOR THIS RUN
--------------------------------

Below you find a list of papers that are relevant to this ORCA run
We neither can nor want to force you to cite these papers, but we appreciate if you do
You receive ORCA, which is the product of decades of hard work by many enthusiastic individuals, for free
The only thing we kindly ask in return is that you cite our papers,
We deeply appreciate it, if you show your appreciation for ORCA by not just citing the generic ORCA reference.

Please note that relegating all ORCA citations to the supporting information does *not* help us.
SI sections are not indexed - citations you put there will not count into any citation statistics
But we need these citations in order to attract the funding resources that allow us to do what we are doing

Therefore, if you are a happy ORCA user, please consider citing a few of the papers listed below in the main body of your paper

In addition to the list printed below, the program has created the file ./output/allyl_isothiocyanate/allyl_isothiocyanate.bibtex that contains the list in bibtex format
You can import this file easily into all common literature databanks and citation aid programs


List of essential papers. We consider these as the minimum necessary citations

  1. Neese,F.
     Software update: the ORCA program system, version 5.0
     WIRES Comput. Molec. Sci., 2022 12(1)e1606
     doi.org/10.1002/wcms.1606
  2. Mueller,M.; Hansen,A.; Grimme,S.
     wB97X-3c: A composite range-separated hybrid DFT method with a molecule-optimized polarized valence double-zeta basis set
     J. Chem. Phys., 2023 158 014103
     doi.org/10.1063/5.0133026

List of papers to cite with high priority. The work reported in these papers was absolutely
necessary for this run to complete.
Our perspective: the developers of density functionals and basis sets usually get cited in chemistry papers
Good! But without the algorithms to do something with them, the functionals or basis sets would not do anything.
Hence, in our opinion, the algorithm design and method developments papers are equally worthy of getting cited

  1. Neese,F.
     An improvement of the resolution of the identity approximation for the formation of the Coulomb matrix
     J. Comp. Chem., 2003 24(14)1740-1747
     doi.org/10.1002/jcc.10318
  2. Neese,F.; Wennmohs,F.; Hansen,A.; Becker,U.
     Efficient, approximate and parallel Hartree-Fock and hybrid DFT calculations. A 'chain-of-spheres' algorithm for the Hartree-Fock exchange
     Chem. Phys., 2009 356(1-3)98-109
     doi.org/10.1016/j.chemphys.2008.10.036
  3. Bykov,D.; Petrenko,T.; Izsak,R.; Kossmann,S.; Becker,U.; Valeev,E.; Neese,F.
     Efficient implementation of the analytic second derivatives of Hartree-Fock and hybrid DFT energies: a detailed analysis of different approximations
     Molec. Phys., 2015 113 1961-1977
     doi.org/10.1080/00268976.2015.1025114
  4. Helmich-Paris,B.; de Souza,B.; Neese,F.; Izsák,R.
     An improved chain of spheres for exchange algorithm
     J. Chem. Phys., 2021 155 104109
     doi.org/doi: 10.1063/5.0058766.
  5. Neese,F.
     The SHARK Integral Generation and Digestion System
     J. Comp. Chem., 2022  1-16
     doi.org/10.1002/jcc.26942
  6. Caldeweyher,E.; Bannwarth,C.; Grimme,S.
     Extension of the D3 dispersion coefficient model
     J. Chem. Phys., 2017 147 034112
     doi.org/10.1063/1.4993215
  7. Caldeweyher,E.; Ehlert,S.; Hansen,A.; Neugebauer,H.; Spicher,S.; Bannwarth,C.; Grimme,S.
     A generally applicable atomic-charge dependent London dispersion correction
     J. Chem. Phys., 2019 150 154122
     doi.org/10.1063/1.5090222
  8. Caldeweyher,E.; Mewes,J.; Ehlert,S.; Grimme,S.
     Extension and evaluation of the D4 London-dispersion model for periodic systems
     Phys. Chem. Chem. Phys., 2020 22(16)8499-8512
     doi.org/10.1039/D0CP00502A
  9. Wittmann,L.; Gordiy,I.; Friede,M.; Helmich-Paris,B.; Grimme,S.; Hansen,A.; Bursch,M.
     Extension of the D3 and D4 London Dispersion Corrections to the full Actinides Series
     Phys. Chem. Chem. Phys., 2024 26(32)21379-21394
     doi.org/https://doi.org/10.1039/D4CP01514B 

List of suggested additional citations. These are papers that are important in the 'surrounding' of 
of this run, or papers that preceded the highly important papers. If you like your results we are grateful for a citation.

  1. Izsak,R.; Neese,F.
     An overlap fitted chain of spheres exchange method
     J. Chem. Phys., 2011 135 144105
     doi.org/10.1063/1.3646921
  2. Izsak,R.; Hansen,A.; Neese,F.
     The resolution of identity and chain of spheres approximations for the LPNO-CCSD singles Fock term
     Molec. Phys., 2012 110 2413-2417
     doi.org/10.1080/00268976.2012.687466
  3. Neese,F.
     The ORCA program system
     WIRES Comput. Molec. Sci., 2012 2(1)73-78
     doi.org/10.1002/wcms.81
  4. Izsak,R.; Neese,F.; Klopper,W.
     Robust fitting techniques in the chain of spheres approximation to the Fock exchange: The role of the complementary space
     J. Chem. Phys., 2013 139 
     doi.org/10.1063/1.4819264
  5. Neese,F.
     Software update: the ORCA program system, version 4.0
     WIRES Comput. Molec. Sci., 2018 8(1)1-6
     doi.org/10.1002/wcms.1327
  6. Neese,F.; Wennmohs,F.; Becker,U.; Riplinger,C.
     The ORCA quantum chemistry program package
     J. Chem. Phys., 2020 152 Art. No. L224108
     doi.org/10.1063/5.0004608

List of optional additional citations

  1. Neese,F.
     Approximate second-order SCF convergence for spin unrestricted wavefunctions
     Chem. Phys. Lett., 2000 325(1-3)93-98
     doi.org/10.1016/s0009-2614(00)00662-x

Timings for individual modules:

Sum of individual times          ...      565.959 sec (=   9.433 min)
Startup calculation              ...       50.672 sec (=   0.845 min)   9.0 %
SCF iterations                   ...      409.001 sec (=   6.817 min)  72.3 %
Property integrals               ...       18.024 sec (=   0.300 min)   3.2 %
SCF Response                     ...       10.043 sec (=   0.167 min)   1.8 %
Property calculations            ...       14.857 sec (=   0.248 min)   2.6 %
SCF Gradient evaluation          ...       63.019 sec (=   1.050 min)  11.1 %
Geometry relaxation              ...        0.343 sec (=   0.006 min)   0.1 %
                             ****ORCA TERMINATED NORMALLY****
TOTAL RUN TIME: 0 days 0 hours 9 minutes 37 seconds 423 msec
