
                                 *****************
                                 * O   R   C   A *
                                 *****************

                                            #,                                       
                                            ###                                      
                                            ####                                     
                                            #####                                    
                                            ######                                   
                                           ########,                                 
                                     ,,################,,,,,                         
                               ,,#################################,,                 
                          ,,##########################################,,             
                       ,#########################################, ''#####,          
                    ,#############################################,,   '####,        
                  ,##################################################,,,,####,       
                ,###########''''           ''''###############################       
              ,#####''   ,,,,##########,,,,          '''####'''          '####       
            ,##' ,,,,###########################,,,                        '##       
           ' ,,###''''                  '''############,,,                           
         ,,##''                                '''############,,,,        ,,,,,,###''
      ,#''                                            '''#######################'''  
     '                                                          ''''####''''         
             ,#######,   #######,   ,#######,      ##                                
            ,#'     '#,  ##    ##  ,#'     '#,    #''#        ,####,   ,####,        
            ##       ##  ##   ,#'  ##            #'  '#       #'       #'  '#        
            ##       ##  #######   ##           ,######,      #####,   #    #        
            '#,     ,#'  ##    ##  '#,     ,#' ,#      #,     #,   #   #,  ,#        
             '#######'   ##     ##  '#######'  #'      '#     '####' # '####'        



                #########################################################
                #                        -***-                          #
                #          Department of theory and spectroscopy        #
                #                                                       #
                #                      Frank Neese                      #
                #                                                       #
                #     Directorship, Architecture, Infrastructure        #
                #                    SHARK, DRIVERS                     #
                #        Core code/Algorithms in most modules           #
                #                                                       #
                #        Max Planck Institute fuer Kohlenforschung      #
                #                Kaiser Wilhelm Platz 1                 #
                #                 D-45470 Muelheim/Ruhr                 #
                #                      Germany                          #
                #                                                       #
                #                  All rights reserved                  #
                #                        -***-                          #
                #########################################################


                         Program Version 6.0.1  -  RELEASE   -


 With contributions from (in alphabetic order):
[Max-Planck-Institut fuer Kohlenforschung]                               
  Daniel Aravena         : Magnetic Suceptibility                        
  Michael Atanasov       : Ab Initio Ligand Field Theory (pilot matlab implementation)
  Alexander A. Auer      : GIAO ZORA, VPT2 properties, NMR spectrum      
  Ute Becker             : All parallelization in ORCA, NUMFREQ, NUMCALC 
  Giovanni Bistoni       : ED, misc. LED, open-shell LED, HFLD           
  Martin Brehm           : Molecular dynamics                            
  Dmytro Bykov           : pre 5.0 version of the SCF Hessian            
  Marcos Casanova-Páez   : Triplet and SCS-CIS(D). UHF-(DLPNO)-IP/EA/STEOM-CCSD. UHF-CVS-IP/STEOM-CCSD   
  Vijay G. Chilkuri      : MRCI spin determinant printing, contributions to CSF-ICE 
  Pauline Colinet        : FMM embedding                                 
  Dipayan Datta          : RHF DLPNO-CCSD density                        
  Achintya Kumar Dutta   : EOM-CC, STEOM-CC                              
  Nicolas Foglia         : Exact transition moments, OPA infrastructure, MCD improvements    
  Dmitry Ganyushin       : Spin-Orbit,Spin-Spin,Magnetic field MRCI      
  Miquel Garcia-Rates    : C-PCM and meta-GGA Hessian, CCSD/C-PCM, Gaussian charge scheme 
  Tiago L. C. Gouveia    : GS-ROHF, GS-ROCIS                             
  Yang Guo               : DLPNO-NEVPT2, F12-NEVPT2, CIM, IAO-localization        
  Andreas Hansen         : Spin unrestricted coupled pair/coupled cluster methods 
  Ingolf Harden          : AUTO-CI MPn and infrastructure                
  Benjamin Helmich-Paris : MC-RPA, TRAH-(SCF,CASSCF), AVAS, COSX integrals, SCF dyn. polar. 
  Lee Huntington         : MR-EOM, pCC                                   
  Robert Izsak           : Overlap fitted RIJCOSX, COSX-SCS-MP3, EOM     
  Riya Kayal             : Wick's Theorem for AUTO-CI, AUTO-CI UHF-CCSDT 
  Emily Kempfer          : AUTO-CI, RHF CISDT and CCSDT                  
  Christian Kollmar      : KDIIS, OOCD, Brueckner-CCSD(T), CCSD density, CASPT2, CASPT2-K, improved NEVPT2 
  Axel Koslowski         : Symmetry handling                             
  Simone Kossmann        : meta-GGA functionals, TD-DFT gradient, OOMP2, (MP2 Hessian; deprecated post 5.0) 
  Lucas Lang             : DCDCAS                                        
  Marvin Lechner         : AUTO-CI (C++ implementation), FIC-MRCC        
  Spencer Leger          : CASSCF response                               
  Dagmar Lenk            : GEPOL surface, SMD, ORCA-2-JSON               
  Dimitrios Liakos       : Extrapolation schemes; Compound Job, initial MDCI parallelization 
  Dimitrios Manganas     : Further ROCIS development; embedding schemes. LFT, Crystal Embedding 
  Dimitrios Pantazis     : SARC Basis sets                               
  Anastasios Papadopoulos: AUTO-CI, single reference methods and gradients 
  Taras Petrenko         : pre 6.0 DFT Hessian and TD-DFT gradient, (ASA, deprecated), ECA, 1-Electron XAS/XES, NRVS 
  Peter Pinski           : DLPNO-MP2, DLPNO-MP2 Gradient                 
  Christoph Reimann      : Effective Core Potentials                     
  Marius Retegan         : Local ZFS, SOC                                
  Christoph Riplinger    : Optimizer, TS searches, QM/MM, DLPNO-CCSD(T), (RO)-DLPNO pert. Triples 
  Michael Roemelt        : Original ROCIS implementation                 
  Masaaki Saitow         : Open-shell DLPNO-CCSD energy and density      
  Barbara Sandhoefer     : DKH picture change effects                    
  Kantharuban Sivalingam : CASSCF convergence/infrastructure, NEVPT2 and variants, FIC-MRCI 
  Bernardo de Souza      : ESD, SOC TD-DFT                               
  Georgi L. Stoychev     : AutoAux, RI-MP2 NMR, DLPNO-MP2 response, X2C  
  Van Anh Tran           : RI-MP2 g-tensors                              
  Willem Van den Heuvel  : Paramagnetic NMR                              
  Zikuan Wang            : NOTCH, Electric field optimization            
  Frank Wennmohs         : Technical directorship and infrastructure     
  Hang Xu                : AUTO-CI-Response properties                   
                                                                         
[FACCTs GmbH]                                                            
  Markus Bursch, Miquel Garcia-Rates, Christoph Riplinger, Bernardo de Souza, Georgi L. Stoychev 
                                                                 
  APM, Basis sets (HGBS, AHGBS, def-TZVP (Ac-Lr), def2-XVPD (La-Lu)), CI-OPT, improved COSX, DLPNO-Multilevel,           
  DOCKER, DRACO, updates on ESD, GOAT, IRC, LR-CPCM, MBIS, meta-GGA TD-DFT gradient, ML-optimized integration grids, 
  MM, NACMEs, nearIR, NEB, NEB-TS, NL-DFT gradient (VV10), 2- and 3-layer-ONIOM, interface openCOSMO-RS, QMMM,   
  Crystal-QMMM, SF, symmetry and pop. for TD-DFT, r2SCAN hybrids, SOLVATOR                                   
                                                                         
[Other institutions]                                                     
  V. Asgeirsson          : NEB                                           
  Christoph Bannwarth    : sTDA-DFT, sTD-DFT, PBEh-3c, B97-3c, D3        
  Sebastian Ehlert       : rSCAN, r2SCAN, r2SCAN-3c, D4, dhf basis sets  
  Marvin Friede          : D4 for Fr, Ra, Ac-Lr                          
  Lars Goerigk           : TD-DFT with DH, B97 family of functionals     
  Stefan Grimme          : VdW corrections, initial TS optimization, DFT functionals, gCP, sTDA/sTD-DF 
  Waldemar Hujo          : DFT-NL                                        
  H. Jonsson             : NEB                                           
  Holger Kruse           : gCP                                           
  Marcel Mueller         : wB97X-3c, vDZP basis set                      
  Hagen Neugebauer       : wr2SCAN                                       
  Tobias Risthaus        : range-separated hybrid DFT                    
  Lukas Wittmann         : regularized MP2, r2SCAN double-hybrids, wr2SCAN        
                                                                         
We gratefully acknowledge several colleagues who have allowed us to      
interface, adapt or use parts of their codes:                            
  Ed Valeev, F. Pavosevic, A. Kumar             : LibInt (2-el integral package), F12 methods 
  Garnet Chan, S. Sharma, J. Yang, R. Olivares  : DMRG                   
  Ulf Ekstrom                                   : XCFun DFT Library      
  Mihaly Kallay                                 : mrcc  (arbitrary order and MRCC methods)
  Frank Weinhold                                : gennbo (NPA and NBO analysis)           
  Simon Mueller                                 : openCOSMO-RS                            
  Christopher J. Cramer and Donald G. Truhlar   : smd solvation model                     
  S Lehtola, MJT Oliveira, MAL Marques          : LibXC Library                           
  Liviu Ungur et al                             : ANISO software                          


 Your calculation uses the libint2 library for the computation of 2-el integrals
 For citations please refer to: http://libint.valeyev.net

 Your ORCA version has been built with support for libXC version: 6.2.2
 For citations please refer to: https://libxc.gitlab.io

 This ORCA versions uses:
   CBLAS   interface :  Fast vector & matrix operations
   LAPACKE interface :  Fast linear algebra routines
   SCALAPACK package :  Parallel linear algebra routines
   Shared memory     :  Shared parallel matrices
   BLAS/LAPACK       :  OpenBLAS 0.3.27  USE64BITINT DYNAMIC_ARCH NO_AFFINITY SkylakeX SINGLE_THREADED
        Core in use  :  SkylakeX
   Copyright (c) 2011-2014, The OpenBLAS Project


Your calculation utilizes the atom-pairwise dispersion correction
based on EEQ partial charges (D4)


================================================================================

cite the ECPs for C  [vDZP-ECP], O  [vDZP-ECP] as follows:
   B-Ne (ecp-2-mwb), Al-Ar (ecp-10-mwb), Ga-Kr (ecp-28-mwb), Y-Cd (ecp-28-mwb), In-Xe (ecp-46-mwb):
     A. Bergner, M. Dolg, W. Küchle, H. Stoll, and H. Preuß, Mol. Phys. 80, 1431 (1993)., T. Leininger, A. Berning, A. Nicklass, H. Stoll, H.-J. Werner, and H.-J.Flad, Chem. Phys. 217, 19 (1997).
   Na-Mg, K-Ca, Rb-Sr, Cs-Ba (CRENBL):
     L. Fernandez Pacios and P. A. Christiansen, J. Chem. Phys. 82, 2664 (1985)., M. M. Hurley, L. F. Pacios, P. A. Christiansen, R. B. Ross, and W. C. Ermler, J. Chem. Phys. 84, 6840 (1986)., L. A. LaJohn, P. A. Christiansen, R. B. Ross, T. Atashroo, and W. C. Ermler, J. Chem. Phys. 87, 2812 (1987)., R. B. Ross, J. M. Powers, T. Atashroo, W. C. Ermler, L. A. LaJohn, and P. A. Christiansen, J. Chem. Phys. 93, 6654 (1990). 
   Sc-Zn (ecp-10-mdf):
     M. Dolg, U. Wedig, H. Stoll, and H. Preuss, J. Chem. Phys. 86, 866 (1986). 
   Y-Cd (ecp-28-mwb), Hf-Hg (ecp-60-mwb):
     D. Andrae, U. Häußermann, M. Dolg, H. Stoll, and H. Preuß, Theor. Chim. Acta 77, 123 (1990). 
   La (ecp-46-mwb):
     M. Dolg, H. Stoll, and H. Preuss, J. Chem. Phys. 90, 1730 (1989)., M. Dolg, H. Stoll, and H. Preuss, Theor. Chim. Acta 85, 441 (1993).
   Ce-Lu (SBKJC-ecp):
     T. R. Cundari and W. J. Stevens, J. Chem. Phys. 98, 5555 (1993).
   Tl-Rn (ecp-78-mwb):
     W. Küchle, M. Dolg, H. Stoll, and H. Preuss, Mol. Phys. 74, 1245 (1991).

ECP parameters for C  [vDZP-ECP], O  [vDZP-ECP] have been obtained from:
MM, AH, SG, J. Chem. Phys. 158, 014103 (2023), 10.1063/5.0133026

----- Orbital basis set information -----
Your calculation utilizes the basis: vDZP
   Marcel Mueller, Andreas Hansen, Stefan Grimme 
   J. Chem. Phys. 158, 014103 (2023). DOI: 10.1063/5.0133026

----- AuxJ basis set information -----
Your calculation utilizes the auxiliary basis: def2/J
   F. Weigend, Phys. Chem. Chem. Phys. 8, 1057 (2006).

================================================================================
                                        WARNINGS
                       Please study these warnings very carefully!
================================================================================

WARNING: Frozen-Core approximation turned on, but there are no core electrons.
  ===> : Turning off frozen-core approximation


WARNING: Geometry Optimization
  ===> : Switching off AutoStart
         For restart on a previous wavefunction, please use MOREAD

================================================================================
                                       INPUT FILE
================================================================================
NAME = ./output/_2e_6e_farnesol/_2e_6e_farnesol.inp
|  1> ! wB97X-3c OPT FREQ TightSCF
|  2> %pal
|  3>   nprocs 40
|  4> end
|  5> * xyz 0 1
|  6> C     -4.420674     0.733635     2.217698
|  7> C     -4.940468     0.346837     0.855011
|  8> C     -4.174112     0.428920    -0.256484
|  9> C     -2.723463     0.842271    -0.259523
| 10> C     -1.812249    -0.369311    -0.034262
| 11> C     -0.360725     0.053396     0.022915
| 12> C      0.286701     0.335642    -1.131090
| 13> C      1.734180     0.749824    -1.221057
| 14> C      2.652994    -0.475692    -1.271938
| 15> C      4.105068    -0.053687    -1.381293
| 16> C      4.882936     0.182187    -0.300538
| 17> C      4.432737     0.014808     1.128122
| 18> O      4.246929    -1.340829     1.431937
| 19> C      4.694751     0.167155    -2.750173
| 20> C      0.315350     0.170067     1.369062
| 21> C     -6.372426    -0.109587     0.746760
| 22> H     -5.198706     0.578168     2.995026
| 23> H     -3.540419     0.115548     2.487646
| 24> H     -4.139940     1.807494     2.227067
| 25> H     -4.602721     0.160792    -1.218591
| 26> H     -2.528302     1.625280     0.503762
| 27> H     -2.493494     1.289037    -1.250937
| 28> H     -2.097099    -0.883447     0.907773
| 29> H     -1.955459    -1.107744    -0.854212
| 30> H     -0.255394     0.256148    -2.070156
| 31> H      2.008788     1.423247    -0.383266
| 32> H      1.867720     1.332243    -2.158626
| 33> H      2.382124    -1.092202    -2.156968
| 34> H      2.492802    -1.126277    -0.389724
| 35> H      5.903643     0.524144    -0.454042
| 36> H      3.485856     0.565413     1.299937
| 37> H      5.195179     0.453487     1.810408
| 38> H      5.151871    -1.744962     1.493326
| 39> H      3.944322    -0.013701    -3.548352
| 40> H      5.549211    -0.524585    -2.907052
| 41> H      5.051645     1.214954    -2.842186
| 42> H      0.679383     1.206687     1.525678
| 43> H      1.163907    -0.539504     1.437529
| 44> H     -0.388878    -0.062183     2.195014
| 45> H     -6.533596    -0.984126     1.411455
| 46> H     -6.642770    -0.406619    -0.289335
| 47> H     -7.047202     0.713137     1.063679
| 48> *
| 49> 
| 50>                          ****END OF INPUT****
================================================================================

                       *****************************
                       * Geometry Optimization Run *
                       *****************************

Geometry optimization settings:
Update method            Update   .... BFGS
Choice of coordinates    CoordSys .... (2022) Redundant Internals
Initial Hessian          InHess   .... Almloef's Model
Max. no of cycles        MaxIter  .... 126

Convergence Tolerances:
Energy Change            TolE     ....  5.0000e-06 Eh
Max. Gradient            TolMAXG  ....  3.0000e-04 Eh/bohr
RMS Gradient             TolRMSG  ....  1.0000e-04 Eh/bohr
Max. Displacement        TolMAXD  ....  4.0000e-03 bohr
RMS Displacement         TolRMSD  ....  2.0000e-03 bohr
Strict Convergence                .... False

------------------------------------------------------------------------------
                        ORCA OPTIMIZATION COORDINATE SETUP
------------------------------------------------------------------------------

The optimization will be done in redundant internal coordinates (2022)
Making redundant internal coordinates   ...  (2022 redundants) done
Evaluating the initial hessian          ...  (Almloef) done
Evaluating the coordinates              ...  done
Calculating the B-matrix                .... done
Calculating the G-matrix                .... done
Diagonalizing the G-matrix              .... done
Small eigenvalue found = 1.875e-03
Small eigenvalue found = 2.903e-03
Small eigenvalue found = 7.538e-03
Small eigenvalue found = 8.658e-03
Small eigenvalue found = 1.063e-02
Small eigenvalue found = 1.560e-02
Small eigenvalue found = 1.975e-02
Small eigenvalue found = 2.871e-02
The first mode is                       ....   66
The number of degrees of freedom        ....  120

    -----------------------------------------------------------------
                    Redundant Internal Coordinates


    -----------------------------------------------------------------
         Definition                    Initial Value    Approx d2E/dq
    -----------------------------------------------------------------
      1. B(C   1,C   0)                  1.5089         0.403716   
      2. B(C   2,C   1)                  1.3526         0.716881   
      3. B(C   3,C   2)                  1.5084         0.404436   
      4. B(C   4,C   3)                  1.5326         0.369970   
      5. B(C   5,C   4)                  1.5129         0.397792   
      6. B(C   6,C   5)                  1.3530         0.715820   
      7. B(C   7,C   6)                  1.5083         0.404640   
      8. B(C   8,C   7)                  1.5325         0.370097   
      9. B(C   9,C   8)                  1.5161         0.393143   
     10. B(C  10,C   9)                  1.3523         0.717576   
     11. B(C  11,C  10)                  1.5072         0.406157   
     12. B(O  12,C  11)                  1.4016         0.536183   
     13. B(C  13,C   9)                  1.5068         0.406868   
     14. B(C  14,C   5)                  1.5109         0.400737   
     15. B(C  15,C   1)                  1.5068         0.406761   
     16. B(H  16,C   0)                  1.1107         0.333683   
     17. B(H  17,C   0)                  1.1089         0.335894   
     18. B(H  18,C   0)                  1.1100         0.334606   
     19. B(H  19,C   2)                  1.0869         0.364288   
     20. B(H  20,C   3)                  1.1108         0.333654   
     21. B(H  21,C   3)                  1.1115         0.332777   
     22. B(H  22,C   4)                  1.1104         0.334146   
     23. B(H  23,C   4)                  1.1127         0.331284   
     24. B(H  24,C   6)                  1.0872         0.363806   
     25. B(H  25,C   7)                  1.1094         0.335311   
     26. B(H  26,C   7)                  1.1118         0.332396   
     27. B(H  27,C   8)                  1.1121         0.332038   
     28. B(H  28,C   8)                  1.1078         0.337305   
     29. B(H  29,C  10)                  1.0874         0.363616   
     30. B(H  30,C  11)                  1.1087         0.336163   
     31. B(H  31,C  11)                  1.1132         0.330650   
     32. B(H  32,O  12)                  0.9930         0.460624   
     33. B(H  33,C  13)                  1.1104         0.334125   
     34. B(H  34,C  13)                  1.1105         0.333973   
     35. B(H  35,C  13)                  1.1107         0.333694   
     36. B(H  36,C  14)                  1.1098         0.334852   
     37. B(H  37,C  14)                  1.1083         0.336744   
     38. B(H  38,C  14)                  1.1100         0.334606   
     39. B(H  39,C  15)                  1.1102         0.334307   
     40. B(H  40,C  15)                  1.1112         0.333097   
     41. B(H  41,C  15)                  1.1102         0.334295   
     42. A(H  17,C   0,H  18)          109.6583         0.284411   
     43. A(C   1,C   0,H  17)          110.5126         0.324746   
     44. A(C   1,C   0,H  16)          110.7837         0.324394   
     45. A(H  16,C   0,H  17)          107.9172         0.284289   
     46. A(H  16,C   0,H  18)          107.8582         0.284119   
     47. A(C   1,C   0,H  18)          110.0448         0.324541   
     48. A(C   0,C   1,C   2)          122.1002         0.412596   
     49. A(C   2,C   1,C  15)          119.8534         0.413147   
     50. A(C   0,C   1,C  15)          118.0279         0.373643   
     51. A(C   1,C   2,H  19)          119.2770         0.362440   
     52. A(C   1,C   2,C   3)          124.2764         0.412727   
     53. A(C   3,C   2,H  19)          116.4286         0.329212   
     54. A(C   2,C   3,C   4)          110.7845         0.367712   
     55. A(C   2,C   3,H  20)          111.1471         0.324484   
     56. A(C   2,C   3,H  21)          108.1153         0.324344   
     57. A(C   4,C   3,H  20)          110.5976         0.319784   
     58. A(H  20,C   3,H  21)          107.0519         0.283873   
     59. A(C   4,C   3,H  21)          109.0165         0.319647   
     60. A(C   3,C   4,H  22)          109.7679         0.319861   
     61. A(H  22,C   4,H  23)          106.5518         0.283740   
     62. A(C   3,C   4,C   5)          110.7996         0.366670   
     63. A(C   5,C   4,H  23)          109.6792         0.323224   
     64. A(C   3,C   4,H  23)          109.8643         0.319412   
     65. A(C   5,C   4,H  22)          110.0865         0.323681   
     66. A(C   6,C   5,C  14)          121.9854         0.411946   
     67. A(C   4,C   5,C  14)          118.9837         0.371736   
     68. A(C   4,C   5,C   6)          119.0228         0.411408   
     69. A(C   5,C   6,C   7)          124.5692         0.412655   
     70. A(C   7,C   6,H  24)          116.5562         0.329168   
     71. A(C   5,C   6,H  24)          118.8727         0.362267   
     72. A(C   6,C   7,C   8)          110.9628         0.367766   
     73. A(H  25,C   7,H  26)          106.8048         0.284041   
     74. A(C   8,C   7,H  26)          108.5963         0.319605   
     75. A(C   6,C   7,H  26)          108.0249         0.324309   
     76. A(C   8,C   7,H  25)          111.2275         0.320061   
     77. A(C   6,C   7,H  25)          111.0508         0.324775   
     78. A(H  27,C   8,H  28)          105.8416         0.284255   
     79. A(C   9,C   8,H  28)          111.0637         0.323556   
     80. A(C   7,C   8,H  28)          110.8846         0.320371   
     81. A(C   9,C   8,H  27)          109.2803         0.322722   
     82. A(C   7,C   8,H  27)          108.8870         0.319548   
     83. A(C   7,C   8,C   9)          110.7337         0.365953   
     84. A(C  10,C   9,C  13)          118.3840         0.413238   
     85. A(C   8,C   9,C  13)          118.7609         0.371955   
     86. A(C   8,C   9,C  10)          122.8081         0.410729   
     87. A(C  11,C  10,H  29)          116.6872         0.329343   
     88. A(C   9,C  10,H  29)          118.8152         0.362386   
     89. A(C   9,C  10,C  11)          124.4958         0.413109   
     90. A(H  30,C  11,H  31)          107.1123         0.283921   
     91. A(O  12,C  11,H  31)          109.8204         0.337429   
     92. A(C  10,C  11,H  31)          109.4270         0.324228   
     93. A(O  12,C  11,H  30)          109.4819         0.338360   
     94. A(C  10,C  11,H  30)          110.2935         0.325110   
     95. A(C  10,C  11,O  12)          110.6378         0.389926   
     96. A(C  11,O  12,H  32)          106.6319         0.353666   
     97. A(H  34,C  13,H  35)          109.1887         0.284037   
     98. A(H  33,C  13,H  35)          108.1349         0.284057   
     99. A(C   9,C  13,H  35)          109.8325         0.324810   
    100. A(H  33,C  13,H  34)          108.4817         0.284094   
    101. A(C   9,C  13,H  34)          109.7653         0.324855   
    102. A(C   9,C  13,H  33)          111.3885         0.324879   
    103. A(C   5,C  14,H  37)          110.3781         0.324485   
    104. A(C   5,C  14,H  36)          110.1599         0.324185   
    105. A(H  37,C  14,H  38)          107.8087         0.284522   
    106. A(H  36,C  14,H  38)          107.3701         0.284273   
    107. A(C   5,C  14,H  38)          111.2797         0.324146   
    108. A(H  36,C  14,H  37)          109.7657         0.284555   
    109. A(H  40,C  15,H  41)          108.4435         0.284000   
    110. A(H  39,C  15,H  41)          108.9407         0.284160   
    111. A(C   1,C  15,H  41)          109.4271         0.324892   
    112. A(H  39,C  15,H  40)          108.2009         0.284002   
    113. A(C   1,C  15,H  40)          112.2809         0.324700   
    114. A(C   1,C  15,H  39)          109.4840         0.324894   
    115. D(C   2,C   1,C   0,H  17)    -59.5497         0.012086   
    116. D(C   2,C   1,C   0,H  18)     61.7055         0.012086   
    117. D(C  15,C   1,C   0,H  16)      2.4588         0.012086   
    118. D(C  15,C   1,C   0,H  17)    122.0185         0.012086   
    119. D(C   2,C   1,C   0,H  16)   -179.1093         0.012086   
    120. D(H  19,C   2,C   1,C   0)   -178.5513         0.036345   
    121. D(C   3,C   2,C   1,C   0)      3.0506         0.036345   
    122. D(C   3,C   2,C   1,C  15)   -178.5454         0.036345   
    123. D(H  19,C   2,C   1,C  15)     -0.1473         0.036345   
    124. D(C   4,C   3,C   2,H  19)    -90.7943         0.012127   
    125. D(H  20,C   3,C   2,H  19)    145.8197         0.012127   
    126. D(H  21,C   3,C   2,C   1)   -152.9571         0.012127   
    127. D(C   4,C   3,C   2,C   1)     87.6453         0.012127   
    128. D(H  20,C   3,C   2,C   1)    -35.7407         0.012127   
    129. D(C   5,C   4,C   3,C   2)   -177.5341         0.010942   
    130. D(H  22,C   4,C   3,H  21)   -174.5919         0.010942   
    131. D(H  22,C   4,C   3,H  20)     67.9645         0.010942   
    132. D(H  22,C   4,C   3,C   2)    -55.7376         0.010942   
    133. D(C   5,C   4,C   3,H  21)     63.6116         0.010942   
    134. D(C   5,C   4,C   3,H  20)    -53.8320         0.010942   
    135. D(C  14,C   5,C   4,H  22)    -20.0493         0.011749   
    136. D(C  14,C   5,C   4,C   3)    101.5602         0.011749   
    137. D(C   6,C   5,C   4,H  23)     44.0395         0.011749   
    138. D(C   6,C   5,C   4,H  22)    160.9715         0.011749   
    139. D(C   6,C   5,C   4,C   3)    -77.4190         0.011749   
    140. D(H  24,C   6,C   5,C  14)   -178.6326         0.036228   
    141. D(H  24,C   6,C   5,C   4)      0.3146         0.036228   
    142. D(C   7,C   6,C   5,C   4)   -179.1605         0.036228   
    143. D(C   7,C   6,C   5,C  14)      1.8923         0.036228   
    144. D(C   8,C   7,C   6,C   5)     85.9278         0.012139   
    145. D(C   8,C   7,C   6,H  24)    -93.5583         0.012139   
    146. D(H  26,C   7,C   6,C   5)   -155.1388         0.012139   
    147. D(H  25,C   7,C   6,H  24)    142.1839         0.012139   
    148. D(H  25,C   7,C   6,C   5)    -38.3300         0.012139   
    149. D(H  27,C   8,C   7,H  26)    -59.5340         0.010949   
    150. D(H  27,C   8,C   7,H  25)   -176.7878         0.010949   
    151. D(H  27,C   8,C   7,C   6)     59.0549         0.010949   
    152. D(C   9,C   8,C   7,H  26)     60.6417         0.010949   
    153. D(C   9,C   8,C   7,H  25)    -56.6121         0.010949   
    154. D(C   9,C   8,C   7,C   6)    179.2306         0.010949   
    155. D(C  13,C   9,C   8,H  27)     31.5307         0.011489   
    156. D(C  13,C   9,C   8,C   7)    -88.4099         0.011489   
    157. D(C  10,C   9,C   8,H  28)    -34.6052         0.011489   
    158. D(C  10,C   9,C   8,H  27)   -151.0050         0.011489   
    159. D(C  10,C   9,C   8,C   7)     89.0544         0.011489   
    160. D(H  29,C  10,C   9,C  13)      0.1289         0.036422   
    161. D(H  29,C  10,C   9,C   8)   -177.3445         0.036422   
    162. D(C  11,C  10,C   9,C  13)    179.6237         0.036422   
    163. D(C  11,C  10,C   9,C   8)      2.1503         0.036422   
    164. D(H  31,C  11,C  10,C   9)   -169.4641         0.012227   
    165. D(H  30,C  11,C  10,H  29)    127.6262         0.012227   
    166. D(H  30,C  11,C  10,C   9)    -51.8783         0.012227   
    167. D(O  12,C  11,C  10,H  29)   -111.0928         0.012227   
    168. D(O  12,C  11,C  10,C   9)     69.4026         0.012227   
    169. D(H  32,O  12,C  11,H  31)    -48.3772         0.022855   
    170. D(H  32,O  12,C  11,H  30)   -165.7175         0.022855   
    171. D(H  32,O  12,C  11,C  10)     72.5228         0.022855   
    172. D(H  35,C  13,C   9,C   8)    120.0590         0.012268   
    173. D(H  34,C  13,C   9,C  10)     62.5395         0.012268   
    174. D(H  34,C  13,C   9,C   8)   -119.8829         0.012268   
    175. D(H  33,C  13,C   9,C  10)   -177.2948         0.012268   
    176. D(H  33,C  13,C   9,C   8)      0.2828         0.012268   
    177. D(H  36,C  14,C   5,C   4)   -120.2779         0.011916   
    178. D(H  38,C  14,C   5,C   4)     -1.3122         0.011916   
    179. D(H  37,C  14,C   5,C   6)    -62.7076         0.011916   
    180. D(H  37,C  14,C   5,C   4)    118.3448         0.011916   
    181. D(H  36,C  14,C   5,C   6)     58.6698         0.011916   
    182. D(H  41,C  15,C   1,C   0)     61.6988         0.012262   
    183. D(H  40,C  15,C   1,C   2)      3.6978         0.012262   
    184. D(H  40,C  15,C   1,C   0)   -177.8338         0.012262   
    185. D(H  39,C  15,C   1,C   2)    123.8982         0.012262   
    186. D(H  39,C  15,C   1,C   0)    -57.6335         0.012262   
    -----------------------------------------------------------------

Number of atoms                         .... 42
Number of degrees of freedom            .... 186


         *************************************************************
         *                GEOMETRY OPTIMIZATION CYCLE   1            *
         *************************************************************
---------------------------------
CARTESIAN COORDINATES (ANGSTROEM)
---------------------------------
  C     -4.420674    0.733635    2.217698
  C     -4.940468    0.346837    0.855011
  C     -4.174112    0.428920   -0.256484
  C     -2.723463    0.842271   -0.259523
  C     -1.812249   -0.369311   -0.034262
  C     -0.360725    0.053396    0.022915
  C      0.286701    0.335642   -1.131090
  C      1.734180    0.749824   -1.221057
  C      2.652994   -0.475692   -1.271938
  C      4.105068   -0.053687   -1.381293
  C      4.882936    0.182187   -0.300538
  C      4.432737    0.014808    1.128122
  O      4.246929   -1.340829    1.431937
  C      4.694751    0.167155   -2.750173
  C      0.315350    0.170067    1.369062
  C     -6.372426   -0.109587    0.746760
  H     -5.198706    0.578168    2.995026
  H     -3.540419    0.115548    2.487646
  H     -4.139940    1.807494    2.227067
  H     -4.602721    0.160792   -1.218591
  H     -2.528302    1.625280    0.503762
  H     -2.493494    1.289037   -1.250937
  H     -2.097099   -0.883447    0.907773
  H     -1.955459   -1.107744   -0.854212
  H     -0.255394    0.256148   -2.070156
  H      2.008788    1.423247   -0.383266
  H      1.867720    1.332243   -2.158626
  H      2.382124   -1.092202   -2.156968
  H      2.492802   -1.126277   -0.389724
  H      5.903643    0.524144   -0.454042
  H      3.485856    0.565413    1.299937
  H      5.195179    0.453487    1.810408
  H      5.151871   -1.744962    1.493326
  H      3.944322   -0.013701   -3.548352
  H      5.549211   -0.524585   -2.907052
  H      5.051645    1.214954   -2.842186
  H      0.679383    1.206687    1.525678
  H      1.163907   -0.539504    1.437529
  H     -0.388878   -0.062183    2.195014
  H     -6.533596   -0.984126    1.411455
  H     -6.642770   -0.406619   -0.289335
  H     -7.047202    0.713137    1.063679

----------------------------
CARTESIAN COORDINATES (A.U.)
----------------------------
  NO LB      ZA    FRAG     MASS         X           Y           Z
   0 C     4.0000*   0    12.011   -8.353863    1.386369    4.190842
   1 C     4.0000*   0    12.011   -9.336131    0.655427    1.615737
   2 C     4.0000*   0    12.011   -7.887929    0.810541   -0.484685
   3 C     4.0000*   0    12.011   -5.146599    1.591662   -0.490427
   4 C     4.0000*   0    12.011   -3.424654   -0.697897   -0.064746
   5 C     4.0000*   0    12.011   -0.681671    0.100904    0.043303
   6 C     4.0000*   0    12.011    0.541786    0.634271   -2.137450
   7 C     4.0000*   0    12.011    3.277125    1.416962   -2.307463
   8 C     4.0000*   0    12.011    5.013432   -0.898928   -2.403614
   9 C     4.0000*   0    12.011    7.757454   -0.101454   -2.610265
  10 C     4.0000*   0    12.011    9.227412    0.344284   -0.567935
  11 C     4.0000*   0    12.011    8.376659    0.027983    2.131842
  12 O     6.0000*   0    15.999    8.025533   -2.533800    2.705969
  13 C     4.0000*   0    12.011    8.871794    0.315877   -5.197074
  14 C     4.0000*   0    12.011    0.595925    0.321380    2.587152
  15 C     4.0000*   0    12.011  -12.042140   -0.207089    1.411172
  16 H     1.0000    0     1.008   -9.824131    1.092579    5.659779
  17 H     1.0000    0     1.008   -6.690422    0.218354    4.700970
  18 H     1.0000    0     1.008   -7.823353    3.415669    4.208547
  19 H     1.0000    0     1.008   -8.697882    0.303853   -2.302803
  20 H     1.0000    0     1.008   -4.777798    3.071334    0.951972
  21 H     1.0000    0     1.008   -4.712021    2.435927   -2.363928
  22 H     1.0000    0     1.008   -3.962943   -1.669473    1.715442
  23 H     1.0000    0     1.008   -3.695282   -2.093333   -1.614227
  24 H     1.0000    0     1.008   -0.482625    0.484050   -3.912028
  25 H     1.0000    0     1.008    3.796059    2.689547   -0.724268
  26 H     1.0000    0     1.008    3.529479    2.517574   -4.079212
  27 H     1.0000    0     1.008    4.501562   -2.063963   -4.076079
  28 H     1.0000    0     1.008    4.710713   -2.128355   -0.736472
  29 H     1.0000    0     1.008   11.156268    0.990489   -0.858015
  30 H     1.0000    0     1.008    6.587313    1.068476    2.456525
  31 H     1.0000    0     1.008    9.817466    0.856966    3.421175
  32 H     1.0000    0     1.008    9.735625   -3.297500    2.821977
  33 H     1.0000    0     1.008    7.453688   -0.025891   -6.705414
  34 H     1.0000    0     1.008   10.486489   -0.991322   -5.493532
  35 H     1.0000    0     1.008    9.546226    2.295930   -5.370953
  36 H     1.0000    0     1.008    1.283848    2.280308    2.883114
  37 H     1.0000    0     1.008    2.199465   -1.019515    2.716536
  38 H     1.0000    0     1.008   -0.734873   -0.117509    4.147975
  39 H     1.0000    0     1.008  -12.346707   -1.859729    2.667263
  40 H     1.0000    0     1.008  -12.553016   -0.768399   -0.546764
  41 H     1.0000    0     1.008  -13.317282    1.347634    2.010062
* core charge reduced due to ECP

--------------------------------
INTERNAL COORDINATES (ANGSTROEM)
--------------------------------
 C      0   0   0     0.000000000000     0.00000000     0.00000000
 C      1   0   0     1.508878509095     0.00000000     0.00000000
 C      2   1   0     1.352575422167   122.10021613     0.00000000
 C      3   2   1     1.508393451962   124.27639984     3.05063705
 C      4   3   2     1.532639688459   110.78445958    87.64526562
 C      5   4   3     1.512901959730   110.79963271   182.46589992
 C      6   5   4     1.352978480988   119.02275227   282.58095207
 C      7   6   5     1.508256027886   124.56915724   180.83952692
 C      8   7   6     1.532546087076   110.96276613    85.92778908
 C      9   8   7     1.516102119755   110.73370941   179.23061207
 C     10   9   8     1.352311554090   122.80807240    89.05440404
 C     11  10   9     1.507237295465   124.49575961     2.15032179
 O     12  11  10     1.401634703786   110.63780902    69.40262189
 C     10   9   8     1.506761322789   118.76089926   271.59011733
 C      6   5   4     1.510894196651   118.98368543   101.56018523
 C      2   1   3     1.506832724804   118.02785485   181.56811696
 H      1   2   3     1.110739663781   110.78372814   180.89070731
 H      1   2   3     1.108941985542   110.51255877   300.45033693
 H      1   2   3     1.109987616507   110.04476924    61.70547434
 H      3   2   1     1.086852418093   119.27697148   181.44866883
 H      4   3   2     1.110763206641   111.14710572   324.25925921
 H      4   3   2     1.111479787991   108.11525141   207.04288384
 H      5   4   3     1.110362684091   109.76790322   304.26240776
 H      5   4   3     1.112704094577   109.86426710    61.11626689
 H      7   6   5     1.087212599916   118.87273788     0.31463218
 H      8   7   6     1.109415093765   111.05080044   321.67004692
 H      8   7   6     1.111791551021   108.02493117   204.86120912
 H      9   8   7     1.112085085729   108.88704721    59.05489774
 H      9   8   7     1.107801363461   110.88459123   302.99307132
 H     11  10   9     1.087354977785   118.81523880   182.65554352
 H     12  11  10     1.108724442055   110.29350982   308.12167357
 H     12  11  10     1.113225607952   109.42704166   190.53591351
 H     13  12  11     0.992981427004   106.63191143    72.52284122
 H     14  10   9     1.110379346358   111.38854723     0.28280798
 H     14  10   9     1.110503102130   109.76528971   240.11712363
 H     14  10   9     1.110730599113   109.83250780   120.05900898
 H     15   6   5     1.109788097316   110.15990977   239.72210482
 H     15   6   5     1.108254355452   110.37810558   118.34475362
 H     15   6   5     1.109988218310   111.27967042   358.68777988
 H     16   2   1     1.110231360774   109.48397329   302.36654014
 H     16   2   1     1.111218581731   112.28087766   182.16618962
 H     16   2   1     1.110241002176   109.42705272    61.69881220

---------------------------
INTERNAL COORDINATES (A.U.)
---------------------------
 C      0   0   0     0.000000000000     0.00000000     0.00000000
 C      1   0   0     2.851367151549     0.00000000     0.00000000
 C      2   1   0     2.555997123368   122.10021613     0.00000000
 C      3   2   1     2.850450526409   124.27639984     3.05063705
 C      4   3   2     2.896269273167   110.78445958    87.64526562
 C      5   4   3     2.858970371362   110.79963271   182.46589992
 C      6   5   4     2.556758794156   119.02275227   282.58095207
 C      7   6   5     2.850190832540   124.56915724   180.83952692
 C      8   7   6     2.896092392187   110.96276613    85.92778908
 C      9   8   7     2.865017797395   110.73370941   179.23061207
 C     10   9   8     2.555498484967   122.80807240    89.05440404
 C     11  10   9     2.848265707262   124.49575961     2.15032179
 O     12  11  10     2.648705729956   110.63780902    69.40262189
 C     10   9   8     2.847366249256   118.76089926   271.59011733
 C      6   5   4     2.855176249002   118.98368543   101.56018523
 C      2   1   3     2.847501179510   118.02785485   181.56811696
 H      1   2   3     2.098993770630   110.78372814   180.89070731
 H      1   2   3     2.095596651081   110.51255877   300.45033693
 H      1   2   3     2.097572607241   110.04476924    61.70547434
 H      3   2   1     2.053853418185   119.27697148   181.44866883
 H      4   3   2     2.099038260187   111.14710572   324.25925921
 H      4   3   2     2.100392402692   108.11525141   207.04288384
 H      5   4   3     2.098281382257   109.76790322   304.26240776
 H      5   4   3     2.102706006844   109.86426710    61.11626689
 H      7   6   5     2.054534063191   118.87273788     0.31463218
 H      8   7   6     2.096490696055   111.05080044   321.67004692
 H      8   7   6     2.100981549437   108.02493117   204.86120912
 H      9   8   7     2.101536249645   108.88704721    59.05489774
 H      9   8   7     2.093441187725   110.88459123   302.99307132
 H     11  10   9     2.054803118370   118.81523880   182.65554352
 H     12  11  10     2.095185553469   110.29350982   308.12167357
 H     12  11  10     2.103691524298   109.42704166   190.53591351
 H     13  12  11     1.876462953107   106.63191143    72.52284122
 H     14  10   9     2.098312869379   111.38854723     0.28280798
 H     14  10   9     2.098546733896   109.76528971   240.11712363
 H     14  10   9     2.098976640890   109.83250780   120.05900898
 H     15   6   5     2.097195570613   110.15990977   239.72210482
 H     15   6   5     2.094297218530   110.37810558   118.34475362
 H     15   6   5     2.097573744486   111.27967042   358.68777988
 H     16   2   1     2.098033217154   109.48397329   302.36654014
 H     16   2   1     2.099898794397   112.28087766   182.16618962
 H     16   2   1     2.098051436763   109.42705272    61.69881220

---------------------
BASIS SET INFORMATION
---------------------
There are 3 groups of distinct atoms

 Group   1 Type C   : 6s6p2d contracted to 2s2p1d pattern {42/42/2}
 Group   2 Type O   : 6s6p2d contracted to 2s2p1d pattern {42/42/2}
 Group   3 Type H   : 8s2p contracted to 2s1p pattern {53/2}

Atom   0C    basis set group =>   1
Atom   1C    basis set group =>   1
Atom   2C    basis set group =>   1
Atom   3C    basis set group =>   1
Atom   4C    basis set group =>   1
Atom   5C    basis set group =>   1
Atom   6C    basis set group =>   1
Atom   7C    basis set group =>   1
Atom   8C    basis set group =>   1
Atom   9C    basis set group =>   1
Atom  10C    basis set group =>   1
Atom  11C    basis set group =>   1
Atom  12O    basis set group =>   2
Atom  13C    basis set group =>   1
Atom  14C    basis set group =>   1
Atom  15C    basis set group =>   1
Atom  16H    basis set group =>   3
Atom  17H    basis set group =>   3
Atom  18H    basis set group =>   3
Atom  19H    basis set group =>   3
Atom  20H    basis set group =>   3
Atom  21H    basis set group =>   3
Atom  22H    basis set group =>   3
Atom  23H    basis set group =>   3
Atom  24H    basis set group =>   3
Atom  25H    basis set group =>   3
Atom  26H    basis set group =>   3
Atom  27H    basis set group =>   3
Atom  28H    basis set group =>   3
Atom  29H    basis set group =>   3
Atom  30H    basis set group =>   3
Atom  31H    basis set group =>   3
Atom  32H    basis set group =>   3
Atom  33H    basis set group =>   3
Atom  34H    basis set group =>   3
Atom  35H    basis set group =>   3
Atom  36H    basis set group =>   3
Atom  37H    basis set group =>   3
Atom  38H    basis set group =>   3
Atom  39H    basis set group =>   3
Atom  40H    basis set group =>   3
Atom  41H    basis set group =>   3
---------------------------------
AUXILIARY/J BASIS SET INFORMATION
---------------------------------
There are 3 groups of distinct atoms

 Group   1 Type C   : 12s5p4d2f1g contracted to 6s4p3d1f1g pattern {711111/2111/211/2/1}
 Group   2 Type O   : 12s5p4d2f1g contracted to 6s4p3d1f1g pattern {711111/2111/211/2/1}
 Group   3 Type H   : 5s2p1d contracted to 3s1p1d pattern {311/2/1}

Atom   0C    basis set group =>   1
Atom   1C    basis set group =>   1
Atom   2C    basis set group =>   1
Atom   3C    basis set group =>   1
Atom   4C    basis set group =>   1
Atom   5C    basis set group =>   1
Atom   6C    basis set group =>   1
Atom   7C    basis set group =>   1
Atom   8C    basis set group =>   1
Atom   9C    basis set group =>   1
Atom  10C    basis set group =>   1
Atom  11C    basis set group =>   1
Atom  12O    basis set group =>   2
Atom  13C    basis set group =>   1
Atom  14C    basis set group =>   1
Atom  15C    basis set group =>   1
Atom  16H    basis set group =>   3
Atom  17H    basis set group =>   3
Atom  18H    basis set group =>   3
Atom  19H    basis set group =>   3
Atom  20H    basis set group =>   3
Atom  21H    basis set group =>   3
Atom  22H    basis set group =>   3
Atom  23H    basis set group =>   3
Atom  24H    basis set group =>   3
Atom  25H    basis set group =>   3
Atom  26H    basis set group =>   3
Atom  27H    basis set group =>   3
Atom  28H    basis set group =>   3
Atom  29H    basis set group =>   3
Atom  30H    basis set group =>   3
Atom  31H    basis set group =>   3
Atom  32H    basis set group =>   3
Atom  33H    basis set group =>   3
Atom  34H    basis set group =>   3
Atom  35H    basis set group =>   3
Atom  36H    basis set group =>   3
Atom  37H    basis set group =>   3
Atom  38H    basis set group =>   3
Atom  39H    basis set group =>   3
Atom  40H    basis set group =>   3
Atom  41H    basis set group =>   3
-------------------------
ECP PARAMETER INFORMATION
-------------------------

 Group 1, Type C  ECP vDZP-ECP (replacing 2 core electrons, lmax=3)
 Group 2, Type O  ECP vDZP-ECP (replacing 2 core electrons, lmax=3)

Atom   0C    ECP group =>   1
Atom   1C    ECP group =>   1
Atom   2C    ECP group =>   1
Atom   3C    ECP group =>   1
Atom   4C    ECP group =>   1
Atom   5C    ECP group =>   1
Atom   6C    ECP group =>   1
Atom   7C    ECP group =>   1
Atom   8C    ECP group =>   1
Atom   9C    ECP group =>   1
Atom  10C    ECP group =>   1
Atom  11C    ECP group =>   1
Atom  12O    ECP group =>   2
Atom  13C    ECP group =>   1
Atom  14C    ECP group =>   1
Atom  15C    ECP group =>   1



           ************************************************************
           *        Program running with 40 parallel MPI-processes    *
           *              working on a common directory               *
           ************************************************************
------------------------------------------------------------------------------
                             ORCA STARTUP CALCULATIONS
                           -- RI-GTO INTEGRALS CHOSEN --
------------------------------------------------------------------------------
------------------------------------------------------------------------------
                   ___                                                        
                  /   \      - P O W E R E D   B Y -                         
                 /     \                                                     
                 |  |  |   _    _      __       _____    __    __             
                 |  |  |  | |  | |    /  \     |  _  \  |  |  /  |          
                  \  \/   | |  | |   /    \    | | | |  |  | /  /          
                 / \  \   | |__| |  /  /\  \   | |_| |  |  |/  /          
                |  |  |   |  __  | /  /__\  \  |    /   |      \           
                |  |  |   | |  | | |   __   |  |    \   |  |\   \          
                \     /   | |  | | |  |  |  |  | |\  \  |  | \   \       
                 \___/    |_|  |_| |__|  |__|  |_| \__\ |__|  \__/        
                                                                              
                      - O R C A' S   B I G   F R I E N D -                    
                                      &                                       
                       - I N T E G R A L  F E E D E R -                       
                                                                              
 v1 FN, 2020, v2 2021, v3 2022-2024                                           
------------------------------------------------------------------------------


----------------------
SHARK INTEGRAL PACKAGE
----------------------

Number of atoms                             ...     42
Number of basis functions                   ...    338
Number of shells                            ...    158
Maximum angular momentum                    ...      2
Integral batch strategy                     ... SHARK/LIBINT Hybrid
RI-J (if used) integral strategy            ... SPLIT-RIJ (Revised 2003 algorithm where possible)
Printlevel                                  ...      1
Contraction scheme used                     ... SEGMENTED contraction
Prescreening option                         ... SCHWARTZ
   Thresh                                   ... 2.500e-11
   Tcut                                     ... 2.500e-12
   Tpresel                                  ... 2.500e-12 
Coulomb Range Separation                    ... NOT USED
Exchange Range Separation                   ... Long Range
   Mu parameter                             ... 3.000e-01
   Scaling (regular/separated)              ... 1.670e-01 8.330e-01
Multipole approximations                    ... NOT USED
Finite Nucleus Model                        ... NOT USED
CABS basis                                  ... NOT available
Auxiliary Coulomb fitting basis             ... AVAILABLE
   # of basis functions in Aux-J            ...   1070
   # of shells in Aux-J                     ...    370
   Maximum angular momentum in Aux-J        ...      4
Auxiliary J/K fitting basis                 ... NOT available
Auxiliary Correlation fitting basis         ... NOT available
Auxiliary 'external' fitting basis          ... NOT available

Checking pre-screening integrals            ... done (  0.0 sec) Dimension = 158
Check shell pair data                       ... done (  0.0 sec)
Shell pair information
Shell pair cut-off parameter TPreSel        ...   2.5e-12
Total number of shell pairs                 ...     12561
Shell pairs after pre-screening             ...     11399
Total number of primitive shell pairs       ...    117974
Primitive shell pairs kept                  ...     75459
          la=0 lb=0:   3359 shell pairs
          la=1 lb=0:   4437 shell pairs
          la=1 lb=1:   1472 shell pairs
          la=2 lb=0:   1223 shell pairs
          la=2 lb=1:    793 shell pairs
          la=2 lb=2:    115 shell pairs

Calculating one electron integrals          ... done (  0.0 sec)
Calculating ECP integrals                   ... done (  0.2 sec)
Calculating RI/J V-Matrix + Cholesky decomp.... done (  0.1 sec)
Calculating Nuclear repulsion               ... done (  0.0 sec) ENN=    580.715630530597 Eh

Diagonalization of the overlap matrix:
Smallest eigenvalue                        ... 1.108e-03
Time for diagonalization                   ...    0.016 sec
Threshold for overlap eigenvalues          ... 1.000e-07
Number of eigenvalues below threshold      ... 0
Time for construction of square roots      ...    0.009 sec
Total time needed                          ...    0.029 sec

-------------------
DFT GRID GENERATION
-------------------

General Integration Accuracy     IntAcc      ... 4.388
Radial Grid Type                 RadialGrid  ... OptM3 with GC (2021)
Angular Grid (max. ang.)         AngularGrid ... 4 (Lebedev-302)
Angular grid pruning method      GridPruning ... 4 (adaptive)
Weight generation scheme         WeightScheme... mBecke (2022)
Basis function cutoff            BFCut       ... 1.0000e-11
Integration weight cutoff        WCut        ... 1.0000e-14
Partially contracted basis set               ... off
Rotationally invariant grid construction     ... off
Angular grids for H and He will be reduced by one unit

Total number of grid points                  ...   178299
Total number of batches                      ...     2806
Average number of points per batch           ...       63
Average number of grid points per atom       ...     4245

--------------------
COSX GRID GENERATION
--------------------

GRIDX 1
-------
General Integration Accuracy     IntAcc      ... 3.816
Radial Grid Type                 RadialGrid  ... OptM3 with GC (2021)
Angular Grid (max. ang.)         AngularGrid ... 1 (Lebedev-50)
Angular grid pruning method      GridPruning ... 4 (adaptive)
Weight generation scheme         WeightScheme... mBecke (2022)
Basis function cutoff            BFCut       ... 1.0000e-11
Integration weight cutoff        WCut        ... 1.0000e-14
Partially contracted basis set               ... on
Rotationally invariant grid construction     ... off
Angular grids for H and He will be reduced by one unit

Total number of grid points                  ...    22810
Total number of batches                      ...      206
Average number of points per batch           ...      110
Average number of grid points per atom       ...      543
UseSFitting                                  ... on

GRIDX 2
-------
General Integration Accuracy     IntAcc      ... 4.020
Radial Grid Type                 RadialGrid  ... OptM3 with GC (2021)
Angular Grid (max. ang.)         AngularGrid ... 2 (Lebedev-110)
Angular grid pruning method      GridPruning ... 4 (adaptive)
Weight generation scheme         WeightScheme... mBecke (2022)
Basis function cutoff            BFCut       ... 1.0000e-11
Integration weight cutoff        WCut        ... 1.0000e-14
Partially contracted basis set               ... on
Rotationally invariant grid construction     ... off
Angular grids for H and He will be reduced by one unit

Total number of grid points                  ...    47361
Total number of batches                      ...      393
Average number of points per batch           ...      120
Average number of grid points per atom       ...     1128
UseSFitting                                  ... on

GRIDX 3
-------
General Integration Accuracy     IntAcc      ... 4.338
Radial Grid Type                 RadialGrid  ... OptM3 with GC (2021)
Angular Grid (max. ang.)         AngularGrid ... 3 (Lebedev-194)
Angular grid pruning method      GridPruning ... 4 (adaptive)
Weight generation scheme         WeightScheme... mBecke (2022)
Basis function cutoff            BFCut       ... 1.0000e-11
Integration weight cutoff        WCut        ... 1.0000e-14
Partially contracted basis set               ... on
Rotationally invariant grid construction     ... off
Angular grids for H and He will be reduced by one unit

Total number of grid points                  ...   102804
Total number of batches                      ...      828
Average number of points per batch           ...      124
Average number of grid points per atom       ...     2448
UseSFitting                                  ... on
Initializing property integral containers    ... done (  0.0 sec)

SHARK setup successfully completed in   5.6 seconds

Maximum memory used throughout the entire STARTUP-calculation: 55.6 MB


           ************************************************************
           *        Program running with 40 parallel MPI-processes    *
           *              working on a common directory               *
           ************************************************************
-------------------------------------------------------------------------------
                                 ORCA GUESS
                   Start orbitals & Density for SCF / CASSCF
-------------------------------------------------------------------------------

------------
SCF SETTINGS
------------
Hamiltonian:
 Density Functional     Method          .... DFT(GTOs)
 Exchange Functional    Exchange        .... WB97X-V
 Correlation Functional Correlation     .... WB97X-V
 Gradients option       PostSCFGGA      .... off
 Hybrid DFT is turned on
   Fraction HF Exchange ScalHFX         ....  0.167000
   Scaling of DF-GGA-X  ScalDFX         ....  0.000000
   Scaling of DF-GGA-C  ScalDFC         ....  1.000000
   Scaling of DF-LDA-C  ScalLDAC        ....  1.000000
   Perturbative correction              ....  0.000000
 Long-range corrected/Screened/Range-Separated Hybrid DFT is turned on
   Amount of maximum screened exact exchange              ....  0.833000
   Range separation parameter mu (erf(mu*r12)/r12)        ....  0.300000
   NL short-range parameter             ....  6.000000
   NL long-range parameter              ....  0.010000
 RI-approximation to the Coulomb term is turned on
   Number of AuxJ basis functions       .... 1070
   RIJ-COSX (HFX calculated with COS-X)).... on


General Settings:
 Integral files         IntName         .... ./output/_2e_6e_farnesol/_2e_6e_farnesol
 Hartree-Fock type      HFTyp           .... RHF
 Total Charge           Charge          ....    0
 Multiplicity           Mult            ....    1
 Number of Electrons    NEL             ....   92
 Basis Dimension        Dim             ....  338
 Nuclear Repulsion      ENuc            ....    580.7156305306 Eh

Convergence Acceleration:
 AO-DIIS                CNVDIIS         .... on
   Start iteration      DIISMaxIt       ....    12
   Startup error        DIISStart       ....  0.200000
   # of expansion vecs  DIISMaxEq       ....     5
   Bias factor          DIISBfac        ....   1.050
   Max. coefficient     DIISMaxC        ....  10.000
 MO-DIIS                CNVKDIIS        .... off
 Trust-Rad. Augm. Hess. CNVTRAH         .... auto
   Auto Start mean grad. ratio tolernc. ....  1.125000
   Auto Start start iteration           ....    50
   Auto Start num. interpolation iter.  ....    10
   Max. Number of Micro iterations      ....    24
   Max. Number of Macro iterations      .... Maxiter - #DIIS iter
   Number of Davidson start vectors     ....     2
   Converg. threshold    (grad. norm)   ....   1.000e-05
   Grad. Scal. Fac. for Micro threshold ....   0.100
   Minimum threshold for Micro iter.    ....   1.000e-02
   NR start threshold (gradient norm)   ....   1.000e-04
   Initial trust radius                 ....   0.400
   Minimum AH scaling param. (alpha)    ....   1.000
   Maximum AH scaling param. (alpha)    .... 1000.000
   Quad. conv. algorithm                .... NR
   White noise on init. David. guess    .... on
   Maximum white noise                  ....   0.010
   Pseudo random numbers                .... off
   Inactive MOs                         .... canonical
   Orbital update algorithm             .... Taylor
   Preconditioner                       .... Diag
   Full preconditioner red. dimension   ....   250
 SOSCF                  CNVSOSCF        .... on
   Start iteration      SOSCFMaxIt      ....   150
   Startup grad/error   SOSCFStart      ....  0.003300
   Hessian update       SOSCFHessUp     .... L-BFGS
 Level Shifting         CNVShift        .... on
   Level shift para.    LevelShift      ....    0.2500
   Turn off err/grad.   ShiftErr        ....    0.0010
 Zerner damping         CNVZerner       .... off
 Static damping         CNVDamp         .... on
   Fraction old density DampFac         ....    0.7000
   Max. Damping (<1)    DampMax         ....    0.9800
   Min. Damping (>=0)   DampMin         ....    0.0000
   Turn off err/grad.   DampErr         ....    0.1000

SCF Procedure:
 Maximum # iterations   MaxIter         ....   125
 SCF integral mode      SCFMode         .... Direct
   Integral package                     .... SHARK and LIBINT hybrid scheme
 Reset frequency        DirectResetFreq ....    20
 Integral Threshold     Thresh          ....  2.500e-11 Eh
 Primitive CutOff       TCut            ....  2.500e-12 Eh

Convergence Tolerance:
 Convergence Check Mode ConvCheckMode   .... Total+1el-Energy
 Convergence forced     ConvForced      .... 0
 Energy Change          TolE            ....  1.000e-08 Eh
 1-El. energy change                    ....  1.000e-05 Eh
 Orbital Gradient       TolG            ....  1.000e-05
 Orbital Rotation angle TolX            ....  1.000e-05
 DIIS Error             TolErr          ....  5.000e-07

------------------------------
INITIAL GUESS: MODEL POTENTIAL
------------------------------
Loading Hartree-Fock densities                     ... done
Atomic calculation to generate a density for atom 0 (C  with ECP)
  Multiplicity assumed   :    1
  Atomic configuration   : 1s2 2s2 2p2 
  Number of open shells  : 1
  Command: /home/aspe232/Project/Software/ORCA/6_0_1/build/orca ./output/_2e_6e_farnesol/_2e_6e_farnesol_atom6.inp "" > ./output/_2e_6e_farnesol/_2e_6e_farnesol_atom6.out
Returned from the atomic calculation with res=0
Atomic calculation to generate a density for atom 12 (O  with ECP)
  Multiplicity assumed   :    3
  Atomic configuration   : 1s2 2s2 2p4 
  Number of open shells  : 1
  Command: /home/aspe232/Project/Software/ORCA/6_0_1/build/orca ./output/_2e_6e_farnesol/_2e_6e_farnesol_atom8.inp "" > ./output/_2e_6e_farnesol/_2e_6e_farnesol_atom8.out
Returned from the atomic calculation with res=0
Calculating cut-offs                               ... done
Initializing the effective Hamiltonian             ... done
Setting up the integral package (SHARK)            ... done
Starting the Coulomb interaction                   ... done (   0.1 sec)
Making the grid                                    ... done (   1.1 sec)
Mapping shells                                     ... done
Starting the XC term evaluation                    ... done (   0.1 sec)
  promolecular density results
     # of electrons  =    123.989824458
     EX              =    -61.303888760
     EC              =     -4.950586231
     EX+EC           =    -66.254474990
Transforming the Hamiltonian                       ... done (   0.0 sec)
Diagonalizing the Hamiltonian                      ... done (   0.0 sec)
Back transforming the eigenvectors                 ... done (   0.0 sec)
Now organizing SCF variables                       ... done
                      ------------------
                      INITIAL GUESS DONE (   2.5 sec)
                      ------------------
             **** ENERGY FILE WAS UPDATED (./output/_2e_6e_farnesol/_2e_6e_farnesol.en.tmp) ****
Finished Guess after   3.5 sec
Maximum memory used throughout the entire GUESS-calculation: 35.8 MB


           ************************************************************
           *        Program running with 40 parallel MPI-processes    *
           *              working on a common directory               *
           ************************************************************

-------------------------------------------------------------------------------------------
                                      ORCA LEAN-SCF
                              memory conserving SCF solver
-------------------------------------------------------------------------------------------

----------------------------------------D-I-I-S--------------------------------------------
Iteration    Energy (Eh)           Delta-E    RMSDP     MaxDP     DIISErr   Damp  Time(sec)
-------------------------------------------------------------------------------------------
               ***  Starting incremental Fock matrix formation  ***
    1    -116.3785061822322859     0.00e+00  3.22e-03  8.16e-02  2.16e-01  0.700   8.5
    2    -116.6645530441904839    -2.86e-01  2.35e-03  5.45e-02  1.22e-01  0.700   6.3
                               ***Turning on AO-DIIS***
    3    -116.8164085612808094    -1.52e-01  1.20e-03  2.82e-02  5.88e-02  0.700   5.4
    4    -116.9060123954916435    -8.96e-02  2.54e-03  5.71e-02  4.26e-02  0.000   5.7
    5    -117.0938256782137614    -1.88e-01  2.02e-04  7.00e-03  5.27e-03  0.000   5.9
    6    -117.0942849266137955    -4.59e-04  9.38e-05  6.67e-03  5.00e-03  0.000   5.9
                              *** Initializing SOSCF ***
---------------------------------------S-O-S-C-F--------------------------------------
Iteration    Energy (Eh)           Delta-E    RMSDP     MaxDP     MaxGrad    Time(sec)
--------------------------------------------------------------------------------------
    7    -117.0943708880074610    -8.60e-05  4.84e-05  1.96e-03  2.14e-03     5.7
               *** Restarting incremental Fock matrix formation ***
    8    -117.0943122409209991     5.86e-05  2.33e-05  5.62e-04  1.62e-04     8.2
    9    -117.0943158225650222    -3.58e-06  1.38e-05  3.52e-04  6.83e-05     7.0
   10    -117.0943163256157504    -5.03e-07  3.62e-06  1.34e-04  2.51e-05     6.8
   11    -117.0943164356425541    -1.10e-07  1.05e-06  5.28e-05  8.22e-06     6.4
   12    -117.0943164270640864     8.58e-09  3.51e-07  2.03e-05  5.16e-06     5.8
                 **** Energy Check signals convergence ****

               *****************************************************
               *                     SUCCESS                       *
               *           SCF CONVERGED AFTER  12 CYCLES          *
               *****************************************************

Recomputing exchange energy using gridx3       ... done (    9.170 sec)
Old exchange energy                            :    -17.565456916 Eh
New exchange energy                            :    -17.565433361 Eh
Exchange energy change after final integration :      0.000023555 Eh
Total energy after final integration           :   -117.094292872 Eh
             **** ENERGY FILE WAS UPDATED (./output/_2e_6e_farnesol/_2e_6e_farnesol.en.tmp) ****

----------------
TOTAL SCF ENERGY
----------------

Total Energy       :       -117.09429287248508 Eh           -3186.29770 eV

Components:
Nuclear Repulsion  :        580.71563053059651 Eh           15802.07567 eV
Electronic Energy  :       -697.80994695766060 Eh          -18988.37401 eV
One Electron Energy:      -1327.84929015702414 Eh          -36132.61613 eV
Two Electron Energy:        630.03934319936354 Eh           17144.24212 eV

Virial components:
Potential Energy   :       -208.67108745354864 Eh           -5678.22897 eV
Kinetic Energy     :         91.57679458106355 Eh            2491.93127 eV
Virial Ratio       :          2.27864589941324

DFT components:
N(Alpha)           :       45.999885000691 electrons
N(Beta)            :       45.999885000691 electrons
N(Total)           :       91.999770001382 electrons
E(X)               :      -18.310617680367 Eh       
E(C)               :       -3.428831700879 Eh       
E(XC)              :      -21.739449381246 Eh       

---------------
SCF CONVERGENCE
---------------

  Last Energy change         ...   -8.5785e-09  Tolerance :   1.0000e-08
  Last MAX-Density change    ...    2.0327e-05  Tolerance :   1.0000e-07
  Last RMS-Density change    ...    3.5149e-07  Tolerance :   5.0000e-09
  Last DIIS Error            ...    2.1403e-03  Tolerance :   5.0000e-07
  Last Orbital Gradient      ...    5.1649e-06  Tolerance :   1.0000e-05
  Last Orbital Rotation      ...    6.0291e-06  Tolerance :   1.0000e-05


----------------
ORBITAL ENERGIES
----------------

  NO   OCC          E(Eh)            E(eV) 
   0   2.0000      -1.144490       -31.1432 
   1   2.0000      -0.967500       -26.3270 
   2   2.0000      -0.955732       -26.0068 
   3   2.0000      -0.939465       -25.5642 
   4   2.0000      -0.897191       -24.4138 
   5   2.0000      -0.867606       -23.6088 
   6   2.0000      -0.847438       -23.0600 
   7   2.0000      -0.822531       -22.3822 
   8   2.0000      -0.812596       -22.1119 
   9   2.0000      -0.799944       -21.7676 
  10   2.0000      -0.761675       -20.7262 
  11   2.0000      -0.741119       -20.1669 
  12   2.0000      -0.717477       -19.5235 
  13   2.0000      -0.652388       -17.7524 
  14   2.0000      -0.633815       -17.2470 
  15   2.0000      -0.627015       -17.0620 
  16   2.0000      -0.612746       -16.6737 
  17   2.0000      -0.589514       -16.0415 
  18   2.0000      -0.582308       -15.8454 
  19   2.0000      -0.574306       -15.6277 
  20   2.0000      -0.560656       -15.2562 
  21   2.0000      -0.548344       -14.9212 
  22   2.0000      -0.545099       -14.8329 
  23   2.0000      -0.542236       -14.7550 
  24   2.0000      -0.532287       -14.4843 
  25   2.0000      -0.523725       -14.2513 
  26   2.0000      -0.521553       -14.1922 
  27   2.0000      -0.507271       -13.8035 
  28   2.0000      -0.499640       -13.5959 
  29   2.0000      -0.493635       -13.4325 
  30   2.0000      -0.486698       -13.2437 
  31   2.0000      -0.482583       -13.1318 
  32   2.0000      -0.479976       -13.0608 
  33   2.0000      -0.473589       -12.8870 
  34   2.0000      -0.471943       -12.8422 
  35   2.0000      -0.464566       -12.6415 
  36   2.0000      -0.455680       -12.3997 
  37   2.0000      -0.441452       -12.0125 
  38   2.0000      -0.436484       -11.8773 
  39   2.0000      -0.423685       -11.5291 
  40   2.0000      -0.421193       -11.4612 
  41   2.0000      -0.408329       -11.1112 
  42   2.0000      -0.382229       -10.4010 
  43   2.0000      -0.336868        -9.1666 
  44   2.0000      -0.326781        -8.8922 
  45   2.0000      -0.315015        -8.5720 
  46   0.0000       0.063981         1.7410 
  47   0.0000       0.082378         2.2416 
  48   0.0000       0.086685         2.3588 
  49   0.0000       0.093047         2.5319 
  50   0.0000       0.093227         2.5368 
  51   0.0000       0.096872         2.6360 
  52   0.0000       0.101463         2.7609 
  53   0.0000       0.106062         2.8861 
  54   0.0000       0.115502         3.1430 
  55   0.0000       0.124058         3.3758 
  56   0.0000       0.128657         3.5009 
*Only the first 10 virtual orbitals were printed.

                    ********************************
                    * MULLIKEN POPULATION ANALYSIS *
                    ********************************

-----------------------
MULLIKEN ATOMIC CHARGES
-----------------------
   0 C :   -0.095863
   1 C :   -0.069786
   2 C :   -0.030257
   3 C :   -0.074277
   4 C :   -0.052714
   5 C :   -0.072031
   6 C :   -0.020702
   7 C :   -0.073875
   8 C :   -0.064123
   9 C :   -0.069816
  10 C :   -0.021050
  11 C :    0.050697
  12 O :   -0.322193
  13 C :   -0.091488
  14 C :   -0.092078
  15 C :   -0.083568
  16 H :    0.037247
  17 H :    0.043642
  18 H :    0.057813
  19 H :    0.010538
  20 H :    0.036427
  21 H :    0.047291
  22 H :    0.031262
  23 H :    0.051155
  24 H :    0.008169
  25 H :    0.038595
  26 H :    0.041918
  27 H :    0.042898
  28 H :    0.065355
  29 H :    0.006972
  30 H :    0.031061
  31 H :    0.038441
  32 H :    0.173431
  33 H :    0.032315
  34 H :    0.059273
  35 H :    0.054888
  36 H :    0.050564
  37 H :    0.067227
  38 H :    0.027484
  39 H :    0.045049
  40 H :    0.036262
  41 H :    0.047847
Sum of atomic charges:    0.0000000

--------------------------------
MULLIKEN REDUCED ORBITAL CHARGES
--------------------------------
  0 C s       :     0.955322  s :     0.955322
      pz      :     0.986555  p :     3.067463
      px      :     1.033450
      py      :     1.047457
      dz2     :     0.017889  d :     0.073078
      dxz     :     0.020971
      dyz     :     0.011276
      dx2y2   :     0.011705
      dxy     :     0.011236

  1 C s       :     1.097865  s :     1.097865
      pz      :     0.967141  p :     2.852311
      px      :     0.928642
      py      :     0.956528
      dz2     :     0.030795  d :     0.119610
      dxz     :     0.031884
      dyz     :     0.023998
      dx2y2   :     0.014898
      dxy     :     0.018036

  2 C s       :     1.035122  s :     1.035122
      pz      :     0.974278  p :     2.903606
      px      :     0.927764
      py      :     1.001564
      dz2     :     0.022608  d :     0.091529
      dxz     :     0.026120
      dyz     :     0.013821
      dx2y2   :     0.012938
      dxy     :     0.016042

  3 C s       :     0.998353  s :     0.998353
      pz      :     1.060111  p :     2.973830
      px      :     0.931870
      py      :     0.981848
      dz2     :     0.015991  d :     0.102095
      dxz     :     0.012961
      dyz     :     0.024642
      dx2y2   :     0.024566
      dxy     :     0.023934

  4 C s       :     0.995749  s :     0.995749
      pz      :     1.055301  p :     2.955411
      px      :     0.916755
      py      :     0.983355
      dz2     :     0.014903  d :     0.101554
      dxz     :     0.013350
      dyz     :     0.026141
      dx2y2   :     0.024156
      dxy     :     0.023004

  5 C s       :     1.092663  s :     1.092663
      pz      :     0.966389  p :     2.861849
      px      :     0.933038
      py      :     0.962422
      dz2     :     0.030039  d :     0.117519
      dxz     :     0.033147
      dyz     :     0.023557
      dx2y2   :     0.014416
      dxy     :     0.016361

  6 C s       :     1.029723  s :     1.029723
      pz      :     0.971466  p :     2.900232
      px      :     0.922334
      py      :     1.006432
      dz2     :     0.021268  d :     0.090747
      dxz     :     0.029733
      dyz     :     0.012696
      dx2y2   :     0.012741
      dxy     :     0.014309

  7 C s       :     0.996466  s :     0.996466
      pz      :     1.059453  p :     2.974768
      px      :     0.931320
      py      :     0.983995
      dz2     :     0.014399  d :     0.102641
      dxz     :     0.012829
      dyz     :     0.027181
      dx2y2   :     0.023760
      dxy     :     0.024471

  8 C s       :     0.992443  s :     0.992443
      pz      :     1.074408  p :     2.972104
      px      :     0.909882
      py      :     0.987814
      dz2     :     0.014251  d :     0.099577
      dxz     :     0.012695
      dyz     :     0.026801
      dx2y2   :     0.023659
      dxy     :     0.022171

  9 C s       :     1.101242  s :     1.101242
      pz      :     0.949617  p :     2.848928
      px      :     0.967161
      py      :     0.932150
      dz2     :     0.030258  d :     0.119647
      dxz     :     0.033025
      dyz     :     0.023376
      dx2y2   :     0.014916
      dxy     :     0.018071

 10 C s       :     1.018459  s :     1.018459
      pz      :     0.897889  p :     2.917898
      px      :     0.982609
      py      :     1.037399
      dz2     :     0.030261  d :     0.084693
      dxz     :     0.022268
      dyz     :     0.015230
      dx2y2   :     0.009401
      dxy     :     0.007534

 11 C s       :     1.017210  s :     1.017210
      pz      :     0.975986  p :     2.781120
      px      :     1.058963
      py      :     0.746171
      dz2     :     0.027775  d :     0.150974
      dxz     :     0.021876
      dyz     :     0.043268
      dx2y2   :     0.022217
      dxy     :     0.035838

 12 O s       :     1.654180  s :     1.654180
      pz      :     1.873146  p :     4.636501
      px      :     1.461875
      py      :     1.301480
      dz2     :     0.004816  d :     0.031513
      dxz     :     0.001828
      dyz     :     0.004418
      dx2y2   :     0.011801
      dxy     :     0.008650

 13 C s       :     0.957342  s :     0.957342
      pz      :     0.973120  p :     3.061122
      px      :     1.036612
      py      :     1.051390
      dz2     :     0.018709  d :     0.073023
      dxz     :     0.020484
      dyz     :     0.011380
      dx2y2   :     0.008866
      dxy     :     0.013584

 14 C s       :     0.953494  s :     0.953494
      pz      :     0.982678  p :     3.065760
      px      :     1.035497
      py      :     1.047585
      dz2     :     0.018745  d :     0.072824
      dxz     :     0.019745
      dyz     :     0.010956
      dx2y2   :     0.008364
      dxy     :     0.015014

 15 C s       :     0.960027  s :     0.960027
      pz      :     1.048752  p :     3.047534
      px      :     0.969156
      py      :     1.029626
      dz2     :     0.014287  d :     0.076008
      dxz     :     0.012171
      dyz     :     0.014900
      dx2y2   :     0.013872
      dxy     :     0.020778

 16 H s       :     0.918738  s :     0.918738
      pz      :     0.017116  p :     0.044015
      px      :     0.016382
      py      :     0.010516

 17 H s       :     0.911370  s :     0.911370
      pz      :     0.011406  p :     0.044987
      px      :     0.018991
      py      :     0.014590

 18 H s       :     0.897562  s :     0.897562
      pz      :     0.010239  p :     0.044625
      px      :     0.011414
      py      :     0.022973

 19 H s       :     0.940516  s :     0.940516
      pz      :     0.021206  p :     0.048946
      px      :     0.012741
      py      :     0.014998

 20 H s       :     0.920393  s :     0.920393
      pz      :     0.016495  p :     0.043180
      px      :     0.010100
      py      :     0.016585

 21 H s       :     0.910071  s :     0.910071
      pz      :     0.020145  p :     0.042638
      px      :     0.010646
      py      :     0.011847

 22 H s       :     0.925511  s :     0.925511
      pz      :     0.019680  p :     0.043228
      px      :     0.010527
      py      :     0.013021

 23 H s       :     0.906561  s :     0.906561
      pz      :     0.016939  p :     0.042284
      px      :     0.009768
      py      :     0.015577

 24 H s       :     0.943092  s :     0.943092
      pz      :     0.020636  p :     0.048739
      px      :     0.013906
      py      :     0.014198

 25 H s       :     0.917772  s :     0.917772
      pz      :     0.018056  p :     0.043633
      px      :     0.010563
      py      :     0.015013

 26 H s       :     0.915567  s :     0.915567
      pz      :     0.019032  p :     0.042515
      px      :     0.010180
      py      :     0.013304

 27 H s       :     0.914464  s :     0.914464
      pz      :     0.018304  p :     0.042639
      px      :     0.010454
      py      :     0.013880

 28 H s       :     0.890139  s :     0.890139
      pz      :     0.019713  p :     0.044506
      px      :     0.009655
      py      :     0.015138

 29 H s       :     0.943723  s :     0.943723
      pz      :     0.009997  p :     0.049305
      px      :     0.023155
      py      :     0.016154

 30 H s       :     0.927907  s :     0.927907
      pz      :     0.010860  p :     0.041032
      px      :     0.020755
      py      :     0.009417

 31 H s       :     0.921484  s :     0.921484
      pz      :     0.015182  p :     0.040075
      px      :     0.015839
      py      :     0.009054

 32 H s       :     0.729852  s :     0.729852
      pz      :     0.033322  p :     0.096717
      px      :     0.038763
      py      :     0.024632

 33 H s       :     0.923740  s :     0.923740
      pz      :     0.017468  p :     0.043945
      px      :     0.015634
      py      :     0.010843

 34 H s       :     0.896543  s :     0.896543
      pz      :     0.010466  p :     0.044184
      px      :     0.018300
      py      :     0.015418

 35 H s       :     0.901162  s :     0.901162
      pz      :     0.010158  p :     0.043950
      px      :     0.011633
      py      :     0.022159

 36 H s       :     0.904865  s :     0.904865
      pz      :     0.010632  p :     0.044571
      px      :     0.012080
      py      :     0.021859

[...]
 95:   1543.67   0.002154   10.88  0.000435  (-0.010286 -0.018153 -0.000068)
 96:   1560.96   0.000422    2.13  0.000084  (-0.002834 -0.003173  0.008135)
 97:   1787.89   0.006597   33.34  0.001151  ( 0.021266  0.000096  0.026441)
 98:   1801.20   0.001345    6.80  0.000233  (-0.004599  0.001721  0.014454)
 99:   1807.65   0.000487    2.46  0.000084  ( 0.006458  0.001939 -0.006215)
100:   3088.07   0.002245   11.35  0.000227  ( 0.006814  0.013431 -0.000273)
101:   3092.41   0.012079   61.04  0.001219  ( 0.012120  0.025286  0.020801)
102:   3093.62   0.006696   33.84  0.000675  (-0.024291 -0.007476 -0.005434)
103:   3098.81   0.010989   55.53  0.001107  ( 0.020015  0.008215 -0.025269)
104:   3099.67   0.001424    7.19  0.000143  (-0.003025 -0.002424  0.011327)
105:   3101.51   0.006865   34.69  0.000691  (-0.004752  0.004235  0.025500)
106:   3104.57   0.005024   25.39  0.000505  ( 0.005610  0.021707  0.001519)
107:   3105.36   0.003126   15.80  0.000314  ( 0.003570  0.008898  0.014905)
108:   3109.41   0.006922   34.98  0.000695  ( 0.010678  0.022559 -0.008469)
109:   3148.81   0.001223    6.18  0.000121  ( 0.001272  0.001186  0.010870)
110:   3166.82   0.000953    4.82  0.000094  (-0.001493  0.008906  0.003514)
111:   3168.25   0.000113    0.57  0.000011  (-0.000898  0.003077  0.000911)
112:   3169.48   0.004291   21.68  0.000422  (-0.007001  0.019325 -0.000017)
113:   3171.49   0.002299   11.62  0.000226  ( 0.014614 -0.003545  0.000282)
114:   3173.03   0.002619   13.24  0.000258  ( 0.000762 -0.009112  0.013191)
115:   3178.43   0.001709    8.64  0.000168  (-0.003341  0.008697  0.008999)
116:   3179.74   0.001586    8.01  0.000156  (-0.003363  0.011994 -0.000696)
117:   3185.79   0.001702    8.60  0.000167  (-0.007616  0.000960  0.010381)
118:   3197.15   0.000144    0.73  0.000014  (-0.003054  0.001689 -0.001380)
119:   3198.12   0.008027   40.57  0.000783  ( 0.012215  0.008713  0.023625)
120:   3207.04   0.004600   23.25  0.000448  ( 0.002187  0.001858  0.020962)
121:   3207.50   0.000241    1.22  0.000023  ( 0.000066 -0.000571 -0.004804)
122:   3211.46   0.007623   38.52  0.000741  ( 0.026229  0.005470 -0.004783)
123:   3219.85   0.004199   21.22  0.000407  ( 0.019811  0.003314  0.001871)
124:   3225.22   0.003261   16.48  0.000316  (-0.015850 -0.005598 -0.005740)
125:   3961.49   0.010557   53.35  0.000832  (-0.020581  0.019245  0.006139)

* The epsilon (eps) is given for a Dirac delta lineshape.
** The dipole moment derivative (T) already includes vibrational overlap.

The first frequency considered to be a vibration is 6
The total number of vibrations considered is 120


--------------------------
THERMOCHEMISTRY AT 298.15K
--------------------------

Temperature         ...   298.15 K
Pressure            ...     1.00 atm
Total Mass          ...   222.37 AMU
Quasi RRHO          ...     True
Cut-Off Frequency   ...     1.00 cm^-1

Throughout the following assumptions are being made:
  (1) The electronic state is orbitally nondegenerate
  (2) There are no thermally accessible electronically excited states
  (3) Hindered rotations indicated by low frequency modes are not
      treated as such but are treated as vibrations and this may
      cause some error
  (4) All equations used are the standard statistical mechanics
      equations for an ideal gas
  (5) All vibrations are strictly harmonic

freq.      10.52  E(vib)   ...       0.58 
freq.      17.84  E(vib)   ...       0.57 
freq.      20.84  E(vib)   ...       0.56 
freq.      36.57  E(vib)   ...       0.54 
freq.      47.69  E(vib)   ...       0.53 
freq.      52.01  E(vib)   ...       0.52 
freq.      64.56  E(vib)   ...       0.50 
freq.      73.50  E(vib)   ...       0.49 
freq.     101.89  E(vib)   ...       0.46 
freq.     126.54  E(vib)   ...       0.43 
freq.     132.34  E(vib)   ...       0.42 
freq.     142.93  E(vib)   ...       0.41 
freq.     178.61  E(vib)   ...       0.37 
freq.     184.95  E(vib)   ...       0.37 
freq.     192.12  E(vib)   ...       0.36 
freq.     207.50  E(vib)   ...       0.34 
freq.     212.76  E(vib)   ...       0.34 
freq.     287.75  E(vib)   ...       0.27 
freq.     304.51  E(vib)   ...       0.26 
freq.     319.47  E(vib)   ...       0.25 
freq.     357.21  E(vib)   ...       0.22 
freq.     367.10  E(vib)   ...       0.22 
freq.     393.85  E(vib)   ...       0.20 
freq.     406.81  E(vib)   ...       0.19 
freq.     451.46  E(vib)   ...       0.16 
freq.     470.19  E(vib)   ...       0.16 
freq.     474.77  E(vib)   ...       0.15 
freq.     513.21  E(vib)   ...       0.13 
freq.     537.95  E(vib)   ...       0.12 
freq.     588.05  E(vib)   ...       0.10 
freq.     609.74  E(vib)   ...       0.10 
freq.     630.30  E(vib)   ...       0.09 
freq.     770.20  E(vib)   ...       0.05 
freq.     784.42  E(vib)   ...       0.05 
freq.     826.14  E(vib)   ...       0.04 
freq.     833.98  E(vib)   ...       0.04 
freq.     846.66  E(vib)   ...       0.04 
freq.     868.13  E(vib)   ...       0.04 
freq.     885.31  E(vib)   ...       0.04 
freq.     912.56  E(vib)   ...       0.03 
freq.     985.92  E(vib)   ...       0.02 
freq.     991.77  E(vib)   ...       0.02 
freq.    1004.23  E(vib)   ...       0.02 
freq.    1015.25  E(vib)   ...       0.02 
freq.    1033.29  E(vib)   ...       0.02 
freq.    1033.99  E(vib)   ...       0.02 
freq.    1041.51  E(vib)   ...       0.02 
freq.    1054.27  E(vib)   ...       0.02 
freq.    1063.27  E(vib)   ...       0.02 
freq.    1072.65  E(vib)   ...       0.02 
freq.    1091.50  E(vib)   ...       0.02 
freq.    1095.39  E(vib)   ...       0.02 
freq.    1102.49  E(vib)   ...       0.02 
freq.    1128.82  E(vib)   ...       0.01 
freq.    1131.98  E(vib)   ...       0.01 
freq.    1153.40  E(vib)   ...       0.01 
freq.    1166.94  E(vib)   ...       0.01 
freq.    1191.01  E(vib)   ...       0.01 
freq.    1207.03  E(vib)   ...       0.01 
freq.    1229.49  E(vib)   ...       0.01 
freq.    1270.33  E(vib)   ...       0.01 
freq.    1286.92  E(vib)   ...       0.01 
freq.    1295.99  E(vib)   ...       0.01 
freq.    1308.93  E(vib)   ...       0.01 
freq.    1319.33  E(vib)   ...       0.01 
freq.    1339.60  E(vib)   ...       0.01 
freq.    1346.81  E(vib)   ...       0.01 
freq.    1364.16  E(vib)   ...       0.01 
freq.    1389.53  E(vib)   ...       0.00 
freq.    1399.44  E(vib)   ...       0.00 
freq.    1411.85  E(vib)   ...       0.00 
freq.    1426.39  E(vib)   ...       0.00 
freq.    1431.34  E(vib)   ...       0.00 
freq.    1445.36  E(vib)   ...       0.00 
freq.    1450.40  E(vib)   ...       0.00 
freq.    1457.02  E(vib)   ...       0.00 
freq.    1458.34  E(vib)   ...       0.00 
freq.    1460.90  E(vib)   ...       0.00 
freq.    1502.23  E(vib)   ...       0.00 
freq.    1504.20  E(vib)   ...       0.00 
freq.    1509.90  E(vib)   ...       0.00 
freq.    1510.43  E(vib)   ...       0.00 
freq.    1513.84  E(vib)   ...       0.00 
freq.    1517.92  E(vib)   ...       0.00 
freq.    1520.27  E(vib)   ...       0.00 
freq.    1522.35  E(vib)   ...       0.00 
freq.    1527.06  E(vib)   ...       0.00 
freq.    1533.46  E(vib)   ...       0.00 
freq.    1539.68  E(vib)   ...       0.00 
freq.    1543.67  E(vib)   ...       0.00 
freq.    1560.96  E(vib)   ...       0.00 
freq.    1787.89  E(vib)   ...       0.00 
freq.    1801.20  E(vib)   ...       0.00 
freq.    1807.65  E(vib)   ...       0.00 
freq.    3088.07  E(vib)   ...       0.00 
freq.    3092.41  E(vib)   ...       0.00 
freq.    3093.62  E(vib)   ...       0.00 
freq.    3098.81  E(vib)   ...       0.00 
freq.    3099.67  E(vib)   ...       0.00 
freq.    3101.51  E(vib)   ...       0.00 
freq.    3104.57  E(vib)   ...       0.00 
freq.    3105.36  E(vib)   ...       0.00 
freq.    3109.41  E(vib)   ...       0.00 
freq.    3148.81  E(vib)   ...       0.00 
freq.    3166.82  E(vib)   ...       0.00 
freq.    3168.25  E(vib)   ...       0.00 
freq.    3169.48  E(vib)   ...       0.00 
freq.    3171.49  E(vib)   ...       0.00 
freq.    3173.03  E(vib)   ...       0.00 
freq.    3178.43  E(vib)   ...       0.00 
freq.    3179.74  E(vib)   ...       0.00 
freq.    3185.79  E(vib)   ...       0.00 
freq.    3197.15  E(vib)   ...       0.00 
freq.    3198.12  E(vib)   ...       0.00 
freq.    3207.04  E(vib)   ...       0.00 
freq.    3207.50  E(vib)   ...       0.00 
freq.    3211.46  E(vib)   ...       0.00 
freq.    3219.85  E(vib)   ...       0.00 
freq.    3225.22  E(vib)   ...       0.00 
freq.    3961.49  E(vib)   ...       0.00 

------------
INNER ENERGY
------------

The inner energy is: U= E(el) + E(ZPE) + E(vib) + E(rot) + E(trans)
    E(el)   - is the total energy from the electronic structure calculation
              = E(kin-el) + E(nuc-el) + E(el-el) + E(nuc-nuc)
    E(ZPE)  - the the zero temperature vibrational energy from the frequency calculation
    E(vib)  - the the finite temperature correction to E(ZPE) due to population
              of excited vibrational states
    E(rot)  - is the rotational thermal energy
    E(trans)- is the translational thermal energy

Summary of contributions to the inner energy U:
Electronic energy                ...   -117.16499375 Eh
Zero point energy                ...      0.38720995 Eh     242.98 kcal/mol
Thermal vibrational correction   ...      0.01792500 Eh      11.25 kcal/mol
Thermal rotational correction    ...      0.00141627 Eh       0.89 kcal/mol
Thermal translational correction ...      0.00141627 Eh       0.89 kcal/mol
-----------------------------------------------------------------------
Total thermal energy                   -116.75702625 Eh


Summary of corrections to the electronic energy:
(perhaps to be used in another calculation)
Total thermal correction                  0.02075754 Eh      13.03 kcal/mol
Non-thermal (ZPE) correction              0.38720995 Eh     242.98 kcal/mol
-----------------------------------------------------------------------
Total correction                          0.40796750 Eh     256.00 kcal/mol


--------
ENTHALPY
--------

The enthalpy is H = U + kB*T
                kB is Boltzmann's constant
Total thermal energy              ...   -116.75702625 Eh 
Thermal Enthalpy correction       ...      0.00094421 Eh       0.59 kcal/mol
-----------------------------------------------------------------------
Total Enthalpy                    ...   -116.75608204 Eh


Note: Only C1 symmetry has been detected, increase convergence thresholds 
      if your molecule has a higher symmetry. Symmetry factor of 1.0 is   
      used for the rotational entropy correction. 
 

Note: Rotational entropy computed according to Herzberg 
Infrared and Raman Spectra, Chapter V,1, Van Nostrand Reinhold, 1945 
Point Group:  C1, Symmetry Number:   1  
Rotational constants in cm-1:     0.039879     0.004669     0.004352 

Vibrational entropy computed according to the QRRHO of S. Grimme
Chem.Eur.J. 2012 18 9955 using a reference frequency of 100.0 cm-1


-------
ENTROPY
-------

The entropy contributions are T*S = T*(S(el)+S(vib)+S(rot)+S(trans))
     S(el)   - electronic entropy
     S(vib)  - vibrational entropy
     S(rot)  - rotational entropy
     S(trans)- translational entropy
The entropies will be listed as multiplied by the temperature to get
units of energy

Electronic entropy                ...      0.00000000 Eh      0.00 kcal/mol
Vibrational entropy               ...      0.03369568 Eh     21.14 kcal/mol
Rotational entropy                ...      0.01613230 Eh     10.12 kcal/mol
Translational entropy             ...      0.02000310 Eh     12.55 kcal/mol
-----------------------------------------------------------------------
Final entropy term                ...      0.06983108 Eh     43.82 kcal/mol

In case the symmetry of your molecule has not been determined correctly
or in case you have a reason to use a different symmetry number we print 
out the resulting rotational entropy values for sn=1,12:

 non-linear molecules -----------------------------------
|  sn= 1 | S(rot)=       0.01613230 Eh     10.12 kcal/mol|
|  sn= 2 | S(rot)=       0.01547784 Eh      9.71 kcal/mol|
|  sn= 3 | S(rot)=       0.01509501 Eh      9.47 kcal/mol|
|  sn= 4 | S(rot)=       0.01482338 Eh      9.30 kcal/mol|
|  sn= 5 | S(rot)=       0.01461270 Eh      9.17 kcal/mol|
|  sn= 6 | S(rot)=       0.01444055 Eh      9.06 kcal/mol|
|  sn= 7 | S(rot)=       0.01429500 Eh      8.97 kcal/mol|
|  sn= 8 | S(rot)=       0.01416893 Eh      8.89 kcal/mol|
|  sn= 9 | S(rot)=       0.01405772 Eh      8.82 kcal/mol|
|  sn=10 | S(rot)=       0.01395824 Eh      8.76 kcal/mol|
|  sn=11 | S(rot)=       0.01386825 Eh      8.70 kcal/mol|
|  sn=12 | S(rot)=       0.01378609 Eh      8.65 kcal/mol|
 linear molecules ---------------------------------------
|  Dinfh | S(rot)=       0.01045937 Eh      6.56 kcal/mol|
|  Cinfv | S(rot)=       0.01111382 Eh      6.97 kcal/mol|
 --------------------------------------------------------


-------------------
GIBBS FREE ENERGY
-------------------

The Gibbs free energy is G = H - T*S

Total enthalpy                    ...   -116.75608204 Eh 
Total entropy correction          ...     -0.06983108 Eh    -43.82 kcal/mol
-----------------------------------------------------------------------
Final Gibbs free energy         ...   -116.82591312 Eh

For completeness - the Gibbs free energy minus the electronic energy
G-E(el)                           ...      0.33908063 Eh    212.78 kcal/mol


Maximum memory used throughout the entire PROP-calculation: 269.5 MB

--------------------------------
SUGGESTED CITATIONS FOR THIS RUN
--------------------------------

Below you find a list of papers that are relevant to this ORCA run
We neither can nor want to force you to cite these papers, but we appreciate if you do
You receive ORCA, which is the product of decades of hard work by many enthusiastic individuals, for free
The only thing we kindly ask in return is that you cite our papers,
We deeply appreciate it, if you show your appreciation for ORCA by not just citing the generic ORCA reference.

Please note that relegating all ORCA citations to the supporting information does *not* help us.
SI sections are not indexed - citations you put there will not count into any citation statistics
But we need these citations in order to attract the funding resources that allow us to do what we are doing

Therefore, if you are a happy ORCA user, please consider citing a few of the papers listed below in the main body of your paper

In addition to the list printed below, the program has created the file ./output/_2e_6e_farnesol/_2e_6e_farnesol.bibtex that contains the list in bibtex format
You can import this file easily into all common literature databanks and citation aid programs


List of essential papers. We consider these as the minimum necessary citations

  1. Neese,F.
     Software update: the ORCA program system, version 5.0
     WIRES Comput. Molec. Sci., 2022 12(1)e1606
     doi.org/10.1002/wcms.1606
  2. Mueller,M.; Hansen,A.; Grimme,S.
     wB97X-3c: A composite range-separated hybrid DFT method with a molecule-optimized polarized valence double-zeta basis set
     J. Chem. Phys., 2023 158 014103
     doi.org/10.1063/5.0133026

List of papers to cite with high priority. The work reported in these papers was absolutely
necessary for this run to complete.
Our perspective: the developers of density functionals and basis sets usually get cited in chemistry papers
Good! But without the algorithms to do something with them, the functionals or basis sets would not do anything.
Hence, in our opinion, the algorithm design and method developments papers are equally worthy of getting cited

  1. Neese,F.
     An improvement of the resolution of the identity approximation for the formation of the Coulomb matrix
     J. Comp. Chem., 2003 24(14)1740-1747
     doi.org/10.1002/jcc.10318
  2. Neese,F.; Wennmohs,F.; Hansen,A.; Becker,U.
     Efficient, approximate and parallel Hartree-Fock and hybrid DFT calculations. A 'chain-of-spheres' algorithm for the Hartree-Fock exchange
     Chem. Phys., 2009 356(1-3)98-109
     doi.org/10.1016/j.chemphys.2008.10.036
  3. Bykov,D.; Petrenko,T.; Izsak,R.; Kossmann,S.; Becker,U.; Valeev,E.; Neese,F.
     Efficient implementation of the analytic second derivatives of Hartree-Fock and hybrid DFT energies: a detailed analysis of different approximations
     Molec. Phys., 2015 113 1961-1977
     doi.org/10.1080/00268976.2015.1025114
  4. Helmich-Paris,B.; de Souza,B.; Neese,F.; Izsák,R.
     An improved chain of spheres for exchange algorithm
     J. Chem. Phys., 2021 155 104109
     doi.org/doi: 10.1063/5.0058766.
  5. Neese,F.
     The SHARK Integral Generation and Digestion System
     J. Comp. Chem., 2022  1-16
     doi.org/10.1002/jcc.26942
  6. Caldeweyher,E.; Bannwarth,C.; Grimme,S.
     Extension of the D3 dispersion coefficient model
     J. Chem. Phys., 2017 147 034112
     doi.org/10.1063/1.4993215
  7. Caldeweyher,E.; Ehlert,S.; Hansen,A.; Neugebauer,H.; Spicher,S.; Bannwarth,C.; Grimme,S.
     A generally applicable atomic-charge dependent London dispersion correction
     J. Chem. Phys., 2019 150 154122
     doi.org/10.1063/1.5090222
  8. Caldeweyher,E.; Mewes,J.; Ehlert,S.; Grimme,S.
     Extension and evaluation of the D4 London-dispersion model for periodic systems
     Phys. Chem. Chem. Phys., 2020 22(16)8499-8512
     doi.org/10.1039/D0CP00502A
  9. Wittmann,L.; Gordiy,I.; Friede,M.; Helmich-Paris,B.; Grimme,S.; Hansen,A.; Bursch,M.
     Extension of the D3 and D4 London Dispersion Corrections to the full Actinides Series
     Phys. Chem. Chem. Phys., 2024 26(32)21379-21394
     doi.org/https://doi.org/10.1039/D4CP01514B 

List of suggested additional citations. These are papers that are important in the 'surrounding' of 
of this run, or papers that preceded the highly important papers. If you like your results we are grateful for a citation.

  1. Izsak,R.; Neese,F.
     An overlap fitted chain of spheres exchange method
     J. Chem. Phys., 2011 135 144105
     doi.org/10.1063/1.3646921
  2. Izsak,R.; Hansen,A.; Neese,F.
     The resolution of identity and chain of spheres approximations for the LPNO-CCSD singles Fock term
     Molec. Phys., 2012 110 2413-2417
     doi.org/10.1080/00268976.2012.687466
  3. Neese,F.
     The ORCA program system
     WIRES Comput. Molec. Sci., 2012 2(1)73-78
     doi.org/10.1002/wcms.81
  4. Izsak,R.; Neese,F.; Klopper,W.
     Robust fitting techniques in the chain of spheres approximation to the Fock exchange: The role of the complementary space
     J. Chem. Phys., 2013 139 
     doi.org/10.1063/1.4819264
  5. Neese,F.
     Software update: the ORCA program system, version 4.0
     WIRES Comput. Molec. Sci., 2018 8(1)1-6
     doi.org/10.1002/wcms.1327
  6. Neese,F.; Wennmohs,F.; Becker,U.; Riplinger,C.
     The ORCA quantum chemistry program package
     J. Chem. Phys., 2020 152 Art. No. L224108
     doi.org/10.1063/5.0004608

List of optional additional citations

  1. Neese,F.
     Approximate second-order SCF convergence for spin unrestricted wavefunctions
     Chem. Phys. Lett., 2000 325(1-3)93-98
     doi.org/10.1016/s0009-2614(00)00662-x

Timings for individual modules:

Sum of individual times          ...     3543.227 sec (=  59.054 min)
Startup calculation              ...      190.382 sec (=   3.173 min)   5.4 %
SCF iterations                   ...     2427.330 sec (=  40.455 min)  68.5 %
Property integrals               ...      156.383 sec (=   2.606 min)   4.4 %
SCF Response                     ...       89.461 sec (=   1.491 min)   2.5 %
Property calculations            ...      190.592 sec (=   3.177 min)   5.4 %
SCF Gradient evaluation          ...      487.993 sec (=   8.133 min)  13.8 %
Geometry relaxation              ...        1.087 sec (=   0.018 min)   0.0 %
                             ****ORCA TERMINATED NORMALLY****
TOTAL RUN TIME: 0 days 0 hours 59 minutes 20 seconds 262 msec
