
                                 *****************
                                 * O   R   C   A *
                                 *****************

                                            #,                                       
                                            ###                                      
                                            ####                                     
                                            #####                                    
                                            ######                                   
                                           ########,                                 
                                     ,,################,,,,,                         
                               ,,#################################,,                 
                          ,,##########################################,,             
                       ,#########################################, ''#####,          
                    ,#############################################,,   '####,        
                  ,##################################################,,,,####,       
                ,###########''''           ''''###############################       
              ,#####''   ,,,,##########,,,,          '''####'''          '####       
            ,##' ,,,,###########################,,,                        '##       
           ' ,,###''''                  '''############,,,                           
         ,,##''                                '''############,,,,        ,,,,,,###''
      ,#''                                            '''#######################'''  
     '                                                          ''''####''''         
             ,#######,   #######,   ,#######,      ##                                
            ,#'     '#,  ##    ##  ,#'     '#,    #''#        ,####,   ,####,        
            ##       ##  ##   ,#'  ##            #'  '#       #'       #'  '#        
            ##       ##  #######   ##           ,######,      #####,   #    #        
            '#,     ,#'  ##    ##  '#,     ,#' ,#      #,     #,   #   #,  ,#        
             '#######'   ##     ##  '#######'  #'      '#     '####' # '####'        



                #########################################################
                #                        -***-                          #
                #          Department of theory and spectroscopy        #
                #                                                       #
                #                      Frank Neese                      #
                #                                                       #
                #     Directorship, Architecture, Infrastructure        #
                #                    SHARK, DRIVERS                     #
                #        Core code/Algorithms in most modules           #
                #                                                       #
                #        Max Planck Institute fuer Kohlenforschung      #
                #                Kaiser Wilhelm Platz 1                 #
                #                 D-45470 Muelheim/Ruhr                 #
                #                      Germany                          #
                #                                                       #
                #                  All rights reserved                  #
                #                        -***-                          #
                #########################################################


                         Program Version 6.0.1  -  RELEASE   -


 With contributions from (in alphabetic order):
[Max-Planck-Institut fuer Kohlenforschung]                               
  Daniel Aravena         : Magnetic Suceptibility                        
  Michael Atanasov       : Ab Initio Ligand Field Theory (pilot matlab implementation)
  Alexander A. Auer      : GIAO ZORA, VPT2 properties, NMR spectrum      
  Ute Becker             : All parallelization in ORCA, NUMFREQ, NUMCALC 
  Giovanni Bistoni       : ED, misc. LED, open-shell LED, HFLD           
  Martin Brehm           : Molecular dynamics                            
  Dmytro Bykov           : pre 5.0 version of the SCF Hessian            
  Marcos Casanova-Páez   : Triplet and SCS-CIS(D). UHF-(DLPNO)-IP/EA/STEOM-CCSD. UHF-CVS-IP/STEOM-CCSD   
  Vijay G. Chilkuri      : MRCI spin determinant printing, contributions to CSF-ICE 
  Pauline Colinet        : FMM embedding                                 
  Dipayan Datta          : RHF DLPNO-CCSD density                        
  Achintya Kumar Dutta   : EOM-CC, STEOM-CC                              
  Nicolas Foglia         : Exact transition moments, OPA infrastructure, MCD improvements    
  Dmitry Ganyushin       : Spin-Orbit,Spin-Spin,Magnetic field MRCI      
  Miquel Garcia-Rates    : C-PCM and meta-GGA Hessian, CCSD/C-PCM, Gaussian charge scheme 
  Tiago L. C. Gouveia    : GS-ROHF, GS-ROCIS                             
  Yang Guo               : DLPNO-NEVPT2, F12-NEVPT2, CIM, IAO-localization        
  Andreas Hansen         : Spin unrestricted coupled pair/coupled cluster methods 
  Ingolf Harden          : AUTO-CI MPn and infrastructure                
  Benjamin Helmich-Paris : MC-RPA, TRAH-(SCF,CASSCF), AVAS, COSX integrals, SCF dyn. polar. 
  Lee Huntington         : MR-EOM, pCC                                   
  Robert Izsak           : Overlap fitted RIJCOSX, COSX-SCS-MP3, EOM     
  Riya Kayal             : Wick's Theorem for AUTO-CI, AUTO-CI UHF-CCSDT 
  Emily Kempfer          : AUTO-CI, RHF CISDT and CCSDT                  
  Christian Kollmar      : KDIIS, OOCD, Brueckner-CCSD(T), CCSD density, CASPT2, CASPT2-K, improved NEVPT2 
  Axel Koslowski         : Symmetry handling                             
  Simone Kossmann        : meta-GGA functionals, TD-DFT gradient, OOMP2, (MP2 Hessian; deprecated post 5.0) 
  Lucas Lang             : DCDCAS                                        
  Marvin Lechner         : AUTO-CI (C++ implementation), FIC-MRCC        
  Spencer Leger          : CASSCF response                               
  Dagmar Lenk            : GEPOL surface, SMD, ORCA-2-JSON               
  Dimitrios Liakos       : Extrapolation schemes; Compound Job, initial MDCI parallelization 
  Dimitrios Manganas     : Further ROCIS development; embedding schemes. LFT, Crystal Embedding 
  Dimitrios Pantazis     : SARC Basis sets                               
  Anastasios Papadopoulos: AUTO-CI, single reference methods and gradients 
  Taras Petrenko         : pre 6.0 DFT Hessian and TD-DFT gradient, (ASA, deprecated), ECA, 1-Electron XAS/XES, NRVS 
  Peter Pinski           : DLPNO-MP2, DLPNO-MP2 Gradient                 
  Christoph Reimann      : Effective Core Potentials                     
  Marius Retegan         : Local ZFS, SOC                                
  Christoph Riplinger    : Optimizer, TS searches, QM/MM, DLPNO-CCSD(T), (RO)-DLPNO pert. Triples 
  Michael Roemelt        : Original ROCIS implementation                 
  Masaaki Saitow         : Open-shell DLPNO-CCSD energy and density      
  Barbara Sandhoefer     : DKH picture change effects                    
  Kantharuban Sivalingam : CASSCF convergence/infrastructure, NEVPT2 and variants, FIC-MRCI 
  Bernardo de Souza      : ESD, SOC TD-DFT                               
  Georgi L. Stoychev     : AutoAux, RI-MP2 NMR, DLPNO-MP2 response, X2C  
  Van Anh Tran           : RI-MP2 g-tensors                              
  Willem Van den Heuvel  : Paramagnetic NMR                              
  Zikuan Wang            : NOTCH, Electric field optimization            
  Frank Wennmohs         : Technical directorship and infrastructure     
  Hang Xu                : AUTO-CI-Response properties                   
                                                                         
[FACCTs GmbH]                                                            
  Markus Bursch, Miquel Garcia-Rates, Christoph Riplinger, Bernardo de Souza, Georgi L. Stoychev 
                                                                 
  APM, Basis sets (HGBS, AHGBS, def-TZVP (Ac-Lr), def2-XVPD (La-Lu)), CI-OPT, improved COSX, DLPNO-Multilevel,           
  DOCKER, DRACO, updates on ESD, GOAT, IRC, LR-CPCM, MBIS, meta-GGA TD-DFT gradient, ML-optimized integration grids, 
  MM, NACMEs, nearIR, NEB, NEB-TS, NL-DFT gradient (VV10), 2- and 3-layer-ONIOM, interface openCOSMO-RS, QMMM,   
  Crystal-QMMM, SF, symmetry and pop. for TD-DFT, r2SCAN hybrids, SOLVATOR                                   
                                                                         
[Other institutions]                                                     
  V. Asgeirsson          : NEB                                           
  Christoph Bannwarth    : sTDA-DFT, sTD-DFT, PBEh-3c, B97-3c, D3        
  Sebastian Ehlert       : rSCAN, r2SCAN, r2SCAN-3c, D4, dhf basis sets  
  Marvin Friede          : D4 for Fr, Ra, Ac-Lr                          
  Lars Goerigk           : TD-DFT with DH, B97 family of functionals     
  Stefan Grimme          : VdW corrections, initial TS optimization, DFT functionals, gCP, sTDA/sTD-DF 
  Waldemar Hujo          : DFT-NL                                        
  H. Jonsson             : NEB                                           
  Holger Kruse           : gCP                                           
  Marcel Mueller         : wB97X-3c, vDZP basis set                      
  Hagen Neugebauer       : wr2SCAN                                       
  Tobias Risthaus        : range-separated hybrid DFT                    
  Lukas Wittmann         : regularized MP2, r2SCAN double-hybrids, wr2SCAN        
                                                                         
We gratefully acknowledge several colleagues who have allowed us to      
interface, adapt or use parts of their codes:                            
  Ed Valeev, F. Pavosevic, A. Kumar             : LibInt (2-el integral package), F12 methods 
  Garnet Chan, S. Sharma, J. Yang, R. Olivares  : DMRG                   
  Ulf Ekstrom                                   : XCFun DFT Library      
  Mihaly Kallay                                 : mrcc  (arbitrary order and MRCC methods)
  Frank Weinhold                                : gennbo (NPA and NBO analysis)           
  Simon Mueller                                 : openCOSMO-RS                            
  Christopher J. Cramer and Donald G. Truhlar   : smd solvation model                     
  S Lehtola, MJT Oliveira, MAL Marques          : LibXC Library                           
  Liviu Ungur et al                             : ANISO software                          


 Your calculation uses the libint2 library for the computation of 2-el integrals
 For citations please refer to: http://libint.valeyev.net

 Your ORCA version has been built with support for libXC version: 6.2.2
 For citations please refer to: https://libxc.gitlab.io

 This ORCA versions uses:
   CBLAS   interface :  Fast vector & matrix operations
   LAPACKE interface :  Fast linear algebra routines
   SCALAPACK package :  Parallel linear algebra routines
   Shared memory     :  Shared parallel matrices
   BLAS/LAPACK       :  OpenBLAS 0.3.27  USE64BITINT DYNAMIC_ARCH NO_AFFINITY SkylakeX SINGLE_THREADED
        Core in use  :  SkylakeX
   Copyright (c) 2011-2014, The OpenBLAS Project


Your calculation utilizes the atom-pairwise dispersion correction
based on EEQ partial charges (D4)


================================================================================

cite the ECPs for C  [vDZP-ECP] as follows:
   B-Ne (ecp-2-mwb), Al-Ar (ecp-10-mwb), Ga-Kr (ecp-28-mwb), Y-Cd (ecp-28-mwb), In-Xe (ecp-46-mwb):
     A. Bergner, M. Dolg, W. Küchle, H. Stoll, and H. Preuß, Mol. Phys. 80, 1431 (1993)., T. Leininger, A. Berning, A. Nicklass, H. Stoll, H.-J. Werner, and H.-J.Flad, Chem. Phys. 217, 19 (1997).
   Na-Mg, K-Ca, Rb-Sr, Cs-Ba (CRENBL):
     L. Fernandez Pacios and P. A. Christiansen, J. Chem. Phys. 82, 2664 (1985)., M. M. Hurley, L. F. Pacios, P. A. Christiansen, R. B. Ross, and W. C. Ermler, J. Chem. Phys. 84, 6840 (1986)., L. A. LaJohn, P. A. Christiansen, R. B. Ross, T. Atashroo, and W. C. Ermler, J. Chem. Phys. 87, 2812 (1987)., R. B. Ross, J. M. Powers, T. Atashroo, W. C. Ermler, L. A. LaJohn, and P. A. Christiansen, J. Chem. Phys. 93, 6654 (1990). 
   Sc-Zn (ecp-10-mdf):
     M. Dolg, U. Wedig, H. Stoll, and H. Preuss, J. Chem. Phys. 86, 866 (1986). 
   Y-Cd (ecp-28-mwb), Hf-Hg (ecp-60-mwb):
     D. Andrae, U. Häußermann, M. Dolg, H. Stoll, and H. Preuß, Theor. Chim. Acta 77, 123 (1990). 
   La (ecp-46-mwb):
     M. Dolg, H. Stoll, and H. Preuss, J. Chem. Phys. 90, 1730 (1989)., M. Dolg, H. Stoll, and H. Preuss, Theor. Chim. Acta 85, 441 (1993).
   Ce-Lu (SBKJC-ecp):
     T. R. Cundari and W. J. Stevens, J. Chem. Phys. 98, 5555 (1993).
   Tl-Rn (ecp-78-mwb):
     W. Küchle, M. Dolg, H. Stoll, and H. Preuss, Mol. Phys. 74, 1245 (1991).

ECP parameters for C  [vDZP-ECP] have been obtained from:
MM, AH, SG, J. Chem. Phys. 158, 014103 (2023), 10.1063/5.0133026

----- Orbital basis set information -----
Your calculation utilizes the basis: vDZP
   Marcel Mueller, Andreas Hansen, Stefan Grimme 
   J. Chem. Phys. 158, 014103 (2023). DOI: 10.1063/5.0133026

----- AuxJ basis set information -----
Your calculation utilizes the auxiliary basis: def2/J
   F. Weigend, Phys. Chem. Chem. Phys. 8, 1057 (2006).

================================================================================
                                        WARNINGS
                       Please study these warnings very carefully!
================================================================================

WARNING: Frozen-Core approximation turned on, but there are no core electrons.
  ===> : Turning off frozen-core approximation


WARNING: Geometry Optimization
  ===> : Switching off AutoStart
         For restart on a previous wavefunction, please use MOREAD

================================================================================
                                       INPUT FILE
================================================================================
NAME = ./output/delta_cadinene/delta_cadinene.inp
|  1> ! wB97X-3c OPT FREQ TightSCF
|  2> %pal
|  3>   nprocs 40
|  4> end
|  5> * xyz 0 1
|  6> C     -1.214125     3.244849    -1.183210
|  7> C     -1.148403     2.020834    -0.311018
|  8> C      0.024303     1.346533    -0.211558
|  9> C      0.212552     0.154229     0.716105
| 10> C      1.284693    -0.890293     0.272960
| 11> C      0.706867    -1.816784    -0.804876
| 12> C     -0.479427    -2.594495    -0.236322
| 13> C     -1.497696    -1.700302     0.441284
| 14> C     -1.149192    -0.485079     0.958826
| 15> C     -2.174431     0.503237     1.459580
| 16> C     -2.428760     1.525687     0.347098
| 17> C     -2.897062    -2.249005     0.592050
| 18> C      2.726926    -0.377977    -0.068218
| 19> C      3.219210     0.717737     0.889954
| 20> C      2.963909     0.008562    -1.542906
| 21> H     -2.244989     3.656622    -1.215695
| 22> H     -0.534140     4.026755    -0.784000
| 23> H     -0.907093     2.987250    -2.219088
| 24> H      0.889834     1.800501    -0.667159
| 25> H      0.550204     0.570041     1.690624
| 26> H      1.437883    -1.530648     1.174217
| 27> H      1.476149    -2.547218    -1.138078
| 28> H      0.377202    -1.222894    -1.685785
| 29> H     -0.115041    -3.339976     0.503444
| 30> H     -0.959247    -3.151687    -1.069935
| 31> H     -1.768288     1.028298     2.351716
| 32> H     -3.129660     0.037748     1.775615
| 33> H     -3.067771     1.061144    -0.434796
| 34> H     -2.985072     2.386851     0.775975
| 35> H     -2.980200    -3.268325     0.159274
| 36> H     -3.621282    -1.593847     0.063723
| 37> H     -3.164430    -2.318500     1.667528
| 38> H      3.405456    -1.244107     0.108200
| 39> H      2.698719     1.679941     0.715611
| 40> H      3.059467     0.405107     1.943809
| 41> H      4.308217     0.885371     0.747408
| 42> H      3.979290     0.441671    -1.667669
| 43> H      2.228698     0.735660    -1.926585
| 44> H      2.916730    -0.893490    -2.188106
| 45> *
| 46> 
| 47>                          ****END OF INPUT****
================================================================================

                       *****************************
                       * Geometry Optimization Run *
                       *****************************

Geometry optimization settings:
Update method            Update   .... BFGS
Choice of coordinates    CoordSys .... (2022) Redundant Internals
Initial Hessian          InHess   .... Almloef's Model
Max. no of cycles        MaxIter  .... 117

Convergence Tolerances:
Energy Change            TolE     ....  5.0000e-06 Eh
Max. Gradient            TolMAXG  ....  3.0000e-04 Eh/bohr
RMS Gradient             TolRMSG  ....  1.0000e-04 Eh/bohr
Max. Displacement        TolMAXD  ....  4.0000e-03 bohr
RMS Displacement         TolRMSD  ....  2.0000e-03 bohr
Strict Convergence                .... False

------------------------------------------------------------------------------
                        ORCA OPTIMIZATION COORDINATE SETUP
------------------------------------------------------------------------------

The optimization will be done in redundant internal coordinates (2022)
Making redundant internal coordinates   ...  (2022 redundants) done
Evaluating the initial hessian          ...  (Almloef) done
Evaluating the coordinates              ...  done
Calculating the B-matrix                .... done
Calculating the G-matrix                .... done
Diagonalizing the G-matrix              .... done
Small eigenvalue found = 1.175e-02
Small eigenvalue found = 1.782e-02
Small eigenvalue found = 2.400e-02
The first mode is                       ....   92
The number of degrees of freedom        ....  111

    -----------------------------------------------------------------
                    Redundant Internal Coordinates


    -----------------------------------------------------------------
         Definition                    Initial Value    Approx d2E/dq
    -----------------------------------------------------------------
      1. B(C   1,C   0)                  1.5044         0.410397   
      2. B(C   2,C   1)                  1.3564         0.706886   
      3. B(C   3,C   2)                  1.5224         0.384206   
      4. B(C   4,C   3)                  1.5611         0.333298   
      5. B(C   5,C   4)                  1.5343         0.367754   
      6. B(C   6,C   5)                  1.5282         0.376059   
      7. B(C   7,C   6)                  1.5151         0.394557   
      8. B(C   8,C   7)                  1.3660         0.682278   
      9. B(C   8,C   3)                  1.5238         0.382177   
     10. B(C   9,C   8)                  1.5095         0.402771   
     11. B(C  10,C   9)                  1.5322         0.370538   
     12. B(C  10,C   1)                  1.5224         0.384198   
     13. B(C  11,C   7)                  1.5106         0.401113   
     14. B(C  12,C   4)                  1.5681         0.324794   
     15. B(C  13,C  12)                  1.5366         0.364675   
     16. B(C  14,C  12)                  1.5428         0.356395   
     17. B(H  15,C   0)                  1.1105         0.333931   
     18. B(H  16,C   0)                  1.1105         0.334024   
     19. B(H  17,C   0)                  1.1107         0.333724   
     20. B(H  18,C   2)                  1.0783         0.375869   
     21. B(H  19,C   3)                  1.1120         0.332113   
     22. B(H  20,C   4)                  1.1161         0.327119   
     23. B(H  21,C   5)                  1.1119         0.332247   
     24. B(H  22,C   5)                  1.1124         0.331681   
     25. B(H  23,C   6)                  1.1117         0.332565   
     26. B(H  24,C   6)                  1.1116         0.332660   
     27. B(H  25,C   9)                  1.1120         0.332140   
     28. B(H  26,C   9)                  1.1086         0.336302   
     29. B(H  27,C  10)                  1.1115         0.332719   
     30. B(H  28,C  10)                  1.1113         0.332978   
     31. B(H  29,C  11)                  1.1105         0.333972   
     32. B(H  30,C  11)                  1.1103         0.334173   
     33. B(H  31,C  11)                  1.1104         0.334111   
     34. B(H  32,C  12)                  1.1143         0.329324   
     35. B(H  33,C  13)                  1.1078         0.337350   
     36. B(H  34,C  13)                  1.1108         0.333615   
     37. B(H  35,C  13)                  1.1110         0.333344   
     38. B(H  36,C  14)                  1.1109         0.333460   
     39. B(H  37,C  14)                  1.1029         0.343417   
     40. B(H  38,C  14)                  1.1100         0.334532   
     41. A(C   1,C   0,H  16)          109.7378         0.325324   
     42. A(H  15,C   0,H  17)          108.3796         0.284035   
     43. A(C   1,C   0,H  17)          109.8723         0.325276   
     44. A(C   1,C   0,H  15)          111.0505         0.325309   
     45. A(H  16,C   0,H  17)          109.2271         0.284047   
     46. A(H  15,C   0,H  16)          108.5328         0.284075   
     47. A(C   0,C   1,C  10)          118.5884         0.371036   
     48. A(C   2,C   1,C  10)          122.2588         0.407972   
     49. A(C   0,C   1,C   2)          118.9963         0.412770   
     50. A(C   1,C   2,H  18)          116.9806         0.363510   
     51. A(C   3,C   2,H  18)          119.2040         0.328127   
     52. A(C   1,C   2,C   3)          122.7475         0.407974   
     53. A(C   2,C   3,C   8)          108.3695         0.366526   
     54. A(C   2,C   3,C   4)          115.8484         0.358062   
     55. A(C   8,C   3,H  19)          106.7762         0.321243   
     56. A(C   4,C   3,C   8)          112.2257         0.357739   
     57. A(C   4,C   3,H  19)          106.8838         0.314159   
     58. A(C   2,C   3,H  19)          106.1827         0.321521   
     59. A(C   3,C   4,C  12)          118.3488         0.348023   
     60. A(C   3,C   4,H  20)          104.4139         0.313389   
     61. A(C   5,C   4,C  12)          113.0059         0.353856   
     62. A(C   5,C   4,H  20)          105.8128         0.318441   
     63. A(C   3,C   4,C   5)          110.1706         0.355410   
     64. A(C  12,C   4,H  20)          103.7033         0.312080   
     65. A(C   6,C   5,H  22)          109.6499         0.320328   
     66. A(H  21,C   5,H  22)          108.5693         0.283541   
     67. A(C   4,C   5,H  22)          110.2148         0.319161   
     68. A(C   4,C   5,C   6)          109.7734         0.362789   
     69. A(C   6,C   5,H  21)          108.3152         0.320417   
     70. A(C   4,C   5,H  21)          110.2821         0.319250   
     71. A(C   5,C   6,C   7)          112.8146         0.367183   
     72. A(H  23,C   6,H  24)          107.7220         0.283713   
     73. A(C   7,C   6,H  24)          109.9454         0.323011   
     74. A(C   5,C   6,H  24)          108.1298         0.320482   
     75. A(C   7,C   6,H  23)          108.5697         0.322996   
     76. A(C   5,C   6,H  23)          109.5364         0.320467   
     77. A(C   6,C   7,C   8)          121.5336         0.407336   
     78. A(C   8,C   7,C  11)          121.4423         0.408525   
     79. A(C   6,C   7,C  11)          116.9255         0.371274   
     80. A(C   7,C   8,C   9)          122.3335         0.408824   
     81. A(C   3,C   8,C   9)          112.6502         0.369506   
     82. A(C   3,C   8,C   7)          122.7427         0.405047   
     83. A(C  10,C   9,H  26)          110.1297         0.320278   
     84. A(H  25,C   9,H  26)          106.5143         0.284137   
     85. A(C   8,C   9,H  26)          113.8832         0.324685   
     86. A(C  10,C   9,H  25)          109.1500         0.319627   
     87. A(C   8,C   9,H  25)          109.1004         0.324022   
     88. A(C   8,C   9,C  10)          107.9855         0.367549   
     89. A(H  27,C  10,H  28)          107.9112         0.283776   
     90. A(C   9,C  10,H  28)          108.6620         0.319758   
     91. A(C   1,C  10,H  28)          109.6215         0.321657   
     92. A(C   9,C  10,H  27)          109.1037         0.319718   
     93. A(C   1,C  10,H  27)          108.3813         0.321616   
     94. A(C   1,C  10,C   9)          113.0361         0.364589   
     95. A(H  29,C  11,H  31)          107.5768         0.284092   
     96. A(C   7,C  11,H  31)          110.0261         0.324117   
     97. A(H  29,C  11,H  30)          107.8988         0.284100   
     98. A(C   7,C  11,H  30)          110.0229         0.324127   
     99. A(C   7,C  11,H  29)          111.3373         0.324095   
    100. A(H  30,C  11,H  31)          109.9219         0.284118   
    101. A(C  13,C  12,C  14)          111.6031         0.358966   
    102. A(C   4,C  12,C  14)          115.5373         0.351981   
    103. A(C   4,C  12,C  13)          113.0770         0.353352   
    104. A(C  14,C  12,H  32)          104.6275         0.317164   
    105. A(C  13,C  12,H  32)          105.0973         0.318353   
    106. A(C   4,C  12,H  32)          105.7627         0.312419   
    107. A(H  34,C  13,H  35)          107.7673         0.283943   
    108. A(H  33,C  13,H  35)          108.0170         0.284435   
    109. A(C  12,C  13,H  35)          109.9756         0.318984   
    110. A(H  33,C  13,H  34)          109.0389         0.284471   
    111. A(C  12,C  13,H  34)          110.1723         0.319026   
    112. A(C  12,C  13,H  33)          111.7600         0.319607   
    113. A(H  37,C  14,H  38)          107.7698         0.285383   
    114. A(H  36,C  14,H  38)          106.8809         0.284079   
    115. A(C  12,C  14,H  38)          110.2090         0.317976   
    116. A(H  36,C  14,H  37)          108.2517         0.285240   
    117. A(C  12,C  14,H  37)          113.2842         0.319338   
    118. A(C  12,C  14,H  36)          110.2073         0.317809   
    119. D(C   2,C   1,C   0,H  16)    -63.3359         0.012473   
    120. D(C  10,C   1,C   0,H  16)    121.1075         0.012473   
    121. D(C   2,C   1,C   0,H  17)     56.7772         0.012473   
    122. D(C  10,C   1,C   0,H  15)      1.1124         0.012473   
    123. D(C   2,C   1,C   0,H  15)    176.6689         0.012473   
    124. D(C   3,C   2,C   1,C  10)     -8.7934         0.035252   
    125. D(C   3,C   2,C   1,C   0)    175.8209         0.035252   
    126. D(H  18,C   2,C   1,C  10)   -176.8657         0.035252   
    127. D(H  18,C   2,C   1,C   0)      7.7486         0.035252   
    128. D(H  19,C   3,C   2,C   1)    -89.2998         0.011000   
    129. D(C   8,C   3,C   2,H  18)   -167.0848         0.011000   
    130. D(C   4,C   3,C   2,H  18)    -39.9461         0.011000   
    131. D(C   8,C   3,C   2,C   1)     25.0964         0.011000   
    132. D(C   4,C   3,C   2,C   1)    152.2351         0.011000   
    133. D(C   5,C   4,C   3,C   2)    -79.6311         0.009028   
    134. D(C  12,C   4,C   3,H  19)    -65.5419         0.009028   
    135. D(C  12,C   4,C   3,C   8)    177.7231         0.009028   
    136. D(C   5,C   4,C   3,H  19)    162.2907         0.009028   
    137. D(C  12,C   4,C   3,C   2)     52.5363         0.009028   
    138. D(C   5,C   4,C   3,C   8)     45.5557         0.009028   
    139. D(H  21,C   5,C   4,H  20)    -68.9387         0.010820   
    140. D(H  21,C   5,C   4,C  12)     43.8751         0.010820   
    141. D(H  21,C   5,C   4,C   3)    178.7489         0.010820   
    142. D(C   6,C   5,C   4,C   3)    -61.9852         0.010820   
    143. D(C   6,C   5,C   4,C  12)    163.1410         0.010820   
    144. D(C   6,C   5,C   4,H  20)     50.3272         0.010820   
    145. D(H  23,C   6,C   5,C   4)    -70.2890         0.011284   
    146. D(C   7,C   6,C   5,H  21)    171.2312         0.011284   
    147. D(C   7,C   6,C   5,H  22)    -70.4498         0.011284   
    148. D(C   7,C   6,C   5,C   4)     50.7658         0.011284   
    149. D(H  23,C   6,C   5,H  21)     50.1764         0.011284   
    150. D(H  23,C   6,C   5,H  22)    168.4954         0.011284   
    151. D(C  11,C   7,C   6,H  23)    -79.7384         0.011568   
    152. D(C  11,C   7,C   6,C   5)    158.6583         0.011568   
    153. D(C   8,C   7,C   6,H  24)   -145.6852         0.011568   
    154. D(C   8,C   7,C   6,H  23)     96.7003         0.011568   
    155. D(C   8,C   7,C   6,C   5)    -24.9030         0.011568   
    156. D(C   9,C   8,C   7,C  11)    -12.6269         0.032648   
    157. D(C   9,C   8,C   7,C   6)    171.0951         0.032648   
    158. D(C   3,C   8,C   7,C  11)   -174.2329         0.032648   
    159. D(C   3,C   8,C   7,C   6)      9.4890         0.032648   
    160. D(C   9,C   8,C   3,C   4)    176.8999         0.010891   
    161. D(C   9,C   8,C   3,C   2)    -53.9053         0.010891   
    162. D(C   7,C   8,C   3,H  19)   -136.6921         0.010891   
    163. D(C   7,C   8,C   3,C   4)    -19.8925         0.010891   
    164. D(C   7,C   8,C   3,C   2)    109.3023         0.010891   
    165. D(H  26,C   9,C   8,C   3)   -172.0100         0.012032   
    166. D(H  25,C   9,C   8,C   7)    143.5408         0.012032   
    167. D(H  25,C   9,C   8,C   3)    -53.1731         0.012032   
    168. D(C  10,C   9,C   8,C   7)    -97.9429         0.012032   
    169. D(C  10,C   9,C   8,C   3)     65.3433         0.012032   
    170. D(H  27,C  10,C   9,H  26)    -48.9250         0.010974   
    171. D(H  27,C  10,C   9,H  25)   -165.5254         0.010974   
    172. D(H  27,C  10,C   9,C   8)     75.9900         0.010974   
    173. D(C   1,C  10,C   9,H  26)   -169.5828         0.010974   
    174. D(C   1,C  10,C   9,H  25)     73.8168         0.010974   
    175. D(C   1,C  10,C   9,C   8)    -44.6679         0.010974   
    176. D(H  28,C  10,C   1,C   0)    -44.5621         0.011000   
    177. D(H  27,C  10,C   1,C   2)   -102.4160         0.011000   
    178. D(H  27,C  10,C   1,C   0)     72.9878         0.011000   
    179. D(C   9,C  10,C   1,C   2)     18.6520         0.011000   
    180. D(C   9,C  10,C   1,C   0)   -165.9442         0.011000   
    181. D(H  29,C  11,C   7,C   6)     -0.4181         0.011937   
    182. D(H  31,C  11,C   7,C   6)    118.7551         0.011937   
    183. D(H  30,C  11,C   7,C   8)     63.5664         0.011937   
    184. D(H  30,C  11,C   7,C   6)   -119.9914         0.011937   
    185. D(H  29,C  11,C   7,C   8)   -176.8603         0.011937   
    186. D(C  14,C  12,C   4,H  20)    154.6711         0.008619   
    187. D(C  14,C  12,C   4,C   5)     40.5764         0.008619   
    188. D(C  14,C  12,C   4,C   3)    -90.3242         0.008619   
    189. D(C  13,C  12,C   4,H  20)    -75.0063         0.008619   
    190. D(C  13,C  12,C   4,C   5)    170.8990         0.008619   
    191. D(C  13,C  12,C   4,C   3)     39.9983         0.008619   
    192. D(H  34,C  13,C  12,H  32)    -65.8197         0.010651   
    193. D(H  34,C  13,C  12,C  14)   -178.6591         0.010651   
    194. D(H  34,C  13,C  12,C   4)     49.0640         0.010651   
    195. D(H  33,C  13,C  12,H  32)    172.7921         0.010651   
    196. D(H  33,C  13,C  12,C  14)     59.9527         0.010651   
    197. D(H  33,C  13,C  12,C   4)    -72.3242         0.010651   
    198. D(H  37,C  14,C  12,H  32)    169.3874         0.010205   
    199. D(H  37,C  14,C  12,C  13)    -77.4793         0.010205   
    200. D(H  37,C  14,C  12,C   4)     53.5481         0.010205   
    201. D(H  36,C  14,C  12,H  32)    -69.1648         0.010205   
    202. D(H  36,C  14,C  12,C  13)     43.9684         0.010205   
    203. D(H  36,C  14,C  12,C   4)    174.9959         0.010205   
    -----------------------------------------------------------------

Number of atoms                         .... 39
Number of degrees of freedom            .... 203


         *************************************************************
         *                GEOMETRY OPTIMIZATION CYCLE   1            *
         *************************************************************
---------------------------------
CARTESIAN COORDINATES (ANGSTROEM)
---------------------------------
  C     -1.214125    3.244849   -1.183210
  C     -1.148403    2.020834   -0.311018
  C      0.024303    1.346533   -0.211558
  C      0.212552    0.154229    0.716105
  C      1.284693   -0.890293    0.272960
  C      0.706867   -1.816784   -0.804876
  C     -0.479427   -2.594495   -0.236322
  C     -1.497696   -1.700302    0.441284
  C     -1.149192   -0.485079    0.958826
  C     -2.174431    0.503237    1.459580
  C     -2.428760    1.525687    0.347098
  C     -2.897062   -2.249005    0.592050
  C      2.726926   -0.377977   -0.068218
  C      3.219210    0.717737    0.889954
  C      2.963909    0.008562   -1.542906
  H     -2.244989    3.656622   -1.215695
  H     -0.534140    4.026755   -0.784000
  H     -0.907093    2.987250   -2.219088
  H      0.889834    1.800501   -0.667159
  H      0.550204    0.570041    1.690624
  H      1.437883   -1.530648    1.174217
  H      1.476149   -2.547218   -1.138078
  H      0.377202   -1.222894   -1.685785
  H     -0.115041   -3.339976    0.503444
  H     -0.959247   -3.151687   -1.069935
  H     -1.768288    1.028298    2.351716
  H     -3.129660    0.037748    1.775615
  H     -3.067771    1.061144   -0.434796
  H     -2.985072    2.386851    0.775975
  H     -2.980200   -3.268325    0.159274
  H     -3.621282   -1.593847    0.063723
  H     -3.164430   -2.318500    1.667528
  H      3.405456   -1.244107    0.108200
  H      2.698719    1.679941    0.715611
  H      3.059467    0.405107    1.943809
  H      4.308217    0.885371    0.747408
  H      3.979290    0.441671   -1.667669
  H      2.228698    0.735660   -1.926585
  H      2.916730   -0.893490   -2.188106

----------------------------
CARTESIAN COORDINATES (A.U.)
----------------------------
  NO LB      ZA    FRAG     MASS         X           Y           Z
   0 C     4.0000*   0    12.011   -2.294364    6.131876   -2.235943
   1 C     4.0000*   0    12.011   -2.170167    3.818823   -0.587739
   2 C     4.0000*   0    12.011    0.045926    2.544579   -0.399787
   3 C     4.0000*   0    12.011    0.401665    0.291451    1.353242
   4 C     4.0000*   0    12.011    2.427718   -1.682410    0.515820
   5 C     4.0000*   0    12.011    1.335785   -3.433224   -1.520995
   6 C     4.0000*   0    12.011   -0.905986   -4.902885   -0.446584
   7 C     4.0000*   0    12.011   -2.830235   -3.213105    0.833906
   8 C     4.0000*   0    12.011   -2.171658   -0.916666    1.811919
   9 C     4.0000*   0    12.011   -4.109079    0.950980    2.758206
  10 C     4.0000*   0    12.011   -4.589691    2.883131    0.655920
  11 C     4.0000*   0    12.011   -5.474654   -4.250004    1.118812
  12 C     4.0000*   0    12.011    5.153143   -0.714273   -0.128913
  13 C     4.0000*   0    12.011    6.083425    1.356326    1.681769
  14 C     4.0000*   0    12.011    5.600976    0.016180   -2.915670
  15 H     1.0000    0     1.008   -4.242414    6.910014   -2.297331
  16 H     1.0000    0     1.008   -1.009378    7.609464   -1.481545
  17 H     1.0000    0     1.008   -1.714157    5.645084   -4.193469
  18 H     1.0000    0     1.008    1.681543    3.402454   -1.260748
  19 H     1.0000    0     1.008    1.039735    1.077221    3.194816
  20 H     1.0000    0     1.008    2.717205   -2.892506    2.218949
  21 H     1.0000    0     1.008    2.789517   -4.813544   -2.150656
  22 H     1.0000    0     1.008    0.712808   -2.310935   -3.185672
  23 H     1.0000    0     1.008   -0.217396   -6.311640    0.951371
  24 H     1.0000    0     1.008   -1.812714   -5.955825   -2.021884
  25 H     1.0000    0     1.008   -3.341580    1.943202    4.444099
  26 H     1.0000    0     1.008   -5.914200    0.071333    3.355426
  27 H     1.0000    0     1.008   -5.797247    2.005272   -0.821645
  28 H     1.0000    0     1.008   -5.640969    4.510495    1.466380
  29 H     1.0000    0     1.008   -5.631762   -6.176239    0.300984
  30 H     1.0000    0     1.008   -6.843231   -3.011934    0.120419
  31 H     1.0000    0     1.008   -5.979906   -4.381330    3.151171
  32 H     1.0000    0     1.008    6.435379   -2.351022    0.204468
  33 H     1.0000    0     1.008    5.099840    3.174628    1.352309
  34 H     1.0000    0     1.008    5.781555    0.765541    3.673267
  35 H     1.0000    0     1.008    8.141350    1.673109    1.412396
  36 H     1.0000    0     1.008    7.519768    0.834637   -3.151438
  37 H     1.0000    0     1.008    4.211629    1.390196   -3.640718
  38 H     1.0000    0     1.008    5.511821   -1.688451   -4.134921
* core charge reduced due to ECP

--------------------------------
INTERNAL COORDINATES (ANGSTROEM)
--------------------------------
 C      0   0   0     0.000000000000     0.00000000     0.00000000
 C      1   0   0     1.504410511254     0.00000000     0.00000000
 C      2   1   0     1.356397247357   118.99625551     0.00000000
 C      3   2   1     1.522361703402   122.74752435   175.82088811
 C      4   3   2     1.561054138520   115.84837429   152.23509005
 C      5   4   3     1.534274715380   110.17064016   280.36886634
 C      6   5   4     1.528195506103   109.77342155   298.01476111
 C      7   6   5     1.515124671057   112.81455187    50.76579393
 C      8   7   6     1.366042349091   121.53359600   335.09702262
 C      9   8   7     1.509515846718   122.33345988   171.09505932
 C      2   1   3     1.522366995344   118.58837738   184.44344882
 C      8   7   6     1.510639126635   116.92551961   158.65830833
 C      5   4   3     1.568089964839   118.34879868    52.53625828
 C     13   5   4     1.536563141571   113.07695788    39.99834883
 C     13   5   4     1.542814972106   115.53732276   269.67575648
 H      1   2   3     1.110537196698   111.05045288   176.66893839
 H      1   2   3     1.110461713505   109.73784936   296.66409806
 H      1   2   3     1.110706588037   109.87230776    56.77719097
 H      3   2   1     1.078333495810   116.98064336     7.74857600
 H      4   3   2     1.112023279347   106.18269782   270.70018490
 H      5   4   3     1.116147786888   104.41390482   167.15605943
 H      6   5   4     1.111913754157   110.28212542   178.74890666
 H      6   5   4     1.112378087975   110.21475582    58.89011460
 H      7   6   5     1.111653189224   109.53642211   289.71102668
 H      7   6   5     1.111575814343   108.12981968   172.57854058
 H     10   9   8     1.112001723320   109.10037610   143.54075669
 H     10   9   8     1.108612002816   113.88323735    24.70379240
 H     11   2   1     1.111527545410   108.38129941    72.98781520
 H     11   2   1     1.111315417588   109.62153526   315.43787970
 H     12   8   7     1.110504504998   111.33727111   359.58185349
 H     12   8   7     1.110340502861   110.02288142   240.00858885
 H     12   8   7     1.110390981111   110.02612703   118.75509446
 H     13   5   4     1.114319275847   105.76273919   154.48238613
 H     14  13   5     1.107764821768   111.75999769   287.67578885
 H     14  13   5     1.110795077399   110.17228351    49.06400420
 H     14  13   5     1.111016096247   109.97562932   167.71294373
 H     15  13   5     1.110922043715   110.20730890   174.99586413
 H     15  13   5     1.102912639861   113.28422602    53.54810136
 H     15  13   5     1.110048065962   110.20900231   292.72019849

---------------------------
INTERNAL COORDINATES (A.U.)
---------------------------
 C      0   0   0     0.000000000000     0.00000000     0.00000000
 C      1   0   0     2.842923859263     0.00000000     0.00000000
 C      2   1   0     2.563219326309   118.99625551     0.00000000
 C      3   2   1     2.876846696200   122.74752435   175.82088811
 C      4   3   2     2.949964802027   115.84837429   152.23509005
 C      5   4   3     2.899359026267   110.17064016   280.36886634
 C      6   5   4     2.887870985624   109.77342155   298.01476111
 C      7   6   5     2.863170687046   112.81455187    50.76579393
 C      8   7   6     2.581445927120   121.53359600   335.09702262
 C      9   8   7     2.852571545111   122.33345988   171.09505932
 C      2   1   3     2.876856696522   118.58837738   184.44344882
 C      8   7   6     2.854694236526   116.92551961   158.65830833
 C      5   4   3     2.963260586896   118.34879868    52.53625828
 C     13   5   4     2.903683525048   113.07695788    39.99834883
 C     13   5   4     2.915497772593   115.53732276   269.67575648
 H      1   2   3     2.098611163292   111.05045288   176.66893839
 H      1   2   3     2.098468520730   109.73784936   296.66409806
 H      1   2   3     2.098931266532   109.87230776    56.77719097
 H      3   2   1     2.037754988115   116.98064336     7.74857600
 H      4   3   2     2.101419452510   106.18269782   270.70018490
 H      5   4   3     2.109213642200   104.41390482   167.15605943
 H      6   5   4     2.101212479897   110.28212542   178.74890666
 H      6   5   4     2.102089943647   110.21475582    58.89011460
 H      7   6   5     2.100720083534   109.53642211   289.71102668
 H      7   6   5     2.100573866199   108.12981968   172.57854058
 H     10   9   8     2.101378717523   109.10037610   143.54075669
 H     10   9   8     2.094973074100   113.88323735    24.70379240
 H     11   2   1     2.100482651135   108.38129941    72.98781520
 H     11   2   1     2.100081787646   109.62153526   315.43787970
 H     12   8   7     2.098549384931   111.33727111   359.58185349
 H     12   8   7     2.098239465807   110.02288142   240.00858885
 H     12   8   7     2.098334855876   110.02612703   118.75509446
 H     13   5   4     2.105758257100   105.76273919   154.48238613
 H     14  13   5     2.093372133933   111.75999769   287.67578885
 H     14  13   5     2.099098487192   110.17228351    49.06400420
 H     14  13   5     2.099516152286   109.97562932   167.71294373
 H     15  13   5     2.099338418757   110.20730890   174.99586413
 H     15  13   5     2.084202838978   113.28422602    53.54810136
 H     15  13   5     2.097686840156   110.20900231   292.72019849

---------------------
BASIS SET INFORMATION
---------------------
There are 2 groups of distinct atoms

 Group   1 Type C   : 6s6p2d contracted to 2s2p1d pattern {42/42/2}
 Group   2 Type H   : 8s2p contracted to 2s1p pattern {53/2}

Atom   0C    basis set group =>   1
Atom   1C    basis set group =>   1
Atom   2C    basis set group =>   1
Atom   3C    basis set group =>   1
Atom   4C    basis set group =>   1
Atom   5C    basis set group =>   1
Atom   6C    basis set group =>   1
Atom   7C    basis set group =>   1
Atom   8C    basis set group =>   1
Atom   9C    basis set group =>   1
Atom  10C    basis set group =>   1
Atom  11C    basis set group =>   1
Atom  12C    basis set group =>   1
Atom  13C    basis set group =>   1
Atom  14C    basis set group =>   1
Atom  15H    basis set group =>   2
Atom  16H    basis set group =>   2
Atom  17H    basis set group =>   2
Atom  18H    basis set group =>   2
Atom  19H    basis set group =>   2
Atom  20H    basis set group =>   2
Atom  21H    basis set group =>   2
Atom  22H    basis set group =>   2
Atom  23H    basis set group =>   2
Atom  24H    basis set group =>   2
Atom  25H    basis set group =>   2
Atom  26H    basis set group =>   2
Atom  27H    basis set group =>   2
Atom  28H    basis set group =>   2
Atom  29H    basis set group =>   2
Atom  30H    basis set group =>   2
Atom  31H    basis set group =>   2
Atom  32H    basis set group =>   2
Atom  33H    basis set group =>   2
Atom  34H    basis set group =>   2
Atom  35H    basis set group =>   2
Atom  36H    basis set group =>   2
Atom  37H    basis set group =>   2
Atom  38H    basis set group =>   2
---------------------------------
AUXILIARY/J BASIS SET INFORMATION
---------------------------------
There are 2 groups of distinct atoms

 Group   1 Type C   : 12s5p4d2f1g contracted to 6s4p3d1f1g pattern {711111/2111/211/2/1}
 Group   2 Type H   : 5s2p1d contracted to 3s1p1d pattern {311/2/1}

Atom   0C    basis set group =>   1
Atom   1C    basis set group =>   1
Atom   2C    basis set group =>   1
Atom   3C    basis set group =>   1
Atom   4C    basis set group =>   1
Atom   5C    basis set group =>   1
Atom   6C    basis set group =>   1
Atom   7C    basis set group =>   1
Atom   8C    basis set group =>   1
Atom   9C    basis set group =>   1
Atom  10C    basis set group =>   1
Atom  11C    basis set group =>   1
Atom  12C    basis set group =>   1
Atom  13C    basis set group =>   1
Atom  14C    basis set group =>   1
Atom  15H    basis set group =>   2
Atom  16H    basis set group =>   2
Atom  17H    basis set group =>   2
Atom  18H    basis set group =>   2
Atom  19H    basis set group =>   2
Atom  20H    basis set group =>   2
Atom  21H    basis set group =>   2
Atom  22H    basis set group =>   2
Atom  23H    basis set group =>   2
Atom  24H    basis set group =>   2
Atom  25H    basis set group =>   2
Atom  26H    basis set group =>   2
Atom  27H    basis set group =>   2
Atom  28H    basis set group =>   2
Atom  29H    basis set group =>   2
Atom  30H    basis set group =>   2
Atom  31H    basis set group =>   2
Atom  32H    basis set group =>   2
Atom  33H    basis set group =>   2
Atom  34H    basis set group =>   2
Atom  35H    basis set group =>   2
Atom  36H    basis set group =>   2
Atom  37H    basis set group =>   2
Atom  38H    basis set group =>   2
-------------------------
ECP PARAMETER INFORMATION
-------------------------

 Group 1, Type C  ECP vDZP-ECP (replacing 2 core electrons, lmax=3)

Atom   0C    ECP group =>   1
Atom   1C    ECP group =>   1
Atom   2C    ECP group =>   1
Atom   3C    ECP group =>   1
Atom   4C    ECP group =>   1
Atom   5C    ECP group =>   1
Atom   6C    ECP group =>   1
Atom   7C    ECP group =>   1
Atom   8C    ECP group =>   1
Atom   9C    ECP group =>   1
Atom  10C    ECP group =>   1
Atom  11C    ECP group =>   1
Atom  12C    ECP group =>   1
Atom  13C    ECP group =>   1
Atom  14C    ECP group =>   1



           ************************************************************
           *        Program running with 40 parallel MPI-processes    *
           *              working on a common directory               *
           ************************************************************
------------------------------------------------------------------------------
                             ORCA STARTUP CALCULATIONS
                           -- RI-GTO INTEGRALS CHOSEN --
------------------------------------------------------------------------------
------------------------------------------------------------------------------
                   ___                                                        
                  /   \      - P O W E R E D   B Y -                         
                 /     \                                                     
                 |  |  |   _    _      __       _____    __    __             
                 |  |  |  | |  | |    /  \     |  _  \  |  |  /  |          
                  \  \/   | |  | |   /    \    | | | |  |  | /  /          
                 / \  \   | |__| |  /  /\  \   | |_| |  |  |/  /          
                |  |  |   |  __  | /  /__\  \  |    /   |      \           
                |  |  |   | |  | | |   __   |  |    \   |  |\   \          
                \     /   | |  | | |  |  |  |  | |\  \  |  | \   \       
                 \___/    |_|  |_| |__|  |__|  |_| \__\ |__|  \__/        
                                                                              
                      - O R C A' S   B I G   F R I E N D -                    
                                      &                                       
                       - I N T E G R A L  F E E D E R -                       
                                                                              
 v1 FN, 2020, v2 2021, v3 2022-2024                                           
------------------------------------------------------------------------------


----------------------
SHARK INTEGRAL PACKAGE
----------------------

Number of atoms                             ...     39
Number of basis functions                   ...    315
Number of shells                            ...    147
Maximum angular momentum                    ...      2
Integral batch strategy                     ... SHARK/LIBINT Hybrid
RI-J (if used) integral strategy            ... SPLIT-RIJ (Revised 2003 algorithm where possible)
Printlevel                                  ...      1
Contraction scheme used                     ... SEGMENTED contraction
Prescreening option                         ... SCHWARTZ
   Thresh                                   ... 2.500e-11
   Tcut                                     ... 2.500e-12
   Tpresel                                  ... 2.500e-12 
Coulomb Range Separation                    ... NOT USED
Exchange Range Separation                   ... Long Range
   Mu parameter                             ... 3.000e-01
   Scaling (regular/separated)              ... 1.670e-01 8.330e-01
Multipole approximations                    ... NOT USED
Finite Nucleus Model                        ... NOT USED
CABS basis                                  ... NOT available
Auxiliary Coulomb fitting basis             ... AVAILABLE
   # of basis functions in Aux-J            ...    999
   # of shells in Aux-J                     ...    345
   Maximum angular momentum in Aux-J        ...      4
Auxiliary J/K fitting basis                 ... NOT available
Auxiliary Correlation fitting basis         ... NOT available
Auxiliary 'external' fitting basis          ... NOT available

Checking pre-screening integrals            ... done (  0.0 sec) Dimension = 147
Check shell pair data                       ... done (  0.0 sec)
Shell pair information
Shell pair cut-off parameter TPreSel        ...   2.5e-12
Total number of shell pairs                 ...     10878
Shell pairs after pre-screening             ...     10840
Total number of primitive shell pairs       ...    102036
Primitive shell pairs kept                  ...     77492
          la=0 lb=0:   3075 shell pairs
          la=1 lb=0:   4196 shell pairs
          la=1 lb=1:   1469 shell pairs
          la=2 lb=0:   1170 shell pairs
          la=2 lb=1:    810 shell pairs
          la=2 lb=2:    120 shell pairs

Calculating one electron integrals          ... done (  0.0 sec)
Calculating ECP integrals                   ... done (  0.2 sec)
Calculating RI/J V-Matrix + Cholesky decomp.... done (  0.0 sec)
Calculating Nuclear repulsion               ... done (  0.0 sec) ENN=    567.501629912853 Eh

Diagonalization of the overlap matrix:
Smallest eigenvalue                        ... 7.548e-04
Time for diagonalization                   ...    0.014 sec
Threshold for overlap eigenvalues          ... 1.000e-07
Number of eigenvalues below threshold      ... 0
Time for construction of square roots      ...    0.009 sec
Total time needed                          ...    0.040 sec

-------------------
DFT GRID GENERATION
-------------------

General Integration Accuracy     IntAcc      ... 4.388
Radial Grid Type                 RadialGrid  ... OptM3 with GC (2021)
Angular Grid (max. ang.)         AngularGrid ... 4 (Lebedev-302)
Angular grid pruning method      GridPruning ... 4 (adaptive)
Weight generation scheme         WeightScheme... mBecke (2022)
Basis function cutoff            BFCut       ... 1.0000e-11
Integration weight cutoff        WCut        ... 1.0000e-14
Partially contracted basis set               ... off
Rotationally invariant grid construction     ... off
Angular grids for H and He will be reduced by one unit

Total number of grid points                  ...   164998
Total number of batches                      ...     2600
Average number of points per batch           ...       63
Average number of grid points per atom       ...     4231

--------------------
COSX GRID GENERATION
--------------------

GRIDX 1
-------
General Integration Accuracy     IntAcc      ... 3.816
Radial Grid Type                 RadialGrid  ... OptM3 with GC (2021)
Angular Grid (max. ang.)         AngularGrid ... 1 (Lebedev-50)
Angular grid pruning method      GridPruning ... 4 (adaptive)
Weight generation scheme         WeightScheme... mBecke (2022)
Basis function cutoff            BFCut       ... 1.0000e-11
Integration weight cutoff        WCut        ... 1.0000e-14
Partially contracted basis set               ... on
Rotationally invariant grid construction     ... off
Angular grids for H and He will be reduced by one unit

Total number of grid points                  ...    21062
Total number of batches                      ...      190
Average number of points per batch           ...      110
Average number of grid points per atom       ...      540
UseSFitting                                  ... on

GRIDX 2
-------
General Integration Accuracy     IntAcc      ... 4.020
Radial Grid Type                 RadialGrid  ... OptM3 with GC (2021)
Angular Grid (max. ang.)         AngularGrid ... 2 (Lebedev-110)
Angular grid pruning method      GridPruning ... 4 (adaptive)
Weight generation scheme         WeightScheme... mBecke (2022)
Basis function cutoff            BFCut       ... 1.0000e-11
Integration weight cutoff        WCut        ... 1.0000e-14
Partially contracted basis set               ... on
Rotationally invariant grid construction     ... off
Angular grids for H and He will be reduced by one unit

Total number of grid points                  ...    43601
Total number of batches                      ...      363
Average number of points per batch           ...      120
Average number of grid points per atom       ...     1118
UseSFitting                                  ... on

GRIDX 3
-------
General Integration Accuracy     IntAcc      ... 4.338
Radial Grid Type                 RadialGrid  ... OptM3 with GC (2021)
Angular Grid (max. ang.)         AngularGrid ... 3 (Lebedev-194)
Angular grid pruning method      GridPruning ... 4 (adaptive)
Weight generation scheme         WeightScheme... mBecke (2022)
Basis function cutoff            BFCut       ... 1.0000e-11
Integration weight cutoff        WCut        ... 1.0000e-14
Partially contracted basis set               ... on
Rotationally invariant grid construction     ... off
Angular grids for H and He will be reduced by one unit

Total number of grid points                  ...    94478
Total number of batches                      ...      758
Average number of points per batch           ...      124
Average number of grid points per atom       ...     2423
UseSFitting                                  ... on
Initializing property integral containers    ... done (  0.0 sec)

SHARK setup successfully completed in   5.5 seconds

Maximum memory used throughout the entire STARTUP-calculation: 52.2 MB


           ************************************************************
           *        Program running with 40 parallel MPI-processes    *
           *              working on a common directory               *
           ************************************************************
-------------------------------------------------------------------------------
                                 ORCA GUESS
                   Start orbitals & Density for SCF / CASSCF
-------------------------------------------------------------------------------

------------
SCF SETTINGS
------------
Hamiltonian:
 Density Functional     Method          .... DFT(GTOs)
 Exchange Functional    Exchange        .... WB97X-V
 Correlation Functional Correlation     .... WB97X-V
 Gradients option       PostSCFGGA      .... off
 Hybrid DFT is turned on
   Fraction HF Exchange ScalHFX         ....  0.167000
   Scaling of DF-GGA-X  ScalDFX         ....  0.000000
   Scaling of DF-GGA-C  ScalDFC         ....  1.000000
   Scaling of DF-LDA-C  ScalLDAC        ....  1.000000
   Perturbative correction              ....  0.000000
 Long-range corrected/Screened/Range-Separated Hybrid DFT is turned on
   Amount of maximum screened exact exchange              ....  0.833000
   Range separation parameter mu (erf(mu*r12)/r12)        ....  0.300000
   NL short-range parameter             ....  6.000000
   NL long-range parameter              ....  0.010000
 RI-approximation to the Coulomb term is turned on
   Number of AuxJ basis functions       .... 999
   RIJ-COSX (HFX calculated with COS-X)).... on


General Settings:
 Integral files         IntName         .... ./output/delta_cadinene/delta_cadinene
 Hartree-Fock type      HFTyp           .... RHF
 Total Charge           Charge          ....    0
 Multiplicity           Mult            ....    1
 Number of Electrons    NEL             ....   84
 Basis Dimension        Dim             ....  315
 Nuclear Repulsion      ENuc            ....    567.5016299129 Eh

Convergence Acceleration:
 AO-DIIS                CNVDIIS         .... on
   Start iteration      DIISMaxIt       ....    12
   Startup error        DIISStart       ....  0.200000
   # of expansion vecs  DIISMaxEq       ....     5
   Bias factor          DIISBfac        ....   1.050
   Max. coefficient     DIISMaxC        ....  10.000
 MO-DIIS                CNVKDIIS        .... off
 Trust-Rad. Augm. Hess. CNVTRAH         .... auto
   Auto Start mean grad. ratio tolernc. ....  1.125000
   Auto Start start iteration           ....    50
   Auto Start num. interpolation iter.  ....    10
   Max. Number of Micro iterations      ....    24
   Max. Number of Macro iterations      .... Maxiter - #DIIS iter
   Number of Davidson start vectors     ....     2
   Converg. threshold    (grad. norm)   ....   1.000e-05
   Grad. Scal. Fac. for Micro threshold ....   0.100
   Minimum threshold for Micro iter.    ....   1.000e-02
   NR start threshold (gradient norm)   ....   1.000e-04
   Initial trust radius                 ....   0.400
   Minimum AH scaling param. (alpha)    ....   1.000
   Maximum AH scaling param. (alpha)    .... 1000.000
   Quad. conv. algorithm                .... NR
   White noise on init. David. guess    .... on
   Maximum white noise                  ....   0.010
   Pseudo random numbers                .... off
   Inactive MOs                         .... canonical
   Orbital update algorithm             .... Taylor
   Preconditioner                       .... Diag
   Full preconditioner red. dimension   ....   250
 SOSCF                  CNVSOSCF        .... on
   Start iteration      SOSCFMaxIt      ....   150
   Startup grad/error   SOSCFStart      ....  0.003300
   Hessian update       SOSCFHessUp     .... L-BFGS
 Level Shifting         CNVShift        .... on
   Level shift para.    LevelShift      ....    0.2500
   Turn off err/grad.   ShiftErr        ....    0.0010
 Zerner damping         CNVZerner       .... off
 Static damping         CNVDamp         .... on
   Fraction old density DampFac         ....    0.7000
   Max. Damping (<1)    DampMax         ....    0.9800
   Min. Damping (>=0)   DampMin         ....    0.0000
   Turn off err/grad.   DampErr         ....    0.1000

SCF Procedure:
 Maximum # iterations   MaxIter         ....   125
 SCF integral mode      SCFMode         .... Direct
   Integral package                     .... SHARK and LIBINT hybrid scheme
 Reset frequency        DirectResetFreq ....    20
 Integral Threshold     Thresh          ....  2.500e-11 Eh
 Primitive CutOff       TCut            ....  2.500e-12 Eh

Convergence Tolerance:
 Convergence Check Mode ConvCheckMode   .... Total+1el-Energy
 Convergence forced     ConvForced      .... 0
 Energy Change          TolE            ....  1.000e-08 Eh
 1-El. energy change                    ....  1.000e-05 Eh
 Orbital Gradient       TolG            ....  1.000e-05
 Orbital Rotation angle TolX            ....  1.000e-05
 DIIS Error             TolErr          ....  5.000e-07

------------------------------
INITIAL GUESS: MODEL POTENTIAL
------------------------------
Loading Hartree-Fock densities                     ... done
Atomic calculation to generate a density for atom 0 (C  with ECP)
  Multiplicity assumed   :    1
  Atomic configuration   : 1s2 2s2 2p2 
  Number of open shells  : 1
  Command: /home/aspe232/Project/Software/ORCA/6_0_1/build/orca ./output/delta_cadinene/delta_cadinene_atom6.inp "" > ./output/delta_cadinene/delta_cadinene_atom6.out
Returned from the atomic calculation with res=0
Calculating cut-offs                               ... done
Initializing the effective Hamiltonian             ... done
Setting up the integral package (SHARK)            ... done
Starting the Coulomb interaction                   ... done (   0.1 sec)
Making the grid                                    ... done (   1.3 sec)
Mapping shells                                     ... done
Starting the XC term evaluation                    ... done (   0.1 sec)
  promolecular density results
     # of electrons  =    113.986098814
     EX              =    -55.375751250
     EC              =     -4.559991215
     EX+EC           =    -59.935742464
Transforming the Hamiltonian                       ... done (   0.0 sec)
Diagonalizing the Hamiltonian                      ... done (   0.0 sec)
Back transforming the eigenvectors                 ... done (   0.0 sec)
Now organizing SCF variables                       ... done
                      ------------------
                      INITIAL GUESS DONE (   2.2 sec)
                      ------------------
             **** ENERGY FILE WAS UPDATED (./output/delta_cadinene/delta_cadinene.en.tmp) ****
Finished Guess after   3.2 sec
Maximum memory used throughout the entire GUESS-calculation: 34.8 MB


           ************************************************************
           *        Program running with 40 parallel MPI-processes    *
           *              working on a common directory               *
           ************************************************************

-------------------------------------------------------------------------------------------
                                      ORCA LEAN-SCF
                              memory conserving SCF solver
-------------------------------------------------------------------------------------------

----------------------------------------D-I-I-S--------------------------------------------
Iteration    Energy (Eh)           Delta-E    RMSDP     MaxDP     DIISErr   Damp  Time(sec)
-------------------------------------------------------------------------------------------
               ***  Starting incremental Fock matrix formation  ***
    1    -99.1996374603975255     0.00e+00  3.53e-03  8.09e-02  1.86e-01  0.700   8.6
    2    -99.4704288138580068    -2.71e-01  2.58e-03  5.86e-02  1.13e-01  0.700   6.2
                               ***Turning on AO-DIIS***
    3    -99.6116790834244057    -1.41e-01  1.35e-03  3.00e-02  5.91e-02  0.700   6.1
    4    -99.6948375038441554    -8.32e-02  2.91e-03  6.51e-02  3.69e-02  0.000   5.8
    5    -99.8694491582999717    -1.75e-01  2.16e-04  4.04e-03  4.71e-03  0.000   5.9
                              *** Initializing SOSCF ***
---------------------------------------S-O-S-C-F--------------------------------------
Iteration    Energy (Eh)           Delta-E    RMSDP     MaxDP     MaxGrad    Time(sec)
--------------------------------------------------------------------------------------
    6    -99.8699281360882196    -4.79e-04  1.07e-04  2.04e-03  1.24e-03     6.2
               *** Restarting incremental Fock matrix formation ***
    7    -99.8699619050074716    -3.38e-05  6.06e-05  1.53e-03  3.80e-04     8.1
    8    -99.8699757728826398    -1.39e-05  3.78e-05  8.36e-04  1.89e-04     7.5
    9    -99.8699805173417872    -4.74e-06  1.10e-05  1.86e-04  6.85e-05     7.4
   10    -99.8699808729172673    -3.56e-07  2.90e-06  6.50e-05  9.68e-06     7.2
   11    -99.8699808907555280    -1.78e-08  1.11e-06  1.88e-05  6.27e-06     7.0
   12    -99.8699809051890952    -1.44e-08  2.93e-07  7.33e-06  2.83e-06     6.0
   13    -99.8699809023470380     2.84e-09  1.28e-07  3.47e-06  9.37e-07     5.4
                 **** Energy Check signals convergence ****

               *****************************************************
               *                     SUCCESS                       *
               *           SCF CONVERGED AFTER  13 CYCLES          *
               *****************************************************

Recomputing exchange energy using gridx3       ... done (    9.482 sec)
Old exchange energy                            :    -15.882864801 Eh
New exchange energy                            :    -15.882912869 Eh
Exchange energy change after final integration :     -0.000048067 Eh
Total energy after final integration           :    -99.870028970 Eh
             **** ENERGY FILE WAS UPDATED (./output/delta_cadinene/delta_cadinene.en.tmp) ****

----------------
TOTAL SCF ENERGY
----------------

Total Energy       :        -99.87002896969152 Eh           -2717.60165 eV

Components:
Nuclear Repulsion  :        567.50162991285288 Eh           15442.50443 eV
Electronic Energy  :       -667.37161081519992 Eh          -18160.10477 eV
One Electron Energy:      -1274.06618700603326 Eh          -34669.10349 eV
Two Electron Energy:        606.69457619083335 Eh           16508.99872 eV

Virial components:
Potential Energy   :       -177.74425095478679 Eh           -4836.66696 eV
Kinetic Energy     :         77.87422198509528 Eh            2119.06531 eV
Virial Ratio       :          2.28245299181039

DFT components:
N(Alpha)           :       41.999872753409 electrons
N(Beta)            :       41.999872753409 electrons
N(Total)           :       83.999745506818 electrons
E(X)               :      -16.072350218256 Eh       
E(C)               :       -3.136859885479 Eh       
E(XC)              :      -19.209210103735 Eh       

---------------
SCF CONVERGENCE
---------------

  Last Energy change         ...   -2.8421e-09  Tolerance :   1.0000e-08
  Last MAX-Density change    ...    3.4703e-06  Tolerance :   1.0000e-07
  Last RMS-Density change    ...    1.2822e-07  Tolerance :   5.0000e-09
  Last DIIS Error            ...    1.2371e-03  Tolerance :   5.0000e-07
  Last Orbital Gradient      ...    9.3680e-07  Tolerance :   1.0000e-05
  Last Orbital Rotation      ...    2.6202e-06  Tolerance :   1.0000e-05


----------------
ORBITAL ENERGIES
----------------

  NO   OCC          E(Eh)            E(eV) 
   0   2.0000      -0.994507       -27.0619 
   1   2.0000      -0.951301       -25.8862 
   2   2.0000      -0.933576       -25.4039 
   3   2.0000      -0.893020       -24.3003 
   4   2.0000      -0.881570       -23.9887 
   5   2.0000      -0.861400       -23.4399 
   6   2.0000      -0.809977       -22.0406 
   7   2.0000      -0.803183       -21.8557 
   8   2.0000      -0.801039       -21.7974 
   9   2.0000      -0.749477       -20.3943 
  10   2.0000      -0.727392       -19.7933 
  11   2.0000      -0.714353       -19.4385 
  12   2.0000      -0.665142       -18.0994 
  13   2.0000      -0.645220       -17.5573 
  14   2.0000      -0.591564       -16.0973 
  15   2.0000      -0.580492       -15.7960 
  16   2.0000      -0.577328       -15.7099 
  17   2.0000      -0.569986       -15.5101 
  18   2.0000      -0.557797       -15.1784 
  19   2.0000      -0.543487       -14.7890 
  20   2.0000      -0.533900       -14.5282 
  21   2.0000      -0.532315       -14.4850 
  22   2.0000      -0.524014       -14.2591 
  23   2.0000      -0.518534       -14.1100 
  24   2.0000      -0.512830       -13.9548 
  25   2.0000      -0.501978       -13.6595 
  26   2.0000      -0.494024       -13.4431 
  27   2.0000      -0.489855       -13.3296 
  28   2.0000      -0.483538       -13.1577 
  29   2.0000      -0.471810       -12.8386 
  30   2.0000      -0.460633       -12.5345 
  31   2.0000      -0.458552       -12.4778 
  32   2.0000      -0.455261       -12.3883 
  33   2.0000      -0.449558       -12.2331 
  34   2.0000      -0.444125       -12.0853 
  35   2.0000      -0.431466       -11.7408 
  36   2.0000      -0.420282       -11.4365 
  37   2.0000      -0.405123       -11.0239 
  38   2.0000      -0.394693       -10.7401 
  39   2.0000      -0.378806       -10.3078 
  40   2.0000      -0.322432        -8.7738 
  41   2.0000      -0.309478        -8.4213 
  42   0.0000       0.075384         2.0513 
  43   0.0000       0.080097         2.1796 
  44   0.0000       0.090238         2.4555 
  45   0.0000       0.096482         2.6254 
  46   0.0000       0.097515         2.6535 
  47   0.0000       0.106878         2.9083 
  48   0.0000       0.115643         3.1468 
  49   0.0000       0.117196         3.1891 
  50   0.0000       0.121720         3.3122 
  51   0.0000       0.137164         3.7324 
  52   0.0000       0.138126         3.7586 
*Only the first 10 virtual orbitals were printed.

                    ********************************
                    * MULLIKEN POPULATION ANALYSIS *
                    ********************************

-----------------------
MULLIKEN ATOMIC CHARGES
-----------------------
   0 C :   -0.097669
   1 C :   -0.059038
   2 C :    0.060269
   3 C :   -0.111262
   4 C :   -0.082537
   5 C :   -0.039717
   6 C :   -0.060991
   7 C :   -0.037411
   8 C :   -0.069868
   9 C :   -0.050394
  10 C :   -0.063814
  11 C :   -0.098263
  12 C :   -0.100783
  13 C :   -0.069478
  14 C :   -0.062903
  15 H :    0.034234
  16 H :    0.056479
  17 H :    0.055895
  18 H :   -0.025050
  19 H :    0.054706
  20 H :    0.042534
  21 H :    0.038734
  22 H :    0.047731
  23 H :    0.048634
  24 H :    0.042485
  25 H :    0.040274
  26 H :    0.037694
  27 H :    0.049975
  28 H :    0.045415
  29 H :    0.033038
  30 H :    0.045249
  31 H :    0.057421
  32 H :    0.038686
  33 H :    0.032841
  34 H :    0.034232
  35 H :    0.036666
  36 H :    0.035352
  37 H :    0.026257
  38 H :    0.034379
Sum of atomic charges:   -0.0000000

--------------------------------
MULLIKEN REDUCED ORBITAL CHARGES
--------------------------------
  0 C s       :     0.956823  s :     0.956823
      pz      :     1.022215  p :     3.067064
      px      :     1.049149
      py      :     0.995700
      dz2     :     0.020737  d :     0.073782
      dxz     :     0.007200
      dyz     :     0.014532
      dx2y2   :     0.013070
      dxy     :     0.018244

  1 C s       :     1.097403  s :     1.097403
      pz      :     0.937406  p :     2.842914
      px      :     0.979294
      py      :     0.926215
      dz2     :     0.014314  d :     0.118721
      dxz     :     0.027371
      dyz     :     0.017046
      dx2y2   :     0.030807
      dxy     :     0.029184

  2 C s       :     0.995142  s :     0.995142
      pz      :     0.979897  p :     2.854595
      px      :     0.952660
      py      :     0.922037
      dz2     :     0.010091  d :     0.089995
      dxz     :     0.020716
      dyz     :     0.013005
      dx2y2   :     0.021666
      dxy     :     0.024516

  3 C s       :     1.013728  s :     1.013728
      pz      :     1.020203  p :     2.972126
      px      :     0.978723
      py      :     0.973200
      dz2     :     0.023063  d :     0.125409
      dxz     :     0.021031
      dyz     :     0.028192
      dx2y2   :     0.025448
      dxy     :     0.027675

  4 C s       :     1.029566  s :     1.029566
      pz      :     1.023597  p :     2.933033
      px      :     0.946553
      py      :     0.962883
      dz2     :     0.020983  d :     0.119939
      dxz     :     0.018999
      dyz     :     0.029927
      dx2y2   :     0.022449
      dxy     :     0.027581

  5 C s       :     0.991361  s :     0.991361
      pz      :     0.992914  p :     2.948751
      px      :     0.976226
      py      :     0.979611
      dz2     :     0.016983  d :     0.099605
      dxz     :     0.018849
      dyz     :     0.024723
      dx2y2   :     0.012330
      dxy     :     0.026720

  6 C s       :     0.989740  s :     0.989740
      pz      :     1.016756  p :     2.968620
      px      :     0.948245
      py      :     1.003618
      dz2     :     0.012763  d :     0.102632
      dxz     :     0.021884
      dyz     :     0.027696
      dx2y2   :     0.016491
      dxy     :     0.023797

  7 C s       :     1.084205  s :     1.084205
      pz      :     0.944351  p :     2.837020
      px      :     0.904847
      py      :     0.987822
      dz2     :     0.014303  d :     0.116187
      dxz     :     0.019004
      dyz     :     0.019608
      dx2y2   :     0.030213
      dxy     :     0.033059

  8 C s       :     1.057416  s :     1.057416
      pz      :     0.976889  p :     2.896492
      px      :     0.938799
      py      :     0.980804
      dz2     :     0.013439  d :     0.115961
      dxz     :     0.016880
      dyz     :     0.021788
      dx2y2   :     0.029915
      dxy     :     0.033938

  9 C s       :     0.981650  s :     0.981650
      pz      :     0.991371  p :     2.967692
      px      :     1.010811
      py      :     0.965510
      dz2     :     0.018487  d :     0.101052
      dxz     :     0.017798
      dyz     :     0.025511
      dx2y2   :     0.016146
      dxy     :     0.023110

 10 C s       :     0.999726  s :     0.999726
      pz      :     0.990915  p :     2.962741
      px      :     0.988195
      py      :     0.983631
      dz2     :     0.016038  d :     0.101346
      dxz     :     0.025996
      dyz     :     0.021559
      dx2y2   :     0.013843
      dxy     :     0.023910

 11 C s       :     0.955027  s :     0.955027
      pz      :     1.051891  p :     3.068728
      px      :     0.976514
      py      :     1.040324
      dz2     :     0.014636  d :     0.074508
      dxz     :     0.015797
      dyz     :     0.010124
      dx2y2   :     0.017908
      dxy     :     0.016042

 12 C s       :     1.048846  s :     1.048846
      pz      :     0.944200  p :     2.929041
      px      :     0.973482
      py      :     1.011358
      dz2     :     0.030973  d :     0.122897
      dxz     :     0.021586
      dyz     :     0.024050
      dx2y2   :     0.017335
      dxy     :     0.028953

 13 C s       :     0.959185  s :     0.959185
      pz      :     1.004066  p :     3.035819
      px      :     1.029978
      py      :     1.001776
      dz2     :     0.024877  d :     0.074475
      dxz     :     0.005203
      dyz     :     0.011482
      dx2y2   :     0.018813
      dxy     :     0.014099

 14 C s       :     0.955833  s :     0.955833
      pz      :     0.964451  p :     3.033595
      px      :     1.034126
      py      :     1.035018
      dz2     :     0.016338  d :     0.073474
      dxz     :     0.011023
      dyz     :     0.022223
      dx2y2   :     0.009697
      dxy     :     0.014193

 15 H s       :     0.921771  s :     0.921771
      pz      :     0.010319  p :     0.043995
      px      :     0.021515
      py      :     0.012161

 16 H s       :     0.899332  s :     0.899332
      pz      :     0.011806  p :     0.044189
      px      :     0.015102
      py      :     0.017281

 17 H s       :     0.899975  s :     0.899975
      pz      :     0.022212  p :     0.044131
      px      :     0.011154
      py      :     0.010765

 18 H s       :     0.972556  s :     0.972556
      pz      :     0.016751  p :     0.052494
      px      :     0.021025
      py      :     0.014718

 19 H s       :     0.903555  s :     0.903555
      pz      :     0.019716  p :     0.041739
      px      :     0.010284
      py      :     0.011739

 20 H s       :     0.918602  s :     0.918602
      pz      :     0.017613  p :     0.038863
      px      :     0.008154
      py      :     0.013097

 21 H s       :     0.919078  s :     0.919078
      pz      :     0.010588  p :     0.042188
      px      :     0.016132
      py      :     0.015468

 22 H s       :     0.911122  s :     0.911122
      pz      :     0.017245  p :     0.041147
      px      :     0.010353
      py      :     0.013549

 23 H s       :     0.908850  s :     0.908850
      pz      :     0.015988  p :     0.042517
      px      :     0.010998
      py      :     0.015530

 24 H s       :     0.914725  s :     0.914725
      pz      :     0.017327  p :     0.042790
      px      :     0.012285
      py      :     0.013178

 25 H s       :     0.917580  s :     0.917580
      pz      :     0.017879  p :     0.042147
      px      :     0.011087
      py      :     0.013181

 26 H s       :     0.917370  s :     0.917370
      pz      :     0.011135  p :     0.044936
      px      :     0.020287
      py      :     0.013514

 27 H s       :     0.907936  s :     0.907936
      pz      :     0.016484  p :     0.042090
      px      :     0.014030
      py      :     0.011576

 28 H s       :     0.911897  s :     0.911897
      pz      :     0.011783  p :     0.042688
      px      :     0.013164
      py      :     0.017741

 29 H s       :     0.922844  s :     0.922844
      pz      :     0.012401  p :     0.044117
      px      :     0.010129
      py      :     0.021588

 30 H s       :     0.910293  s :     0.910293
      pz      :     0.013250  p :     0.044457
      px      :     0.016487
      py      :     0.014720

 31 H s       :     0.898155  s :     0.898155
      pz      :     0.022765  p :     0.044424
      px      :     0.011312
      py      :     0.010348

 32 H s       :     0.921417  s :     0.921417
      pz      :     0.009695  p :     0.039897
      px      :     0.013581
      py      :     0.016621

 33 H s       :     0.922736  s :     0.922736
      pz      :     0.010212  p :     0.044424
      px      :     0.013461
      py      :     0.020750

 34 H s       :     0.922493  s :     0.922493
      pz      :     0.022176  p :     0.043275
      px      :     0.010216
      py      :     0.010883

 35 H s       :     0.920127  s :     0.920127
      pz      :     0.010075  p :     0.043207
      px      :     0.022632
      py      :     0.010500

 36 H s       :     0.921151  s :     0.921151
      pz      :     0.010222  p :     0.043497
      px      :     0.020976
      py      :     0.012299

 37 H s       :     0.928348  s :     0.928348
      pz      :     0.012219  p :     0.045395
      px      :     0.016695
      py      :     0.016481

 38 H s       :     0.921567  s :     0.921567
      pz      :     0.014734  p :     0.044053
      px      :     0.010500
      py      :     0.018819



                     *******************************
                     * LOEWDIN POPULATION ANALYSIS *
                     *******************************

----------------------
LOEWDIN ATOMIC CHARGES
----------------------
   0 C :   -0.119219
   1 C :   -0.040693
   2 C :   -0.041825
   3 C :   -0.068133
   4 C :   -0.056304
   5 C :   -0.081297
   6 C :   -0.089647
   7 C :   -0.039098
   8 C :   -0.031742
   9 C :   -0.081366
  10 C :   -0.080550
  11 C :   -0.120845
  12 C :   -0.079263
  13 C :   -0.118716
  14 C :   -0.117206
  15 H :    0.049352
  16 H :    0.054182
  17 H :    0.055050
  18 H :    0.024541
  19 H :    0.053144
  20 H :    0.053275
  21 H :    0.048340
  22 H :    0.049212
  23 H :    0.050863
  24 H :    0.051085
  25 H :    0.051552
  26 H :    0.050772
  27 H :    0.052346
[...]
 81:   1510.45   0.001850    9.35  0.000382  (-0.000984 -0.014374 -0.013216)
 82:   1513.99   0.000993    5.02  0.000205  (-0.006718  0.012393 -0.002422)
 83:   1517.36   0.000094    0.47  0.000019  ( 0.000224 -0.000316  0.004375)
 84:   1518.82   0.000107    0.54  0.000022  ( 0.000243  0.001476  0.004442)
 85:   1522.57   0.002577   13.02  0.000528  (-0.022848 -0.002307  0.000853)
 86:   1524.49   0.001150    5.81  0.000235  ( 0.000829 -0.010835 -0.010829)
 87:   1527.71   0.000423    2.14  0.000086  ( 0.005817 -0.005608  0.004599)
 88:   1537.10   0.003693   18.66  0.000750  ( 0.012337 -0.004729 -0.023983)
 89:   1538.60   0.001560    7.88  0.000316  (-0.002415 -0.016040  0.007302)
 90:   1541.19   0.002067   10.45  0.000419  ( 0.019938 -0.004411  0.001276)
 91:   1791.57   0.001177    5.95  0.000205  ( 0.013690 -0.003600  0.002157)
 92:   1812.89   0.000014    0.07  0.000002  ( 0.000660  0.000789 -0.001129)
 93:   3044.22   0.001205    6.09  0.000124  ( 0.006453  0.008638 -0.002693)
 94:   3056.80   0.004854   24.53  0.000496  ( 0.003135  0.009170  0.020040)
 95:   3070.10   0.002960   14.96  0.000301  ( 0.014208 -0.004249  0.008996)
 96:   3071.22   0.015367   77.66  0.001561  (-0.004814  0.037841 -0.010311)
 97:   3080.68   0.006932   35.03  0.000702  (-0.023816  0.010716 -0.004487)
 98:   3091.13   0.005468   27.63  0.000552  (-0.014067  0.007419  0.017293)
 99:   3092.72   0.012084   61.07  0.001219  ( 0.010258 -0.030139  0.014345)
100:   3094.19   0.009308   47.04  0.000939  (-0.020468 -0.020649 -0.009663)
101:   3095.13   0.006453   32.61  0.000651  (-0.014042 -0.010222 -0.018681)
102:   3100.02   0.005438   27.48  0.000547  (-0.006842  0.001418  0.022329)
103:   3110.55   0.006609   33.40  0.000663  ( 0.017513  0.005307 -0.018116)
104:   3121.75   0.005657   28.59  0.000566  ( 0.007286  0.011912  0.019249)
105:   3131.02   0.006683   33.77  0.000666  (-0.005950  0.019229  0.016153)
106:   3147.45   0.006703   33.88  0.000665  (-0.016669  0.018675 -0.006165)
107:   3162.26   0.002488   12.57  0.000246  ( 0.004661 -0.008781  0.012111)
108:   3167.74   0.002310   11.67  0.000228  ( 0.003573  0.009292  0.011332)
109:   3180.82   0.004498   22.73  0.000441  ( 0.015113  0.006961 -0.012821)
110:   3187.28   0.002155   10.89  0.000211  (-0.006672  0.012475 -0.003285)
111:   3189.27   0.006998   35.36  0.000685  (-0.024895  0.002275 -0.007731)
112:   3192.86   0.003604   18.21  0.000352  (-0.016029 -0.009248  0.003133)
113:   3202.57   0.002608   13.18  0.000254  (-0.014624 -0.001795  0.006083)
114:   3212.99   0.003355   16.96  0.000326  (-0.008482  0.015141  0.004969)
115:   3227.54   0.003941   19.92  0.000381  ( 0.014424 -0.005003 -0.012163)
116:   3272.67   0.003704   18.72  0.000353  ( 0.008541  0.015643 -0.005962)

* The epsilon (eps) is given for a Dirac delta lineshape.
** The dipole moment derivative (T) already includes vibrational overlap.

The first frequency considered to be a vibration is 6
The total number of vibrations considered is 111


--------------------------
THERMOCHEMISTRY AT 298.15K
--------------------------

Temperature         ...   298.15 K
Pressure            ...     1.00 atm
Total Mass          ...   204.36 AMU
Quasi RRHO          ...     True
Cut-Off Frequency   ...     1.00 cm^-1

Throughout the following assumptions are being made:
  (1) The electronic state is orbitally nondegenerate
  (2) There are no thermally accessible electronically excited states
  (3) Hindered rotations indicated by low frequency modes are not
      treated as such but are treated as vibrations and this may
      cause some error
  (4) All equations used are the standard statistical mechanics
      equations for an ideal gas
  (5) All vibrations are strictly harmonic

freq.      55.39  E(vib)   ...       0.52 
freq.      76.68  E(vib)   ...       0.49 
freq.      96.81  E(vib)   ...       0.46 
freq.     112.04  E(vib)   ...       0.45 
freq.     137.14  E(vib)   ...       0.42 
freq.     141.89  E(vib)   ...       0.41 
freq.     174.62  E(vib)   ...       0.38 
freq.     191.57  E(vib)   ...       0.36 
freq.     199.74  E(vib)   ...       0.35 
freq.     227.35  E(vib)   ...       0.33 
freq.     262.02  E(vib)   ...       0.29 
freq.     274.37  E(vib)   ...       0.28 
freq.     282.93  E(vib)   ...       0.28 
freq.     334.09  E(vib)   ...       0.24 
freq.     360.39  E(vib)   ...       0.22 
freq.     366.23  E(vib)   ...       0.22 
freq.     392.93  E(vib)   ...       0.20 
freq.     407.05  E(vib)   ...       0.19 
freq.     441.24  E(vib)   ...       0.17 
freq.     452.48  E(vib)   ...       0.16 
freq.     462.25  E(vib)   ...       0.16 
freq.     481.95  E(vib)   ...       0.15 
freq.     529.30  E(vib)   ...       0.13 
freq.     557.51  E(vib)   ...       0.12 
freq.     635.93  E(vib)   ...       0.09 
freq.     669.34  E(vib)   ...       0.08 
freq.     703.11  E(vib)   ...       0.07 
freq.     753.45  E(vib)   ...       0.06 
freq.     802.33  E(vib)   ...       0.05 
freq.     827.80  E(vib)   ...       0.04 
freq.     870.34  E(vib)   ...       0.04 
freq.     892.69  E(vib)   ...       0.03 
freq.     905.04  E(vib)   ...       0.03 
freq.     932.69  E(vib)   ...       0.03 
freq.     950.40  E(vib)   ...       0.03 
freq.     980.99  E(vib)   ...       0.02 
freq.     993.93  E(vib)   ...       0.02 
freq.    1005.89  E(vib)   ...       0.02 
freq.    1020.12  E(vib)   ...       0.02 
freq.    1034.56  E(vib)   ...       0.02 
freq.    1051.35  E(vib)   ...       0.02 
freq.    1054.80  E(vib)   ...       0.02 
freq.    1062.86  E(vib)   ...       0.02 
freq.    1081.33  E(vib)   ...       0.02 
freq.    1093.42  E(vib)   ...       0.02 
freq.    1103.30  E(vib)   ...       0.02 
freq.    1134.85  E(vib)   ...       0.01 
freq.    1151.45  E(vib)   ...       0.01 
freq.    1177.40  E(vib)   ...       0.01 
freq.    1193.93  E(vib)   ...       0.01 
freq.    1207.53  E(vib)   ...       0.01 
freq.    1220.03  E(vib)   ...       0.01 
freq.    1225.57  E(vib)   ...       0.01 
freq.    1243.20  E(vib)   ...       0.01 
freq.    1259.49  E(vib)   ...       0.01 
freq.    1278.80  E(vib)   ...       0.01 
freq.    1295.32  E(vib)   ...       0.01 
freq.    1302.50  E(vib)   ...       0.01 
freq.    1339.37  E(vib)   ...       0.01 
freq.    1354.54  E(vib)   ...       0.01 
freq.    1358.27  E(vib)   ...       0.01 
freq.    1385.04  E(vib)   ...       0.00 
freq.    1393.10  E(vib)   ...       0.00 
freq.    1405.92  E(vib)   ...       0.00 
freq.    1409.74  E(vib)   ...       0.00 
freq.    1431.29  E(vib)   ...       0.00 
freq.    1434.07  E(vib)   ...       0.00 
freq.    1440.84  E(vib)   ...       0.00 
freq.    1443.73  E(vib)   ...       0.00 
freq.    1452.40  E(vib)   ...       0.00 
freq.    1455.82  E(vib)   ...       0.00 
freq.    1459.28  E(vib)   ...       0.00 
freq.    1463.57  E(vib)   ...       0.00 
freq.    1502.68  E(vib)   ...       0.00 
freq.    1507.26  E(vib)   ...       0.00 
freq.    1510.45  E(vib)   ...       0.00 
freq.    1513.99  E(vib)   ...       0.00 
freq.    1517.36  E(vib)   ...       0.00 
freq.    1518.82  E(vib)   ...       0.00 
freq.    1522.57  E(vib)   ...       0.00 
freq.    1524.49  E(vib)   ...       0.00 
freq.    1527.71  E(vib)   ...       0.00 
freq.    1537.10  E(vib)   ...       0.00 
freq.    1538.60  E(vib)   ...       0.00 
freq.    1541.19  E(vib)   ...       0.00 
freq.    1791.57  E(vib)   ...       0.00 
freq.    1812.89  E(vib)   ...       0.00 
freq.    3044.22  E(vib)   ...       0.00 
freq.    3056.80  E(vib)   ...       0.00 
freq.    3070.10  E(vib)   ...       0.00 
freq.    3071.22  E(vib)   ...       0.00 
freq.    3080.68  E(vib)   ...       0.00 
freq.    3091.13  E(vib)   ...       0.00 
freq.    3092.72  E(vib)   ...       0.00 
freq.    3094.19  E(vib)   ...       0.00 
freq.    3095.13  E(vib)   ...       0.00 
freq.    3100.02  E(vib)   ...       0.00 
freq.    3110.55  E(vib)   ...       0.00 
freq.    3121.75  E(vib)   ...       0.00 
freq.    3131.02  E(vib)   ...       0.00 
freq.    3147.45  E(vib)   ...       0.00 
freq.    3162.26  E(vib)   ...       0.00 
freq.    3167.74  E(vib)   ...       0.00 
freq.    3180.82  E(vib)   ...       0.00 
freq.    3187.28  E(vib)   ...       0.00 
freq.    3189.27  E(vib)   ...       0.00 
freq.    3192.86  E(vib)   ...       0.00 
freq.    3202.57  E(vib)   ...       0.00 
freq.    3212.99  E(vib)   ...       0.00 
freq.    3227.54  E(vib)   ...       0.00 
freq.    3272.67  E(vib)   ...       0.00 

------------
INNER ENERGY
------------

The inner energy is: U= E(el) + E(ZPE) + E(vib) + E(rot) + E(trans)
    E(el)   - is the total energy from the electronic structure calculation
              = E(kin-el) + E(nuc-el) + E(el-el) + E(nuc-nuc)
    E(ZPE)  - the the zero temperature vibrational energy from the frequency calculation
    E(vib)  - the the finite temperature correction to E(ZPE) due to population
              of excited vibrational states
    E(rot)  - is the rotational thermal energy
    E(trans)- is the translational thermal energy

Summary of contributions to the inner energy U:
Electronic energy                ...    -99.94158519 Eh
Zero point energy                ...      0.36571498 Eh     229.49 kcal/mol
Thermal vibrational correction   ...      0.01268144 Eh       7.96 kcal/mol
Thermal rotational correction    ...      0.00141627 Eh       0.89 kcal/mol
Thermal translational correction ...      0.00141627 Eh       0.89 kcal/mol
-----------------------------------------------------------------------
Total thermal energy                    -99.56035622 Eh


Summary of corrections to the electronic energy:
(perhaps to be used in another calculation)
Total thermal correction                  0.01551399 Eh       9.74 kcal/mol
Non-thermal (ZPE) correction              0.36571498 Eh     229.49 kcal/mol
-----------------------------------------------------------------------
Total correction                          0.38122897 Eh     239.22 kcal/mol


--------
ENTHALPY
--------

The enthalpy is H = U + kB*T
                kB is Boltzmann's constant
Total thermal energy              ...    -99.56035622 Eh 
Thermal Enthalpy correction       ...      0.00094421 Eh       0.59 kcal/mol
-----------------------------------------------------------------------
Total Enthalpy                    ...    -99.55941201 Eh


Note: Only C1 symmetry has been detected, increase convergence thresholds 
      if your molecule has a higher symmetry. Symmetry factor of 1.0 is   
      used for the rotational entropy correction. 
 

Note: Rotational entropy computed according to Herzberg 
Infrared and Raman Spectra, Chapter V,1, Van Nostrand Reinhold, 1945 
Point Group:  C1, Symmetry Number:   1  
Rotational constants in cm-1:     0.023363     0.018196     0.012262 

Vibrational entropy computed according to the QRRHO of S. Grimme
Chem.Eur.J. 2012 18 9955 using a reference frequency of 100.0 cm-1


-------
ENTROPY
-------

The entropy contributions are T*S = T*(S(el)+S(vib)+S(rot)+S(trans))
     S(el)   - electronic entropy
     S(vib)  - vibrational entropy
     S(rot)  - rotational entropy
     S(trans)- translational entropy
The entropies will be listed as multiplied by the temperature to get
units of energy

Electronic entropy                ...      0.00000000 Eh      0.00 kcal/mol
Vibrational entropy               ...      0.02169494 Eh     13.61 kcal/mol
Rotational entropy                ...      0.01525351 Eh      9.57 kcal/mol
Translational entropy             ...      0.01988345 Eh     12.48 kcal/mol
-----------------------------------------------------------------------
Final entropy term                ...      0.05683189 Eh     35.66 kcal/mol

In case the symmetry of your molecule has not been determined correctly
or in case you have a reason to use a different symmetry number we print 
out the resulting rotational entropy values for sn=1,12:

 non-linear molecules -----------------------------------
|  sn= 1 | S(rot)=       0.01525351 Eh      9.57 kcal/mol|
|  sn= 2 | S(rot)=       0.01459905 Eh      9.16 kcal/mol|
|  sn= 3 | S(rot)=       0.01421622 Eh      8.92 kcal/mol|
|  sn= 4 | S(rot)=       0.01394459 Eh      8.75 kcal/mol|
|  sn= 5 | S(rot)=       0.01373391 Eh      8.62 kcal/mol|
|  sn= 6 | S(rot)=       0.01356176 Eh      8.51 kcal/mol|
|  sn= 7 | S(rot)=       0.01341621 Eh      8.42 kcal/mol|
|  sn= 8 | S(rot)=       0.01329014 Eh      8.34 kcal/mol|
|  sn= 9 | S(rot)=       0.01317893 Eh      8.27 kcal/mol|
|  sn=10 | S(rot)=       0.01307945 Eh      8.21 kcal/mol|
|  sn=11 | S(rot)=       0.01298946 Eh      8.15 kcal/mol|
|  sn=12 | S(rot)=       0.01290730 Eh      8.10 kcal/mol|
 linear molecules ---------------------------------------
|  Dinfh | S(rot)=       0.00948141 Eh      5.95 kcal/mol|
|  Cinfv | S(rot)=       0.01013587 Eh      6.36 kcal/mol|
 --------------------------------------------------------


-------------------
GIBBS FREE ENERGY
-------------------

The Gibbs free energy is G = H - T*S

Total enthalpy                    ...    -99.55941201 Eh 
Total entropy correction          ...     -0.05683189 Eh    -35.66 kcal/mol
-----------------------------------------------------------------------
Final Gibbs free energy         ...    -99.61624390 Eh

For completeness - the Gibbs free energy minus the electronic energy
G-E(el)                           ...      0.32534129 Eh    204.15 kcal/mol


Maximum memory used throughout the entire PROP-calculation: 241.6 MB

--------------------------------
SUGGESTED CITATIONS FOR THIS RUN
--------------------------------

Below you find a list of papers that are relevant to this ORCA run
We neither can nor want to force you to cite these papers, but we appreciate if you do
You receive ORCA, which is the product of decades of hard work by many enthusiastic individuals, for free
The only thing we kindly ask in return is that you cite our papers,
We deeply appreciate it, if you show your appreciation for ORCA by not just citing the generic ORCA reference.

Please note that relegating all ORCA citations to the supporting information does *not* help us.
SI sections are not indexed - citations you put there will not count into any citation statistics
But we need these citations in order to attract the funding resources that allow us to do what we are doing

Therefore, if you are a happy ORCA user, please consider citing a few of the papers listed below in the main body of your paper

In addition to the list printed below, the program has created the file ./output/delta_cadinene/delta_cadinene.bibtex that contains the list in bibtex format
You can import this file easily into all common literature databanks and citation aid programs


List of essential papers. We consider these as the minimum necessary citations

  1. Neese,F.
     Software update: the ORCA program system, version 5.0
     WIRES Comput. Molec. Sci., 2022 12(1)e1606
     doi.org/10.1002/wcms.1606
  2. Mueller,M.; Hansen,A.; Grimme,S.
     wB97X-3c: A composite range-separated hybrid DFT method with a molecule-optimized polarized valence double-zeta basis set
     J. Chem. Phys., 2023 158 014103
     doi.org/10.1063/5.0133026

List of papers to cite with high priority. The work reported in these papers was absolutely
necessary for this run to complete.
Our perspective: the developers of density functionals and basis sets usually get cited in chemistry papers
Good! But without the algorithms to do something with them, the functionals or basis sets would not do anything.
Hence, in our opinion, the algorithm design and method developments papers are equally worthy of getting cited

  1. Neese,F.
     An improvement of the resolution of the identity approximation for the formation of the Coulomb matrix
     J. Comp. Chem., 2003 24(14)1740-1747
     doi.org/10.1002/jcc.10318
  2. Neese,F.; Wennmohs,F.; Hansen,A.; Becker,U.
     Efficient, approximate and parallel Hartree-Fock and hybrid DFT calculations. A 'chain-of-spheres' algorithm for the Hartree-Fock exchange
     Chem. Phys., 2009 356(1-3)98-109
     doi.org/10.1016/j.chemphys.2008.10.036
  3. Bykov,D.; Petrenko,T.; Izsak,R.; Kossmann,S.; Becker,U.; Valeev,E.; Neese,F.
     Efficient implementation of the analytic second derivatives of Hartree-Fock and hybrid DFT energies: a detailed analysis of different approximations
     Molec. Phys., 2015 113 1961-1977
     doi.org/10.1080/00268976.2015.1025114
  4. Helmich-Paris,B.; de Souza,B.; Neese,F.; Izsák,R.
     An improved chain of spheres for exchange algorithm
     J. Chem. Phys., 2021 155 104109
     doi.org/doi: 10.1063/5.0058766.
  5. Neese,F.
     The SHARK Integral Generation and Digestion System
     J. Comp. Chem., 2022  1-16
     doi.org/10.1002/jcc.26942
  6. Caldeweyher,E.; Bannwarth,C.; Grimme,S.
     Extension of the D3 dispersion coefficient model
     J. Chem. Phys., 2017 147 034112
     doi.org/10.1063/1.4993215
  7. Caldeweyher,E.; Ehlert,S.; Hansen,A.; Neugebauer,H.; Spicher,S.; Bannwarth,C.; Grimme,S.
     A generally applicable atomic-charge dependent London dispersion correction
     J. Chem. Phys., 2019 150 154122
     doi.org/10.1063/1.5090222
  8. Caldeweyher,E.; Mewes,J.; Ehlert,S.; Grimme,S.
     Extension and evaluation of the D4 London-dispersion model for periodic systems
     Phys. Chem. Chem. Phys., 2020 22(16)8499-8512
     doi.org/10.1039/D0CP00502A
  9. Wittmann,L.; Gordiy,I.; Friede,M.; Helmich-Paris,B.; Grimme,S.; Hansen,A.; Bursch,M.
     Extension of the D3 and D4 London Dispersion Corrections to the full Actinides Series
     Phys. Chem. Chem. Phys., 2024 26(32)21379-21394
     doi.org/https://doi.org/10.1039/D4CP01514B 

List of suggested additional citations. These are papers that are important in the 'surrounding' of 
of this run, or papers that preceded the highly important papers. If you like your results we are grateful for a citation.

  1. Izsak,R.; Neese,F.
     An overlap fitted chain of spheres exchange method
     J. Chem. Phys., 2011 135 144105
     doi.org/10.1063/1.3646921
  2. Izsak,R.; Hansen,A.; Neese,F.
     The resolution of identity and chain of spheres approximations for the LPNO-CCSD singles Fock term
     Molec. Phys., 2012 110 2413-2417
     doi.org/10.1080/00268976.2012.687466
  3. Neese,F.
     The ORCA program system
     WIRES Comput. Molec. Sci., 2012 2(1)73-78
     doi.org/10.1002/wcms.81
  4. Izsak,R.; Neese,F.; Klopper,W.
     Robust fitting techniques in the chain of spheres approximation to the Fock exchange: The role of the complementary space
     J. Chem. Phys., 2013 139 
     doi.org/10.1063/1.4819264
  5. Neese,F.
     Software update: the ORCA program system, version 4.0
     WIRES Comput. Molec. Sci., 2018 8(1)1-6
     doi.org/10.1002/wcms.1327
  6. Neese,F.; Wennmohs,F.; Becker,U.; Riplinger,C.
     The ORCA quantum chemistry program package
     J. Chem. Phys., 2020 152 Art. No. L224108
     doi.org/10.1063/5.0004608

List of optional additional citations

  1. Neese,F.
     Approximate second-order SCF convergence for spin unrestricted wavefunctions
     Chem. Phys. Lett., 2000 325(1-3)93-98
     doi.org/10.1016/s0009-2614(00)00662-x

Timings for individual modules:

Sum of individual times          ...     2359.975 sec (=  39.333 min)
Startup calculation              ...      105.181 sec (=   1.753 min)   4.5 %
SCF iterations                   ...     1490.412 sec (=  24.840 min)  63.2 %
Property integrals               ...      144.126 sec (=   2.402 min)   6.1 %
SCF Response                     ...       86.535 sec (=   1.442 min)   3.7 %
Property calculations            ...      207.883 sec (=   3.465 min)   8.8 %
SCF Gradient evaluation          ...      325.214 sec (=   5.420 min)  13.8 %
Geometry relaxation              ...        0.624 sec (=   0.010 min)   0.0 %
                             ****ORCA TERMINATED NORMALLY****
TOTAL RUN TIME: 0 days 0 hours 39 minutes 29 seconds 564 msec
