
                                 *****************
                                 * O   R   C   A *
                                 *****************

                                            #,                                       
                                            ###                                      
                                            ####                                     
                                            #####                                    
                                            ######                                   
                                           ########,                                 
                                     ,,################,,,,,                         
                               ,,#################################,,                 
                          ,,##########################################,,             
                       ,#########################################, ''#####,          
                    ,#############################################,,   '####,        
                  ,##################################################,,,,####,       
                ,###########''''           ''''###############################       
              ,#####''   ,,,,##########,,,,          '''####'''          '####       
            ,##' ,,,,###########################,,,                        '##       
           ' ,,###''''                  '''############,,,                           
         ,,##''                                '''############,,,,        ,,,,,,###''
      ,#''                                            '''#######################'''  
     '                                                          ''''####''''         
             ,#######,   #######,   ,#######,      ##                                
            ,#'     '#,  ##    ##  ,#'     '#,    #''#        ,####,   ,####,        
            ##       ##  ##   ,#'  ##            #'  '#       #'       #'  '#        
            ##       ##  #######   ##           ,######,      #####,   #    #        
            '#,     ,#'  ##    ##  '#,     ,#' ,#      #,     #,   #   #,  ,#        
             '#######'   ##     ##  '#######'  #'      '#     '####' # '####'        



                #########################################################
                #                        -***-                          #
                #          Department of theory and spectroscopy        #
                #                                                       #
                #                      Frank Neese                      #
                #                                                       #
                #     Directorship, Architecture, Infrastructure        #
                #                    SHARK, DRIVERS                     #
                #        Core code/Algorithms in most modules           #
                #                                                       #
                #        Max Planck Institute fuer Kohlenforschung      #
                #                Kaiser Wilhelm Platz 1                 #
                #                 D-45470 Muelheim/Ruhr                 #
                #                      Germany                          #
                #                                                       #
                #                  All rights reserved                  #
                #                        -***-                          #
                #########################################################


                         Program Version 6.0.1  -  RELEASE   -


 With contributions from (in alphabetic order):
[Max-Planck-Institut fuer Kohlenforschung]                               
  Daniel Aravena         : Magnetic Suceptibility                        
  Michael Atanasov       : Ab Initio Ligand Field Theory (pilot matlab implementation)
  Alexander A. Auer      : GIAO ZORA, VPT2 properties, NMR spectrum      
  Ute Becker             : All parallelization in ORCA, NUMFREQ, NUMCALC 
  Giovanni Bistoni       : ED, misc. LED, open-shell LED, HFLD           
  Martin Brehm           : Molecular dynamics                            
  Dmytro Bykov           : pre 5.0 version of the SCF Hessian            
  Marcos Casanova-Páez   : Triplet and SCS-CIS(D). UHF-(DLPNO)-IP/EA/STEOM-CCSD. UHF-CVS-IP/STEOM-CCSD   
  Vijay G. Chilkuri      : MRCI spin determinant printing, contributions to CSF-ICE 
  Pauline Colinet        : FMM embedding                                 
  Dipayan Datta          : RHF DLPNO-CCSD density                        
  Achintya Kumar Dutta   : EOM-CC, STEOM-CC                              
  Nicolas Foglia         : Exact transition moments, OPA infrastructure, MCD improvements    
  Dmitry Ganyushin       : Spin-Orbit,Spin-Spin,Magnetic field MRCI      
  Miquel Garcia-Rates    : C-PCM and meta-GGA Hessian, CCSD/C-PCM, Gaussian charge scheme 
  Tiago L. C. Gouveia    : GS-ROHF, GS-ROCIS                             
  Yang Guo               : DLPNO-NEVPT2, F12-NEVPT2, CIM, IAO-localization        
  Andreas Hansen         : Spin unrestricted coupled pair/coupled cluster methods 
  Ingolf Harden          : AUTO-CI MPn and infrastructure                
  Benjamin Helmich-Paris : MC-RPA, TRAH-(SCF,CASSCF), AVAS, COSX integrals, SCF dyn. polar. 
  Lee Huntington         : MR-EOM, pCC                                   
  Robert Izsak           : Overlap fitted RIJCOSX, COSX-SCS-MP3, EOM     
  Riya Kayal             : Wick's Theorem for AUTO-CI, AUTO-CI UHF-CCSDT 
  Emily Kempfer          : AUTO-CI, RHF CISDT and CCSDT                  
  Christian Kollmar      : KDIIS, OOCD, Brueckner-CCSD(T), CCSD density, CASPT2, CASPT2-K, improved NEVPT2 
  Axel Koslowski         : Symmetry handling                             
  Simone Kossmann        : meta-GGA functionals, TD-DFT gradient, OOMP2, (MP2 Hessian; deprecated post 5.0) 
  Lucas Lang             : DCDCAS                                        
  Marvin Lechner         : AUTO-CI (C++ implementation), FIC-MRCC        
  Spencer Leger          : CASSCF response                               
  Dagmar Lenk            : GEPOL surface, SMD, ORCA-2-JSON               
  Dimitrios Liakos       : Extrapolation schemes; Compound Job, initial MDCI parallelization 
  Dimitrios Manganas     : Further ROCIS development; embedding schemes. LFT, Crystal Embedding 
  Dimitrios Pantazis     : SARC Basis sets                               
  Anastasios Papadopoulos: AUTO-CI, single reference methods and gradients 
  Taras Petrenko         : pre 6.0 DFT Hessian and TD-DFT gradient, (ASA, deprecated), ECA, 1-Electron XAS/XES, NRVS 
  Peter Pinski           : DLPNO-MP2, DLPNO-MP2 Gradient                 
  Christoph Reimann      : Effective Core Potentials                     
  Marius Retegan         : Local ZFS, SOC                                
  Christoph Riplinger    : Optimizer, TS searches, QM/MM, DLPNO-CCSD(T), (RO)-DLPNO pert. Triples 
  Michael Roemelt        : Original ROCIS implementation                 
  Masaaki Saitow         : Open-shell DLPNO-CCSD energy and density      
  Barbara Sandhoefer     : DKH picture change effects                    
  Kantharuban Sivalingam : CASSCF convergence/infrastructure, NEVPT2 and variants, FIC-MRCI 
  Bernardo de Souza      : ESD, SOC TD-DFT                               
  Georgi L. Stoychev     : AutoAux, RI-MP2 NMR, DLPNO-MP2 response, X2C  
  Van Anh Tran           : RI-MP2 g-tensors                              
  Willem Van den Heuvel  : Paramagnetic NMR                              
  Zikuan Wang            : NOTCH, Electric field optimization            
  Frank Wennmohs         : Technical directorship and infrastructure     
  Hang Xu                : AUTO-CI-Response properties                   
                                                                         
[FACCTs GmbH]                                                            
  Markus Bursch, Miquel Garcia-Rates, Christoph Riplinger, Bernardo de Souza, Georgi L. Stoychev 
                                                                 
  APM, Basis sets (HGBS, AHGBS, def-TZVP (Ac-Lr), def2-XVPD (La-Lu)), CI-OPT, improved COSX, DLPNO-Multilevel,           
  DOCKER, DRACO, updates on ESD, GOAT, IRC, LR-CPCM, MBIS, meta-GGA TD-DFT gradient, ML-optimized integration grids, 
  MM, NACMEs, nearIR, NEB, NEB-TS, NL-DFT gradient (VV10), 2- and 3-layer-ONIOM, interface openCOSMO-RS, QMMM,   
  Crystal-QMMM, SF, symmetry and pop. for TD-DFT, r2SCAN hybrids, SOLVATOR                                   
                                                                         
[Other institutions]                                                     
  V. Asgeirsson          : NEB                                           
  Christoph Bannwarth    : sTDA-DFT, sTD-DFT, PBEh-3c, B97-3c, D3        
  Sebastian Ehlert       : rSCAN, r2SCAN, r2SCAN-3c, D4, dhf basis sets  
  Marvin Friede          : D4 for Fr, Ra, Ac-Lr                          
  Lars Goerigk           : TD-DFT with DH, B97 family of functionals     
  Stefan Grimme          : VdW corrections, initial TS optimization, DFT functionals, gCP, sTDA/sTD-DF 
  Waldemar Hujo          : DFT-NL                                        
  H. Jonsson             : NEB                                           
  Holger Kruse           : gCP                                           
  Marcel Mueller         : wB97X-3c, vDZP basis set                      
  Hagen Neugebauer       : wr2SCAN                                       
  Tobias Risthaus        : range-separated hybrid DFT                    
  Lukas Wittmann         : regularized MP2, r2SCAN double-hybrids, wr2SCAN        
                                                                         
We gratefully acknowledge several colleagues who have allowed us to      
interface, adapt or use parts of their codes:                            
  Ed Valeev, F. Pavosevic, A. Kumar             : LibInt (2-el integral package), F12 methods 
  Garnet Chan, S. Sharma, J. Yang, R. Olivares  : DMRG                   
  Ulf Ekstrom                                   : XCFun DFT Library      
  Mihaly Kallay                                 : mrcc  (arbitrary order and MRCC methods)
  Frank Weinhold                                : gennbo (NPA and NBO analysis)           
  Simon Mueller                                 : openCOSMO-RS                            
  Christopher J. Cramer and Donald G. Truhlar   : smd solvation model                     
  S Lehtola, MJT Oliveira, MAL Marques          : LibXC Library                           
  Liviu Ungur et al                             : ANISO software                          


 Your calculation uses the libint2 library for the computation of 2-el integrals
 For citations please refer to: http://libint.valeyev.net

 Your ORCA version has been built with support for libXC version: 6.2.2
 For citations please refer to: https://libxc.gitlab.io

 This ORCA versions uses:
   CBLAS   interface :  Fast vector & matrix operations
   LAPACKE interface :  Fast linear algebra routines
   SCALAPACK package :  Parallel linear algebra routines
   Shared memory     :  Shared parallel matrices
   BLAS/LAPACK       :  OpenBLAS 0.3.27  USE64BITINT DYNAMIC_ARCH NO_AFFINITY SkylakeX SINGLE_THREADED
        Core in use  :  SkylakeX
   Copyright (c) 2011-2014, The OpenBLAS Project


Your calculation utilizes the atom-pairwise dispersion correction
based on EEQ partial charges (D4)


================================================================================

cite the ECPs for C  [vDZP-ECP], O  [vDZP-ECP] as follows:
   B-Ne (ecp-2-mwb), Al-Ar (ecp-10-mwb), Ga-Kr (ecp-28-mwb), Y-Cd (ecp-28-mwb), In-Xe (ecp-46-mwb):
     A. Bergner, M. Dolg, W. Küchle, H. Stoll, and H. Preuß, Mol. Phys. 80, 1431 (1993)., T. Leininger, A. Berning, A. Nicklass, H. Stoll, H.-J. Werner, and H.-J.Flad, Chem. Phys. 217, 19 (1997).
   Na-Mg, K-Ca, Rb-Sr, Cs-Ba (CRENBL):
     L. Fernandez Pacios and P. A. Christiansen, J. Chem. Phys. 82, 2664 (1985)., M. M. Hurley, L. F. Pacios, P. A. Christiansen, R. B. Ross, and W. C. Ermler, J. Chem. Phys. 84, 6840 (1986)., L. A. LaJohn, P. A. Christiansen, R. B. Ross, T. Atashroo, and W. C. Ermler, J. Chem. Phys. 87, 2812 (1987)., R. B. Ross, J. M. Powers, T. Atashroo, W. C. Ermler, L. A. LaJohn, and P. A. Christiansen, J. Chem. Phys. 93, 6654 (1990). 
   Sc-Zn (ecp-10-mdf):
     M. Dolg, U. Wedig, H. Stoll, and H. Preuss, J. Chem. Phys. 86, 866 (1986). 
   Y-Cd (ecp-28-mwb), Hf-Hg (ecp-60-mwb):
     D. Andrae, U. Häußermann, M. Dolg, H. Stoll, and H. Preuß, Theor. Chim. Acta 77, 123 (1990). 
   La (ecp-46-mwb):
     M. Dolg, H. Stoll, and H. Preuss, J. Chem. Phys. 90, 1730 (1989)., M. Dolg, H. Stoll, and H. Preuss, Theor. Chim. Acta 85, 441 (1993).
   Ce-Lu (SBKJC-ecp):
     T. R. Cundari and W. J. Stevens, J. Chem. Phys. 98, 5555 (1993).
   Tl-Rn (ecp-78-mwb):
     W. Küchle, M. Dolg, H. Stoll, and H. Preuss, Mol. Phys. 74, 1245 (1991).

ECP parameters for C  [vDZP-ECP], O  [vDZP-ECP] have been obtained from:
MM, AH, SG, J. Chem. Phys. 158, 014103 (2023), 10.1063/5.0133026

----- Orbital basis set information -----
Your calculation utilizes the basis: vDZP
   Marcel Mueller, Andreas Hansen, Stefan Grimme 
   J. Chem. Phys. 158, 014103 (2023). DOI: 10.1063/5.0133026

----- AuxJ basis set information -----
Your calculation utilizes the auxiliary basis: def2/J
   F. Weigend, Phys. Chem. Chem. Phys. 8, 1057 (2006).

================================================================================
                                        WARNINGS
                       Please study these warnings very carefully!
================================================================================

WARNING: Frozen-Core approximation turned on, but there are no core electrons.
  ===> : Turning off frozen-core approximation


WARNING: Geometry Optimization
  ===> : Switching off AutoStart
         For restart on a previous wavefunction, please use MOREAD

================================================================================
                                       INPUT FILE
================================================================================
NAME = ./output/methyl_benzoate/methyl_benzoate.inp
|  1> ! wB97X-3c OPT FREQ TightSCF
|  2> %pal
|  3>   nprocs 40
|  4> end
|  5> * xyz 0 1
|  6> C      3.554822    -0.081689     0.084439
|  7> O      2.177222     0.272874     0.089455
|  8> C      1.154512    -0.667464    -0.077322
|  9> O      1.438569    -1.886491    -0.240691
| 10> C     -0.258896    -0.229874    -0.061720
| 11> C     -1.301730    -1.161079    -0.227863
| 12> C     -2.635206    -0.740025    -0.211980
| 13> C     -2.941864     0.610437    -0.030735
| 14> C     -1.915525     1.543087     0.135071
| 15> C     -0.580177     1.127837     0.120072
| 16> H      3.825635    -0.541031    -0.889800
| 17> H      4.166694     0.831417     0.233874
| 18> H      3.766623    -0.795755     0.908287
| 19> H     -1.088157    -2.213101    -0.369885
| 20> H     -3.431456    -1.461891    -0.340374
| 21> H     -3.974606     0.934153    -0.018771
| 22> H     -2.154503     2.589402     0.275452
| 23> H      0.198044     1.869193     0.250634
| 24> *
| 25> 
| 26>                          ****END OF INPUT****
================================================================================

                       *****************************
                       * Geometry Optimization Run *
                       *****************************

Geometry optimization settings:
Update method            Update   .... BFGS
Choice of coordinates    CoordSys .... (2022) Redundant Internals
Initial Hessian          InHess   .... Almloef's Model
Max. no of cycles        MaxIter  .... 54

Convergence Tolerances:
Energy Change            TolE     ....  5.0000e-06 Eh
Max. Gradient            TolMAXG  ....  3.0000e-04 Eh/bohr
RMS Gradient             TolRMSG  ....  1.0000e-04 Eh/bohr
Max. Displacement        TolMAXD  ....  4.0000e-03 bohr
RMS Displacement         TolRMSD  ....  2.0000e-03 bohr
Strict Convergence                .... False

------------------------------------------------------------------------------
                        ORCA OPTIMIZATION COORDINATE SETUP
------------------------------------------------------------------------------

The optimization will be done in redundant internal coordinates (2022)
Making redundant internal coordinates   ...  (2022 redundants) done
Evaluating the initial hessian          ...  (Almloef) done
Evaluating the coordinates              ...  done
Calculating the B-matrix                .... done
Calculating the G-matrix                .... done
Diagonalizing the G-matrix              .... done
Small eigenvalue found = 1.375e-02
The first mode is                       ....   31
The number of degrees of freedom        ....   48

    -----------------------------------------------------------------
                    Redundant Internal Coordinates


    -----------------------------------------------------------------
         Definition                    Initial Value    Approx d2E/dq
    -----------------------------------------------------------------
      1. B(O   1,C   0)                  1.4225         0.496610   
      2. B(C   2,O   1)                  1.3993         0.540840   
      3. B(O   3,C   2)                  1.2623         0.894562   
      4. B(C   4,C   2)                  1.4797         0.449429   
      5. B(C   5,C   4)                  1.4079         0.584982   
      6. B(C   6,C   5)                  1.3985         0.605672   
      7. B(C   7,C   6)                  1.3967         0.609714   
      8. B(C   8,C   7)                  1.3967         0.609663   
      9. B(C   9,C   8)                  1.3985         0.605581   
     10. B(C   9,C   4)                  1.4070         0.586970   
     11. B(H  10,C   0)                  1.1106         0.333830   
     12. B(H  11,C   0)                  1.1093         0.335489   
     13. B(H  12,C   0)                  1.1106         0.333831   
     14. B(H  13,C   5)                  1.0828         0.369703   
     15. B(H  14,C   6)                  1.0824         0.370296   
     16. B(H  15,C   7)                  1.0824         0.370357   
     17. B(H  16,C   8)                  1.0824         0.370294   
     18. B(H  17,C   9)                  1.0827         0.369860   
     19. A(H  10,C   0,H  12)          109.7724         0.284036   
     20. A(O   1,C   0,H  12)          110.0186         0.333684   
     21. A(H  11,C   0,H  12)          108.9124         0.284255   
     22. A(O   1,C   0,H  11)          109.1800         0.333959   
     23. A(O   1,C   0,H  10)          110.0185         0.333684   
     24. A(H  10,C   0,H  11)          108.9124         0.284255   
     25. A(C   0,O   1,C   2)          122.6761         0.401957   
     26. A(O   1,C   2,C   4)          119.8780         0.397504   
     27. A(O   1,C   2,O   3)          119.9955         0.446549   
     28. A(O   3,C   2,C   4)          120.1266         0.434720   
     29. A(C   5,C   4,C   9)          118.9697         0.425361   
     30. A(C   2,C   4,C   5)          120.7086         0.405637   
     31. A(C   2,C   4,C   9)          120.3216         0.405880   
     32. A(C   4,C   5,C   6)          120.3839         0.427758   
     33. A(C   6,C   5,H  13)          118.8210         0.353084   
     34. A(C   4,C   5,H  13)          120.7951         0.351015   
     35. A(C   5,C   6,C   7)          120.1300         0.430947   
     36. A(C   7,C   6,H  14)          119.9160         0.353578   
     37. A(C   5,C   6,H  14)          119.9541         0.353180   
     38. A(C   8,C   7,H  15)          120.0086         0.353583   
     39. A(C   6,C   7,H  15)          120.0086         0.353588   
     40. A(C   6,C   7,C   8)          119.9827         0.431456   
     41. A(C   9,C   8,H  16)          119.9491         0.353171   
     42. A(C   7,C   8,H  16)          119.9111         0.353573   
     43. A(C   7,C   8,C   9)          120.1397         0.430929   
     44. A(C   8,C   9,H  17)          118.7967         0.353101   
     45. A(C   4,C   9,H  17)          120.8094         0.351242   
     46. A(C   4,C   9,C   8)          120.3939         0.428006   
     47. D(C   2,O   1,C   0,H  11)    180.0000         0.019489   
     48. D(C   2,O   1,C   0,H  12)    -60.5298         0.019489   
     49. D(C   2,O   1,C   0,H  10)     60.5298         0.019489   
     50. D(C   4,C   2,O   1,C   0)   -180.0000         0.021124   
     51. D(O   3,C   2,O   1,C   0)      0.0000         0.021124   
     52. D(C   5,C   4,C   2,O   3)      0.0001         0.013769   
     53. D(C   5,C   4,C   2,O   1)   -180.0000         0.013769   
     54. D(C   9,C   4,C   2,O   3)   -179.9999         0.013769   
     55. D(C   9,C   4,C   2,O   1)      0.0001         0.013769   
     56. D(H  13,C   5,C   4,C   9)   -180.0000         0.023530   
     57. D(H  13,C   5,C   4,C   2)      0.0001         0.023530   
     58. D(C   6,C   5,C   4,C   9)     -0.0000         0.023530   
     59. D(C   6,C   5,C   4,C   2)    180.0000         0.023530   
     60. D(C   7,C   6,C   5,H  13)    180.0000         0.025315   
     61. D(C   7,C   6,C   5,C   4)      0.0000         0.025315   
     62. D(H  14,C   6,C   5,H  13)     -0.0000         0.025315   
     63. D(H  14,C   6,C   5,C   4)   -180.0000         0.025315   
     64. D(H  15,C   7,C   6,H  14)      0.0000         0.025673   
     65. D(H  15,C   7,C   6,C   5)   -180.0000         0.025673   
     66. D(C   8,C   7,C   6,H  14)    180.0000         0.025673   
     67. D(C   8,C   7,C   6,C   5)     -0.0000         0.025673   
     68. D(H  16,C   8,C   7,H  15)      0.0000         0.025669   
     69. D(H  16,C   8,C   7,C   6)   -179.9999         0.025669   
     70. D(C   9,C   8,C   7,H  15)    180.0000         0.025669   
     71. D(C   9,C   8,C   7,C   6)      0.0000         0.025669   
     72. D(C   4,C   9,C   8,C   7)     -0.0000         0.025307   
     73. D(H  17,C   9,C   4,C   5)   -179.9999         0.023698   
     74. D(H  17,C   9,C   4,C   2)      0.0001         0.023698   
     75. D(C   8,C   9,C   4,C   5)      0.0000         0.023698   
     76. D(C   4,C   9,C   8,H  16)    179.9999         0.025307   
     77. D(C   8,C   9,C   4,C   2)    180.0000         0.023698   
     78. D(H  17,C   9,C   8,H  16)     -0.0001         0.025307   
     79. D(H  17,C   9,C   8,C   7)    179.9999         0.025307   
    -----------------------------------------------------------------

Number of atoms                         .... 18
Number of degrees of freedom            .... 79


         *************************************************************
         *                GEOMETRY OPTIMIZATION CYCLE   1            *
         *************************************************************
---------------------------------
CARTESIAN COORDINATES (ANGSTROEM)
---------------------------------
  C      3.554822   -0.081689    0.084439
  O      2.177222    0.272874    0.089455
  C      1.154512   -0.667464   -0.077322
  O      1.438569   -1.886491   -0.240691
  C     -0.258896   -0.229874   -0.061720
  C     -1.301730   -1.161079   -0.227863
  C     -2.635206   -0.740025   -0.211980
  C     -2.941864    0.610437   -0.030735
  C     -1.915525    1.543087    0.135071
  C     -0.580177    1.127837    0.120072
  H      3.825635   -0.541031   -0.889800
  H      4.166694    0.831417    0.233874
  H      3.766623   -0.795755    0.908287
  H     -1.088157   -2.213101   -0.369885
  H     -3.431456   -1.461891   -0.340374
  H     -3.974606    0.934153   -0.018771
  H     -2.154503    2.589402    0.275452
  H      0.198044    1.869193    0.250634

----------------------------
CARTESIAN COORDINATES (A.U.)
----------------------------
  NO LB      ZA    FRAG     MASS         X           Y           Z
   0 C     4.0000*   0    12.011    6.717640   -0.154370    0.159567
   1 O     6.0000*   0    15.999    4.114353    0.515657    0.169045
   2 C     4.0000*   0    12.011    2.181711   -1.261324   -0.146117
   3 O     6.0000*   0    15.999    2.718501   -3.564951   -0.454840
   4 C     4.0000*   0    12.011   -0.489243   -0.434399   -0.116634
   5 C     4.0000*   0    12.011   -2.459913   -2.194121   -0.430599
   6 C     4.0000*   0    12.011   -4.979818   -1.398445   -0.400584
   7 C     4.0000*   0    12.011   -5.559317    1.153559   -0.058081
   8 C     4.0000*   0    12.011   -3.619818    2.916012    0.255247
   9 C     4.0000*   0    12.011   -1.096376    2.131303    0.226903
  10 H     1.0000    0     1.008    7.229402   -1.022400   -1.681478
  11 H     1.0000    0     1.008    7.873911    1.571150    0.441958
  12 H     1.0000    0     1.008    7.117886   -1.503759    1.716414
  13 H     1.0000    0     1.008   -2.056319   -4.182155   -0.698981
  14 H     1.0000    0     1.008   -6.484512   -2.762574   -0.643214
  15 H     1.0000    0     1.008   -7.510917    1.765293   -0.035472
  16 H     1.0000    0     1.008   -4.071421    4.893261    0.520529
  17 H     1.0000    0     1.008    0.374249    3.532263    0.473630
* core charge reduced due to ECP

--------------------------------
INTERNAL COORDINATES (ANGSTROEM)
--------------------------------
 C      0   0   0     0.000000000000     0.00000000     0.00000000
 O      1   0   0     1.422505480209     0.00000000     0.00000000
 C      2   1   0     1.399280481559   122.67605491     0.00000000
 O      3   2   1     1.262301325413   119.99546285     0.00000000
 C      3   2   1     1.479679223672   119.87797410   180.00003078
 C      5   3   2     1.407923648509   120.70864516   180.00003110
 C      6   5   3     1.398462363877   120.38392510   179.99999256
 C      7   6   5     1.396651886632   120.12997699     0.00000000
 C      8   7   6     1.396674405528   119.98273321     0.00000000
 C      9   8   7     1.398503419233   120.13974794     0.00000000
 H      1   2   3     1.110619819314   110.01850893    60.52984185
 H      1   2   3     1.109270359671   109.17996235   179.99997026
 H      1   2   3     1.110619396130   110.01857749   299.47018982
 H      6   5   3     1.082836074065   120.79508701     0.00000000
 H      7   6   5     1.082399927796   119.95405838   180.00003300
 H      8   7   6     1.082354481912   120.00862020   180.00000498
 H      9   8   7     1.082401214370   119.91112263   180.00005426
 H     10   9   8     1.082720222135   118.79671306   179.99990612

---------------------------
INTERNAL COORDINATES (A.U.)
---------------------------
 C      0   0   0     0.000000000000     0.00000000     0.00000000
 O      1   0   0     2.688145781597     0.00000000     0.00000000
 C      2   1   0     2.644256894689   122.67605491     0.00000000
 O      3   2   1     2.385403803516   119.99546285     0.00000000
 C      3   2   1     2.796188498794   119.87797410   180.00003078
 C      5   3   2     2.660590113153   120.70864516   180.00003110
 C      6   5   3     2.642710876324   120.38392510   179.99999256
 C      7   6   5     2.639289570159   120.12997699     0.00000000
 C      8   7   6     2.639332124705   119.98273321     0.00000000
 C      9   8   7     2.642788459702   120.13974794     0.00000000
 H      1   2   3     2.098767297409   110.01850893    60.52984185
 H      1   2   3     2.096217188255   109.17996235   179.99997026
 H      1   2   3     2.098766497707   110.01857749   299.47018982
 H      6   5   3     2.046263627914   120.79508701     0.00000000
 H      7   6   5     2.045439430910   119.95405838   180.00003300
 H      8   7   6     2.045353550637   120.00862020   180.00000498
 H      9   8   7     2.045441862183   119.91112263   180.00005426
 H     10   9   8     2.046044699494   118.79671306   179.99990612

---------------------
BASIS SET INFORMATION
---------------------
There are 3 groups of distinct atoms

 Group   1 Type C   : 6s6p2d contracted to 2s2p1d pattern {42/42/2}
 Group   2 Type O   : 6s6p2d contracted to 2s2p1d pattern {42/42/2}
 Group   3 Type H   : 8s2p contracted to 2s1p pattern {53/2}

Atom   0C    basis set group =>   1
Atom   1O    basis set group =>   2
Atom   2C    basis set group =>   1
Atom   3O    basis set group =>   2
Atom   4C    basis set group =>   1
Atom   5C    basis set group =>   1
Atom   6C    basis set group =>   1
Atom   7C    basis set group =>   1
Atom   8C    basis set group =>   1
Atom   9C    basis set group =>   1
Atom  10H    basis set group =>   3
Atom  11H    basis set group =>   3
Atom  12H    basis set group =>   3
Atom  13H    basis set group =>   3
Atom  14H    basis set group =>   3
Atom  15H    basis set group =>   3
Atom  16H    basis set group =>   3
Atom  17H    basis set group =>   3
---------------------------------
AUXILIARY/J BASIS SET INFORMATION
---------------------------------
There are 3 groups of distinct atoms

 Group   1 Type C   : 12s5p4d2f1g contracted to 6s4p3d1f1g pattern {711111/2111/211/2/1}
 Group   2 Type O   : 12s5p4d2f1g contracted to 6s4p3d1f1g pattern {711111/2111/211/2/1}
 Group   3 Type H   : 5s2p1d contracted to 3s1p1d pattern {311/2/1}

Atom   0C    basis set group =>   1
Atom   1O    basis set group =>   2
Atom   2C    basis set group =>   1
Atom   3O    basis set group =>   2
Atom   4C    basis set group =>   1
Atom   5C    basis set group =>   1
Atom   6C    basis set group =>   1
Atom   7C    basis set group =>   1
Atom   8C    basis set group =>   1
Atom   9C    basis set group =>   1
Atom  10H    basis set group =>   3
Atom  11H    basis set group =>   3
Atom  12H    basis set group =>   3
Atom  13H    basis set group =>   3
Atom  14H    basis set group =>   3
Atom  15H    basis set group =>   3
Atom  16H    basis set group =>   3
Atom  17H    basis set group =>   3
-------------------------
ECP PARAMETER INFORMATION
-------------------------

 Group 1, Type C  ECP vDZP-ECP (replacing 2 core electrons, lmax=3)
 Group 2, Type O  ECP vDZP-ECP (replacing 2 core electrons, lmax=3)

Atom   0C    ECP group =>   1
Atom   1O    ECP group =>   2
Atom   2C    ECP group =>   1
Atom   3O    ECP group =>   2
Atom   4C    ECP group =>   1
Atom   5C    ECP group =>   1
Atom   6C    ECP group =>   1
Atom   7C    ECP group =>   1
Atom   8C    ECP group =>   1
Atom   9C    ECP group =>   1



           ************************************************************
           *        Program running with 40 parallel MPI-processes    *
           *              working on a common directory               *
           ************************************************************
------------------------------------------------------------------------------
                             ORCA STARTUP CALCULATIONS
                           -- RI-GTO INTEGRALS CHOSEN --
------------------------------------------------------------------------------
------------------------------------------------------------------------------
                   ___                                                        
                  /   \      - P O W E R E D   B Y -                         
                 /     \                                                     
                 |  |  |   _    _      __       _____    __    __             
                 |  |  |  | |  | |    /  \     |  _  \  |  |  /  |          
                  \  \/   | |  | |   /    \    | | | |  |  | /  /          
                 / \  \   | |__| |  /  /\  \   | |_| |  |  |/  /          
                |  |  |   |  __  | /  /__\  \  |    /   |      \           
                |  |  |   | |  | | |   __   |  |    \   |  |\   \          
                \     /   | |  | | |  |  |  |  | |\  \  |  | \   \       
                 \___/    |_|  |_| |__|  |__|  |_| \__\ |__|  \__/        
                                                                              
                      - O R C A' S   B I G   F R I E N D -                    
                                      &                                       
                       - I N T E G R A L  F E E D E R -                       
                                                                              
 v1 FN, 2020, v2 2021, v3 2022-2024                                           
------------------------------------------------------------------------------


----------------------
SHARK INTEGRAL PACKAGE
----------------------

Number of atoms                             ...     18
Number of basis functions                   ...    170
Number of shells                            ...     74
Maximum angular momentum                    ...      2
Integral batch strategy                     ... SHARK/LIBINT Hybrid
RI-J (if used) integral strategy            ... SPLIT-RIJ (Revised 2003 algorithm where possible)
Printlevel                                  ...      1
Contraction scheme used                     ... SEGMENTED contraction
Prescreening option                         ... SCHWARTZ
   Thresh                                   ... 2.500e-11
   Tcut                                     ... 2.500e-12
   Tpresel                                  ... 2.500e-12 
Coulomb Range Separation                    ... NOT USED
Exchange Range Separation                   ... Long Range
   Mu parameter                             ... 3.000e-01
   Scaling (regular/separated)              ... 1.670e-01 8.330e-01
Multipole approximations                    ... NOT USED
Finite Nucleus Model                        ... NOT USED
CABS basis                                  ... NOT available
Auxiliary Coulomb fitting basis             ... AVAILABLE
   # of basis functions in Aux-J            ...    578
   # of shells in Aux-J                     ...    190
   Maximum angular momentum in Aux-J        ...      4
Auxiliary J/K fitting basis                 ... NOT available
Auxiliary Correlation fitting basis         ... NOT available
Auxiliary 'external' fitting basis          ... NOT available

Checking pre-screening integrals            ... done (  0.0 sec) Dimension = 74
Check shell pair data                       ... done (  0.0 sec)
Shell pair information
Shell pair cut-off parameter TPreSel        ...   2.5e-12
Total number of shell pairs                 ...      2775
Shell pairs after pre-screening             ...      2757
Total number of primitive shell pairs       ...     24572
Primitive shell pairs kept                  ...     19910
          la=0 lb=0:    662 shell pairs
          la=1 lb=0:    999 shell pairs
          la=1 lb=1:    401 shell pairs
          la=2 lb=0:    360 shell pairs
          la=2 lb=1:    280 shell pairs
          la=2 lb=2:     55 shell pairs

Calculating one electron integrals          ... done (  0.0 sec)
Calculating ECP integrals                   ... done (  0.1 sec)
Calculating RI/J V-Matrix + Cholesky decomp.... done (  0.0 sec)
Calculating Nuclear repulsion               ... done (  0.0 sec) ENN=    248.679723662559 Eh

Diagonalization of the overlap matrix:
Smallest eigenvalue                        ... 4.493e-04
Time for diagonalization                   ...    0.004 sec
Threshold for overlap eigenvalues          ... 1.000e-07
Number of eigenvalues below threshold      ... 0
Time for construction of square roots      ...    0.003 sec
Total time needed                          ...    0.010 sec

-------------------
DFT GRID GENERATION
-------------------

General Integration Accuracy     IntAcc      ... 4.388
Radial Grid Type                 RadialGrid  ... OptM3 with GC (2021)
Angular Grid (max. ang.)         AngularGrid ... 4 (Lebedev-302)
Angular grid pruning method      GridPruning ... 4 (adaptive)
Weight generation scheme         WeightScheme... mBecke (2022)
Basis function cutoff            BFCut       ... 1.0000e-11
Integration weight cutoff        WCut        ... 1.0000e-14
Partially contracted basis set               ... off
Rotationally invariant grid construction     ... off
Angular grids for H and He will be reduced by one unit

Total number of grid points                  ...    86107
Total number of batches                      ...     1356
Average number of points per batch           ...       63
Average number of grid points per atom       ...     4784

--------------------
COSX GRID GENERATION
--------------------

GRIDX 1
-------
General Integration Accuracy     IntAcc      ... 3.816
Radial Grid Type                 RadialGrid  ... OptM3 with GC (2021)
Angular Grid (max. ang.)         AngularGrid ... 1 (Lebedev-50)
Angular grid pruning method      GridPruning ... 4 (adaptive)
Weight generation scheme         WeightScheme... mBecke (2022)
Basis function cutoff            BFCut       ... 1.0000e-11
Integration weight cutoff        WCut        ... 1.0000e-14
Partially contracted basis set               ... on
Rotationally invariant grid construction     ... off
Angular grids for H and He will be reduced by one unit

Total number of grid points                  ...    11021
Total number of batches                      ...       95
Average number of points per batch           ...      116
Average number of grid points per atom       ...      612
UseSFitting                                  ... on

GRIDX 2
-------
General Integration Accuracy     IntAcc      ... 4.020
Radial Grid Type                 RadialGrid  ... OptM3 with GC (2021)
Angular Grid (max. ang.)         AngularGrid ... 2 (Lebedev-110)
Angular grid pruning method      GridPruning ... 4 (adaptive)
Weight generation scheme         WeightScheme... mBecke (2022)
Basis function cutoff            BFCut       ... 1.0000e-11
Integration weight cutoff        WCut        ... 1.0000e-14
Partially contracted basis set               ... on
Rotationally invariant grid construction     ... off
Angular grids for H and He will be reduced by one unit

Total number of grid points                  ...    24127
Total number of batches                      ...      197
Average number of points per batch           ...      122
Average number of grid points per atom       ...     1340
UseSFitting                                  ... on

GRIDX 3
-------
General Integration Accuracy     IntAcc      ... 4.338
Radial Grid Type                 RadialGrid  ... OptM3 with GC (2021)
Angular Grid (max. ang.)         AngularGrid ... 3 (Lebedev-194)
Angular grid pruning method      GridPruning ... 4 (adaptive)
Weight generation scheme         WeightScheme... mBecke (2022)
Basis function cutoff            BFCut       ... 1.0000e-11
Integration weight cutoff        WCut        ... 1.0000e-14
Partially contracted basis set               ... on
Rotationally invariant grid construction     ... off
Angular grids for H and He will be reduced by one unit

Total number of grid points                  ...    53072
Total number of batches                      ...      424
Average number of points per batch           ...      125
Average number of grid points per atom       ...     2948
UseSFitting                                  ... on
Initializing property integral containers    ... done (  0.0 sec)

SHARK setup successfully completed in   2.6 seconds

Maximum memory used throughout the entire STARTUP-calculation: 24.1 MB


           ************************************************************
           *        Program running with 40 parallel MPI-processes    *
           *              working on a common directory               *
           ************************************************************
-------------------------------------------------------------------------------
                                 ORCA GUESS
                   Start orbitals & Density for SCF / CASSCF
-------------------------------------------------------------------------------

------------
SCF SETTINGS
------------
Hamiltonian:
 Density Functional     Method          .... DFT(GTOs)
 Exchange Functional    Exchange        .... WB97X-V
 Correlation Functional Correlation     .... WB97X-V
 Gradients option       PostSCFGGA      .... off
 Hybrid DFT is turned on
   Fraction HF Exchange ScalHFX         ....  0.167000
   Scaling of DF-GGA-X  ScalDFX         ....  0.000000
   Scaling of DF-GGA-C  ScalDFC         ....  1.000000
   Scaling of DF-LDA-C  ScalLDAC        ....  1.000000
   Perturbative correction              ....  0.000000
 Long-range corrected/Screened/Range-Separated Hybrid DFT is turned on
   Amount of maximum screened exact exchange              ....  0.833000
   Range separation parameter mu (erf(mu*r12)/r12)        ....  0.300000
   NL short-range parameter             ....  6.000000
   NL long-range parameter              ....  0.010000
 RI-approximation to the Coulomb term is turned on
   Number of AuxJ basis functions       .... 578
   RIJ-COSX (HFX calculated with COS-X)).... on


General Settings:
 Integral files         IntName         .... ./output/methyl_benzoate/methyl_benzoate
 Hartree-Fock type      HFTyp           .... RHF
 Total Charge           Charge          ....    0
 Multiplicity           Mult            ....    1
 Number of Electrons    NEL             ....   52
 Basis Dimension        Dim             ....  170
 Nuclear Repulsion      ENuc            ....    248.6797236626 Eh

Convergence Acceleration:
 AO-DIIS                CNVDIIS         .... on
   Start iteration      DIISMaxIt       ....    12
   Startup error        DIISStart       ....  0.200000
   # of expansion vecs  DIISMaxEq       ....     5
   Bias factor          DIISBfac        ....   1.050
   Max. coefficient     DIISMaxC        ....  10.000
 MO-DIIS                CNVKDIIS        .... off
 Trust-Rad. Augm. Hess. CNVTRAH         .... auto
   Auto Start mean grad. ratio tolernc. ....  1.125000
   Auto Start start iteration           ....    50
   Auto Start num. interpolation iter.  ....    10
   Max. Number of Micro iterations      ....    24
   Max. Number of Macro iterations      .... Maxiter - #DIIS iter
   Number of Davidson start vectors     ....     2
   Converg. threshold    (grad. norm)   ....   1.000e-05
   Grad. Scal. Fac. for Micro threshold ....   0.100
   Minimum threshold for Micro iter.    ....   1.000e-02
   NR start threshold (gradient norm)   ....   1.000e-04
   Initial trust radius                 ....   0.400
   Minimum AH scaling param. (alpha)    ....   1.000
   Maximum AH scaling param. (alpha)    .... 1000.000
   Quad. conv. algorithm                .... NR
   White noise on init. David. guess    .... on
   Maximum white noise                  ....   0.010
   Pseudo random numbers                .... off
   Inactive MOs                         .... canonical
   Orbital update algorithm             .... Taylor
   Preconditioner                       .... Diag
   Full preconditioner red. dimension   ....   250
 SOSCF                  CNVSOSCF        .... on
   Start iteration      SOSCFMaxIt      ....   150
   Startup grad/error   SOSCFStart      ....  0.003300
   Hessian update       SOSCFHessUp     .... L-BFGS
 Level Shifting         CNVShift        .... on
   Level shift para.    LevelShift      ....    0.2500
   Turn off err/grad.   ShiftErr        ....    0.0010
 Zerner damping         CNVZerner       .... off
 Static damping         CNVDamp         .... on
   Fraction old density DampFac         ....    0.7000
   Max. Damping (<1)    DampMax         ....    0.9800
   Min. Damping (>=0)   DampMin         ....    0.0000
   Turn off err/grad.   DampErr         ....    0.1000

SCF Procedure:
 Maximum # iterations   MaxIter         ....   125
 SCF integral mode      SCFMode         .... Direct
   Integral package                     .... SHARK and LIBINT hybrid scheme
 Reset frequency        DirectResetFreq ....    20
 Integral Threshold     Thresh          ....  2.500e-11 Eh
 Primitive CutOff       TCut            ....  2.500e-12 Eh

Convergence Tolerance:
 Convergence Check Mode ConvCheckMode   .... Total+1el-Energy
 Convergence forced     ConvForced      .... 0
 Energy Change          TolE            ....  1.000e-08 Eh
 1-El. energy change                    ....  1.000e-05 Eh
 Orbital Gradient       TolG            ....  1.000e-05
 Orbital Rotation angle TolX            ....  1.000e-05
 DIIS Error             TolErr          ....  5.000e-07

------------------------------
INITIAL GUESS: MODEL POTENTIAL
------------------------------
Loading Hartree-Fock densities                     ... done
Atomic calculation to generate a density for atom 0 (C  with ECP)
  Multiplicity assumed   :    1
  Atomic configuration   : 1s2 2s2 2p2 
  Number of open shells  : 1
  Command: /home/aspe232/Project/Software/ORCA/6_0_1/build/orca ./output/methyl_benzoate/methyl_benzoate_atom6.inp "" > ./output/methyl_benzoate/methyl_benzoate_atom6.out
Returned from the atomic calculation with res=0
Atomic calculation to generate a density for atom 1 (O  with ECP)
  Multiplicity assumed   :    3
  Atomic configuration   : 1s2 2s2 2p4 
  Number of open shells  : 1
  Command: /home/aspe232/Project/Software/ORCA/6_0_1/build/orca ./output/methyl_benzoate/methyl_benzoate_atom8.inp "" > ./output/methyl_benzoate/methyl_benzoate_atom8.out
Returned from the atomic calculation with res=0
Calculating cut-offs                               ... done
Initializing the effective Hamiltonian             ... done
Setting up the integral package (SHARK)            ... done
Starting the Coulomb interaction                   ... done (   0.0 sec)
Making the grid                                    ... done (   0.7 sec)
Mapping shells                                     ... done
Starting the XC term evaluation                    ... done (   0.0 sec)
  promolecular density results
     # of electrons  =     71.997632850
     EX              =    -40.308603850
     EC              =     -2.981605194
     EX+EC           =    -43.290209044
Transforming the Hamiltonian                       ... done (   0.0 sec)
Diagonalizing the Hamiltonian                      ... done (   0.0 sec)
Back transforming the eigenvectors                 ... done (   0.0 sec)
Now organizing SCF variables                       ... done
                      ------------------
                      INITIAL GUESS DONE (   1.8 sec)
                      ------------------
             **** ENERGY FILE WAS UPDATED (./output/methyl_benzoate/methyl_benzoate.en.tmp) ****
Finished Guess after   2.2 sec
Maximum memory used throughout the entire GUESS-calculation: 14.5 MB


           ************************************************************
           *        Program running with 40 parallel MPI-processes    *
           *              working on a common directory               *
           ************************************************************

-------------------------------------------------------------------------------------------
                                      ORCA LEAN-SCF
                              memory conserving SCF solver
-------------------------------------------------------------------------------------------

----------------------------------------D-I-I-S--------------------------------------------
Iteration    Energy (Eh)           Delta-E    RMSDP     MaxDP     DIISErr   Damp  Time(sec)
-------------------------------------------------------------------------------------------
               ***  Starting incremental Fock matrix formation  ***
    1    -82.1965116564397533     0.00e+00  4.19e-03  8.85e-02  2.00e-01  0.700   2.8
    2    -82.3057938753243263    -1.09e-01  3.10e-03  5.82e-02  1.01e-01  0.700   2.3
                               ***Turning on AO-DIIS***
    3    -82.3612509079518702    -5.55e-02  1.83e-03  3.05e-02  5.57e-02  0.700   2.3
    4    -82.3947423161921222    -3.35e-02  3.93e-03  6.86e-02  3.50e-02  0.000   2.3
    5    -82.4669629703928706    -7.22e-02  2.92e-04  8.49e-03  8.96e-03  0.000   2.1
    6    -82.4672129728440098    -2.50e-04  1.21e-04  4.01e-03  3.75e-03  0.000   2.3
                              *** Initializing SOSCF ***
---------------------------------------S-O-S-C-F--------------------------------------
Iteration    Energy (Eh)           Delta-E    RMSDP     MaxDP     MaxGrad    Time(sec)
--------------------------------------------------------------------------------------
    7    -82.4672642930778750    -5.13e-05  7.14e-05  2.46e-03  1.58e-03     2.2
               *** Restarting incremental Fock matrix formation ***
    8    -82.4673779715901389    -1.14e-04  4.51e-05  1.21e-03  4.00e-04     2.4
    9    -82.4673825797101188    -4.61e-06  4.41e-05  1.79e-03  3.20e-04     2.8
   10    -82.4673833168036765    -7.37e-07  1.72e-05  6.55e-04  2.39e-04     2.4
   11    -82.4673839800889539    -6.63e-07  4.04e-06  1.15e-04  2.61e-05     2.5
   12    -82.4673839823155106    -2.23e-09  1.73e-06  5.21e-05  1.69e-05     2.7
                 **** Energy Check signals convergence ****

               *****************************************************
               *                     SUCCESS                       *
               *           SCF CONVERGED AFTER  12 CYCLES          *
               *****************************************************

Recomputing exchange energy using gridx3       ... done (    1.942 sec)
Old exchange energy                            :    -10.205957259 Eh
New exchange energy                            :    -10.205951730 Eh
Exchange energy change after final integration :      0.000005530 Eh
Total energy after final integration           :    -82.467378453 Eh
             **** ENERGY FILE WAS UPDATED (./output/methyl_benzoate/methyl_benzoate.en.tmp) ****

----------------
TOTAL SCF ENERGY
----------------

Total Energy       :        -82.46737845273167 Eh           -2244.05145 eV

Components:
Nuclear Repulsion  :        248.67972366255876 Eh            6766.91930 eV
Electronic Energy  :       -331.14710764487427 Eh           -9010.97091 eV
One Electron Energy:       -620.54724873261807 Eh          -16885.94910 eV
Two Electron Energy:        289.40014108774380 Eh            7874.97820 eV

Virial components:
Potential Energy   :       -145.75019823564608 Eh           -3966.06452 eV
Kinetic Energy     :         63.28281978291441 Eh            1722.01307 eV
Virial Ratio       :          2.30315587604389

DFT components:
N(Alpha)           :       26.000009777425 electrons
N(Beta)            :       26.000009777425 electrons
N(Total)           :       52.000019554849 electrons
E(X)               :      -11.607879557494 Eh       
E(C)               :       -2.006998755721 Eh       
E(XC)              :      -13.614878313215 Eh       

---------------
SCF CONVERGENCE
---------------

  Last Energy change         ...    2.2266e-09  Tolerance :   1.0000e-08
  Last MAX-Density change    ...    5.2092e-05  Tolerance :   1.0000e-07
  Last RMS-Density change    ...    1.7272e-06  Tolerance :   5.0000e-09
  Last DIIS Error            ...    1.5808e-03  Tolerance :   5.0000e-07
  Last Orbital Gradient      ...    1.6897e-05  Tolerance :   1.0000e-05
  Last Orbital Rotation      ...    2.8663e-05  Tolerance :   1.0000e-05


----------------
ORBITAL ENERGIES
----------------

  NO   OCC          E(Eh)            E(eV) 
   0   2.0000      -1.214078       -33.0367 
   1   2.0000      -1.121826       -30.5264 
   2   2.0000      -1.016296       -27.6548 
   3   2.0000      -0.921646       -25.0793 
   4   2.0000      -0.900805       -24.5121 
   5   2.0000      -0.858467       -23.3601 
   6   2.0000      -0.772257       -21.0142 
   7   2.0000      -0.748247       -20.3608 
   8   2.0000      -0.696460       -18.9516 
   9   2.0000      -0.663699       -18.0602 
  10   2.0000      -0.618517       -16.8307 
  11   2.0000      -0.598356       -16.2821 
  12   2.0000      -0.595128       -16.1942 
  13   2.0000      -0.577923       -15.7261 
  14   2.0000      -0.563941       -15.3456 
  15   2.0000      -0.548882       -14.9358 
  16   2.0000      -0.539457       -14.6794 
  17   2.0000      -0.524425       -14.2703 
  18   2.0000      -0.484001       -13.1703 
  19   2.0000      -0.479164       -13.0387 
  20   2.0000      -0.471403       -12.8275 
  21   2.0000      -0.454714       -12.3734 
  22   2.0000      -0.411200       -11.1893 
  23   2.0000      -0.388798       -10.5797 
  24   2.0000      -0.364557        -9.9201 
  25   2.0000      -0.362456        -9.8629 
  26   0.0000       0.008715         0.2371 
  27   0.0000       0.052911         1.4398 
  28   0.0000       0.081348         2.2136 
  29   0.0000       0.092441         2.5155 
  30   0.0000       0.104670         2.8482 
  31   0.0000       0.116649         3.1742 
  32   0.0000       0.123981         3.3737 
  33   0.0000       0.133031         3.6200 
  34   0.0000       0.147533         4.0146 
  35   0.0000       0.151518         4.1230 
  36   0.0000       0.157629         4.2893 
*Only the first 10 virtual orbitals were printed.

                    ********************************
                    * MULLIKEN POPULATION ANALYSIS *
                    ********************************

-----------------------
MULLIKEN ATOMIC CHARGES
-----------------------
   0 C :    0.090204
   1 O :   -0.335329
   2 C :    0.277395
   3 O :   -0.369178
   4 C :   -0.055889
   5 C :    0.040995
   6 C :   -0.006098
   7 C :   -0.000640
   8 C :   -0.008658
   9 C :    0.037917
  10 H :    0.058296
  11 H :    0.062377
  12 H :    0.058574
  13 H :    0.039885
  14 H :    0.026973
  15 H :    0.023396
  16 H :    0.024554
  17 H :    0.035225
Sum of atomic charges:    0.0000000

--------------------------------
MULLIKEN REDUCED ORBITAL CHARGES
--------------------------------
  0 C s       :     0.986448  s :     0.986448
      pz      :     1.072078  p :     2.813156
      px      :     0.689256
      py      :     1.051821
      dz2     :     0.016034  d :     0.110192
      dxz     :     0.025730
      dyz     :     0.017298
      dx2y2   :     0.020933
      dxy     :     0.030197

  1 O s       :     1.701740  s :     1.701740
      pz      :     1.778241  p :     4.597283
      px      :     1.204515
      py      :     1.614526
      dz2     :     0.004436  d :     0.036306
      dxz     :     0.006014
      dyz     :     0.003918
      dx2y2   :     0.007208
      dxy     :     0.014730

  2 C s       :     1.129931  s :     1.129931
      pz      :     0.707957  p :     2.347396
      px      :     0.864436
      py      :     0.775004
      dz2     :     0.011426  d :     0.245278
      dxz     :     0.029216
      dyz     :     0.053296
      dx2y2   :     0.063081
      dxy     :     0.088258

  3 O s       :     1.796225  s :     1.796225
      pz      :     1.432020  p :     4.539298
      px      :     1.801659
      py      :     1.305619
      dz2     :     0.003471  d :     0.033655
      dxz     :     0.000851
      dyz     :     0.011762
      dx2y2   :     0.010115
      dxy     :     0.007456

  4 C s       :     1.020720  s :     1.020720
      pz      :     1.051412  p :     2.924647
      px      :     0.865894
      py      :     1.007342
      dz2     :     0.006810  d :     0.110521
      dxz     :     0.013314
      dyz     :     0.021145
      dx2y2   :     0.037557
      dxy     :     0.031695

  5 C s       :     1.024608  s :     1.024608
      pz      :     0.890478  p :     2.841525
      px      :     0.954526
      py      :     0.996521
      dz2     :     0.004913  d :     0.092872
      dxz     :     0.021832
      dyz     :     0.008147
      dx2y2   :     0.031247
      dxy     :     0.026733

  6 C s       :     1.008881  s :     1.008881
      pz      :     0.963950  p :     2.904619
      px      :     0.969639
      py      :     0.971029
      dz2     :     0.004967  d :     0.092598
      dxz     :     0.013544
      dyz     :     0.014030
      dx2y2   :     0.024144
      dxy     :     0.035914

  7 C s       :     1.019450  s :     1.019450
      pz      :     0.925284  p :     2.886208
      px      :     0.983809
      py      :     0.977114
      dz2     :     0.005611  d :     0.094983
      dxz     :     0.008754
      dyz     :     0.020293
      dx2y2   :     0.032395
      dxy     :     0.027930

  8 C s       :     1.008283  s :     1.008283
      pz      :     0.964215  p :     2.907959
      px      :     0.964589
      py      :     0.979155
      dz2     :     0.004857  d :     0.092416
      dxz     :     0.019564
      dyz     :     0.007925
      dx2y2   :     0.033699
      dxy     :     0.026371

  9 C s       :     1.018359  s :     1.018359
      pz      :     0.904030  p :     2.850027
      px      :     0.970845
      py      :     0.975153
      dz2     :     0.005058  d :     0.093697
      dxz     :     0.015029
      dyz     :     0.015110
      dx2y2   :     0.023957
      dxy     :     0.034544

 10 H s       :     0.900925  s :     0.900925
      pz      :     0.021498  p :     0.040779
      px      :     0.006179
      py      :     0.013103

 11 H s       :     0.896797  s :     0.896797
      pz      :     0.011387  p :     0.040826
      px      :     0.009900
      py      :     0.019538

 12 H s       :     0.900643  s :     0.900643
      pz      :     0.018094  p :     0.040783
      px      :     0.005797
      py      :     0.016892

 13 H s       :     0.909291  s :     0.909291
      pz      :     0.013064  p :     0.050823
      px      :     0.011323
      py      :     0.026436

 14 H s       :     0.923601  s :     0.923601
      pz      :     0.014265  p :     0.049426
      px      :     0.018229
      py      :     0.016932

 15 H s       :     0.927514  s :     0.927514
      pz      :     0.013377  p :     0.049090
      px      :     0.024695
      py      :     0.011018

 16 H s       :     0.925899  s :     0.925899
      pz      :     0.014429  p :     0.049547
      px      :     0.010072
      py      :     0.025046

 17 H s       :     0.914174  s :     0.914174
      pz      :     0.013561  p :     0.050601
      px      :     0.019738
      py      :     0.017301



                     *******************************
                     * LOEWDIN POPULATION ANALYSIS *
                     *******************************

----------------------
LOEWDIN ATOMIC CHARGES
----------------------
   0 C :   -0.047327
   1 O :   -0.062909
   2 C :    0.032495
   3 O :   -0.196530
   4 C :   -0.048029
   5 C :    0.006441
   6 C :   -0.039675
   7 C :   -0.026832
   8 C :   -0.042056
   9 C :   -0.007709
  10 H :    0.055418
  11 H :    0.061920
  12 H :    0.055460
  13 H :    0.058722
  14 H :    0.049496
  15 H :    0.049665
  16 H :    0.047979
  17 H :    0.053471

-------------------------------
LOEWDIN REDUCED ORBITAL CHARGES
-------------------------------
  0 C s       :     0.785987  s :     0.785987
      pz      :     1.094849  p :     2.924307
      px      :     0.752716
      py      :     1.076743
      dz2     :     0.050914  d :     0.337034
      dxz     :     0.071987
      dyz     :     0.054968
      dx2y2   :     0.061789
      dxy     :     0.097375

  1 O s       :     1.399257  s :     1.399257
      pz      :     1.681719  p :     4.565545
      px      :     1.274412
      py      :     1.609414
      dz2     :     0.010343  d :     0.098107
      dxz     :     0.019545
      dyz     :     0.006119
      dx2y2   :     0.023685
      dxy     :     0.038415

  2 C s       :     0.781016  s :     0.781016
      pz      :     0.714004  p :     2.521209
      px      :     0.911009
      py      :     0.896195
      dz2     :     0.048664  d :     0.665280
      dxz     :     0.073144
      dyz     :     0.125950
      dx2y2   :     0.181375
      dxy     :     0.236146

  3 O s       :     1.560749  s :     1.560749
      pz      :     1.392085  p :     4.568520
      px      :     1.716849
      py      :     1.459587
      dz2     :     0.008398  d :     0.067260
      dxz     :     0.001284
      dyz     :     0.016480
      dx2y2   :     0.023130
      dxy     :     0.017968

  4 C s       :     0.785534  s :     0.785534
      pz      :     0.933172  p :     2.912300
      px      :     0.956887
      py      :     1.022242
      dz2     :     0.027227  d :     0.350194
      dxz     :     0.036844
      dyz     :     0.056120
      dx2y2   :     0.122245
      dxy     :     0.107759

  5 C s       :     0.803391  s :     0.803391
      pz      :     0.844248  p :     2.895028
      px      :     1.010133
      py      :     1.040646
      dz2     :     0.020454  d :     0.295140
      dxz     :     0.058876
      dyz     :     0.018861
      dx2y2   :     0.108825
      dxy     :     0.088124

  6 C s       :     0.801982  s :     0.801982
      pz      :     0.888810  p :     2.941635
      px      :     1.027669
      py      :     1.025156
      dz2     :     0.020585  d :     0.296059
      dxz     :     0.033950
      dyz     :     0.036526
      dx2y2   :     0.079353
      dxy     :     0.125645

  7 C s       :     0.804472  s :     0.804472
      pz      :     0.857435  p :     2.919675
      px      :     1.039017
      py      :     1.023224
      dz2     :     0.022700  d :     0.302685
      dxz     :     0.019389
      dyz     :     0.055360
      dx2y2   :     0.110971
      dxy     :     0.094265

  8 C s       :     0.801896  s :     0.801896
      pz      :     0.890390  p :     2.943634
      px      :     1.018895
      py      :     1.034350
      dz2     :     0.020368  d :     0.296526
      dxz     :     0.053223
      dyz     :     0.017708
      dx2y2   :     0.117307
      dxy     :     0.087920

  9 C s       :     0.803103  s :     0.803103
      pz      :     0.851515  p :     2.906248
      px      :     1.034554
      py      :     1.020178
      dz2     :     0.021124  d :     0.298358
      dxz     :     0.037714
      dyz     :     0.040724
      dx2y2   :     0.078824
      dxy     :     0.119972

 10 H s       :     0.807526  s :     0.807526
      pz      :     0.063627  p :     0.137055
      px      :     0.027431
      py      :     0.045997

 11 H s       :     0.803650  s :     0.803650
      pz      :     0.042194  p :     0.134430
      px      :     0.033280
      py      :     0.058956

 12 H s       :     0.807486  s :     0.807486
      pz      :     0.056372  p :     0.137054
      px      :     0.026511
      py      :     0.054171

 13 H s       :     0.791109  s :     0.791109
      pz      :     0.039982  p :     0.150169
      px      :     0.038572
      py      :     0.071615

 14 H s       :     0.801394  s :     0.801394
      pz      :     0.044113  p :     0.149110
      px      :     0.053808
      py      :     0.051189

 15 H s       :     0.802210  s :     0.802210
      pz      :     0.041421  p :     0.148125
      px      :     0.068329
      py      :     0.038375

 16 H s       :     0.802515  s :     0.802515
      pz      :     0.044457  p :     0.149506
      px      :     0.036155
      py      :     0.068894

 17 H s       :     0.795712  s :     0.795712
      pz      :     0.041349  p :     0.150817
      px      :     0.057891
      py      :     0.051577



                      *****************************
                      * MAYER POPULATION ANALYSIS *
                      *****************************

  NA   - Mulliken gross atomic population
  ZA   - Total nuclear charge
  QA   - Mulliken gross atomic charge
  VA   - Mayer's total valence
  BVA  - Mayer's bonded valence
  FA   - Mayer's free valence

  ATOM       NA         ZA         QA         VA         BVA        FA
  0 C      3.9098     4.0000     0.0902     3.9249     3.9249     0.0000
  1 O      6.3353     6.0000    -0.3353     2.0383     2.0383     0.0000
  2 C      3.7226     4.0000     0.2774     4.0840     4.0840    -0.0000
  3 O      6.3692     6.0000    -0.3692     2.0003     2.0003     0.0000
  4 C      4.0559     4.0000    -0.0559     4.1332     4.1332    -0.0000
  5 C      3.9590     4.0000     0.0410     4.0827     4.0827    -0.0000
  6 C      4.0061     4.0000    -0.0061     4.0497     4.0497     0.0000
  7 C      4.0006     4.0000    -0.0006     4.0752     4.0752     0.0000
  8 C      4.0087     4.0000    -0.0087     4.0586     4.0586     0.0000
  9 C      3.9621     4.0000     0.0379     4.0500     4.0500    -0.0000
 10 H      0.9417     1.0000     0.0583     1.0236     1.0236     0.0000
 11 H      0.9376     1.0000     0.0624     1.0213     1.0213     0.0000
 12 H      0.9414     1.0000     0.0586     1.0236     1.0236     0.0000
 13 H      0.9601     1.0000     0.0399     1.0524     1.0524    -0.0000
 14 H      0.9730     1.0000     0.0270     1.0435     1.0435     0.0000
 15 H      0.9766     1.0000     0.0234     1.0458     1.0458     0.0000
 16 H      0.9754     1.0000     0.0246     1.0443     1.0443     0.0000
 17 H      0.9648     1.0000     0.0352     1.0505     1.0505    -0.0000

  Mayer bond orders larger than 0.100000
B(  0-C ,  1-O ) :   0.9017 B(  0-C , 10-H ) :   0.9928 B(  0-C , 11-H ) :   0.9990 
B(  0-C , 12-H ) :   0.9927 B(  1-O ,  2-C ) :   1.0941 B(  2-C ,  3-O ) :   1.8632 
B(  2-C ,  4-C ) :   1.0775 B(  4-C ,  5-C ) :   1.4233 B(  4-C ,  9-C ) :   1.4141 
B(  5-C ,  6-C ) :   1.4517 B(  5-C , 13-H ) :   0.9851 B(  6-C ,  7-C ) :   1.4339 
B(  6-C , 14-H ) :   0.9926 B(  7-C ,  8-C ) :   1.4449 B(  7-C , 15-H ) :   0.9958 
B(  8-C ,  9-C ) :   1.4469 B(  8-C , 16-H ) :   0.9927 B(  9-C , 17-H ) :   0.9847 


-------
TIMINGS
-------

Total SCF time: 0 days 0 hours 0 min 34 sec 

Total time                  ....      34.412 sec
Sum of individual times     ....      32.797 sec  ( 95.3%)

SCF preparation             ....       1.654 sec  (  4.8%)
Fock matrix formation       ....      29.753 sec  ( 86.5%)
  Startup                   ....       0.267 sec  (  0.9% of F)
  Split-RI-J                ....       1.015 sec  (  3.4% of F)
  Chain of spheres X        ....      11.661 sec  ( 39.2% of F)
  XC integration            ....      16.092 sec  ( 54.1% of F)
    XC Preparation          ....       0.000 sec  (  0.0% of XC)
    Basis function eval.    ....       0.303 sec  (  1.9% of XC)
    Density eval.           ....       0.098 sec  (  0.6% of XC)
    XC-Functional eval.     ....       0.134 sec  (  0.8% of XC)
    XC-Potential eval.      ....       0.159 sec  (  1.0% of XC)
Diagonalization             ....       0.000 sec  (  0.0%)
Density matrix formation    ....       0.329 sec  (  1.0%)
Total Energy calculation    ....       0.229 sec  (  0.7%)
Population analysis         ....       0.084 sec  (  0.2%)
Orbital Transformation      ....       0.049 sec  (  0.1%)
Orbital Orthonormalization  ....       0.000 sec  (  0.0%)
DIIS solution               ....       0.522 sec  (  1.5%)
SOSCF solution              ....       0.178 sec  (  0.5%)
Finished LeanSCF after  34.4 sec

Maximum memory used throughout the entire LEANSCF-calculation: 24.9 MB


           ************************************************************
           *        Program running with 40 parallel MPI-processes    *
           *              working on a common directory               *
           ************************************************************

------------------------------------------------------------------------------
                         ORCA PROPERTY INTEGRAL CALCULATIONS
------------------------------------------------------------------------------

GBWName                                   ... ./output/methyl_benzoate/methyl_benzoate.gbw
Number of atoms                           ...     18
Number of basis functions                 ...    170
Max core memory                           ...   1024 MB

Dipole integrals                          ... YES
Quadrupole integrals                      ...  NO
Linear momentum integrals                 ...  NO
Angular momentum integrals                ...  NO
Higher moments length integrals           ...  NO
Higher moments velocity integrals         ...  NO
Kinetic energy integrals                  ...  NO
GIAO right hand sides                     ...  NO
GIAO dipole derivative integrals          ...  NO
SOC integrals                             ...  NO
EPR diamagnetic integrals (GIAO)          ...  NO
EPR gauge integrals                       ...  NO
Field gradient integrals                  ...  NO (   0 nuclei)
Spin-dipole/Fermi contact integrals       ...  NO (   0 nuclei)
Contact density integrals                 ...  NO (   0 nuclei)
Nucleus-orbit integrals                   ...  NO (   0 nuclei)
Geometric perturbations                   ...  NO (  18 nuclei)

Choice of electric origin   ... Center of mass
Position of electric origin ... (  0.0003, -0.2745, -0.0779) 
Choice of magnetic origin   ... GIAO
Position of magnetic origin ... (  0.0000,  0.0000,  0.0000) 

Calculating integrals                     ... Electric Dipole (Length)     done (  0.0 sec)

Property integrals calculated in   0.0 sec

Maximum memory used throughout the entire PROPINT-calculation: 12.0 MB


-------------------------------------------------------------------------------
                          DFT DISPERSION CORRECTION                            
                                                                               
                                DFTD4 V3.4.0                                   
-------------------------------------------------------------------------------
The wB97X-3c composite method is recognized
Using three-body term ABC
Active option DFTDOPT                   ...         5   

-------------------------   ----------------
Dispersion correction           -0.021214010
-------------------------   ----------------


-------------------------   --------------------
FINAL SINGLE POINT ENERGY       -82.488592462837
-------------------------   --------------------



           ************************************************************
           *        Program running with 40 parallel MPI-processes    *
           *              working on a common directory               *
           ************************************************************
------------------------------------------------------------------------------
                         ORCA SCF GRADIENT CALCULATION
------------------------------------------------------------------------------

Nuc. rep. gradient        (SHARK) ... done (  0.0 sec)
HCore & Overlap gradient  (SHARK) ... done (  0.0 sec)
ECP gradient              (SHARK) ... done (  0.2 sec)
Split-RIJ-J gradient      (SHARK) ... done (  0.3 sec)
COSX-gradient                     ... done (  3.3 sec)
XC gradient                       ... done (  1.1 sec)
Dispersion correction             ... done (  0.1 sec)

-------------------
DISPERSION GRADIENT
-------------------

   1   C   :    0.000497010    0.000067966    0.000025940
   2   O   :    0.000375069    0.000117708    0.000028985
   3   C   :    0.000287560   -0.000201005   -0.000019037
   4   O   :    0.000153120   -0.000485468   -0.000063748
   5   C   :    0.000099766   -0.000085877   -0.000008891
   6   C   :   -0.000227901   -0.000467220   -0.000073667
   7   C   :   -0.000472890   -0.000302667   -0.000058397
   8   C   :   -0.000492167    0.000147936    0.000004804
   9   C   :   -0.000210762    0.000522607    0.000067116
  10   C   :    0.000024099    0.000522323    0.000074784
  11   H   :    0.000095968    0.000026555   -0.000011409
  12   H   :    0.000065153    0.000020634    0.000005061
  13   H   :    0.000094790    0.000021471    0.000024474
  14   H   :   -0.000036056   -0.000170137   -0.000025285
  15   H   :   -0.000114493   -0.000097911   -0.000017628
  16   H   :   -0.000140900    0.000044287    0.000001649
  17   H   :   -0.000038169    0.000144063    0.000019156
  18   H   :    0.000040803    0.000174734    0.000026092

Difference to translation invariance:
           :   -0.0000000000    0.0000000000   -0.0000000000

Difference to rotation invariance:
           :   -0.0000000000    0.0000000000   -0.0000000000

Norm of the Dispersion gradient    ...    0.0015579357
RMS gradient                       ...    0.0002120082
MAX gradient                       ...    0.0005226069

------------------
CARTESIAN GRADIENT
------------------

   1   C   :   -0.005577130    0.018718394    0.002461601
   2   O   :    0.048834545    0.005300747    0.002352300
   3   C   :   -0.063542029    0.078767824    0.009065078
   4   O   :    0.014598039   -0.081904066   -0.011114759
   5   C   :    0.007667352   -0.024737641   -0.003245512
   6   C   :    0.002228451   -0.008321709   -0.001112003
   7   C   :   -0.013786090   -0.008601010   -0.001672264
   8   C   :   -0.011772776    0.002486252   -0.000037727
   9   C   :   -0.004021766    0.012718731    0.001667805
  10   C   :    0.011666923    0.006578248    0.001314478
  11   H   :    0.003559473   -0.004103097   -0.013772659
  12   H   :    0.015874675    0.009045199    0.001813485
  13   H   :    0.002716212   -0.007793603    0.012292195
  14   H   :   -0.004023595   -0.003150146   -0.000569301
  15   H   :   -0.001799509   -0.000212052   -0.000097829
  16   H   :   -0.000809498    0.000182905   -0.000008640
  17   H   :   -0.000853746    0.001122962    0.000133401
  18   H   :   -0.000959531    0.003902062    0.000530351

Difference to translation invariance:
           :   -0.0000000000   -0.0000000000   -0.0000000000

Difference to rotation invariance:
           :    0.0000204434   -0.0001134170   -0.0002579564

Norm of the Cartesian gradient     ...    0.1500985910
RMS gradient                       ...    0.0204258311
MAX gradient                       ...    0.0819040661

-------
TIMINGS
-------

Total SCF gradient time     ....        5.016 sec

Densities                   ....       0.001 sec  (  0.0%)
One electron gradient       ....       0.028 sec  (  0.6%)
RI-J Coulomb gradient       ....       0.277 sec  (  5.5%)
COSX gradient               ....       3.295 sec  ( 65.7%)
XC gradient                 ....       1.113 sec  ( 22.2%)

Maximum memory used throughout the entire SCFGRAD-calculation: 31.8 MB
------------------------------------------------------------------------------
                         ORCA GEOMETRY RELAXATION STEP
------------------------------------------------------------------------------

Reading the OPT-File                    .... done
Getting information on internals        .... done
Copying old internal coords+grads       .... done
Making the new internal coordinates     .... (2022 redundants) done
Validating the new internal coordinates .... (2022 redundants) done
Calculating the B-matrix                .... done
Calculating the G,G- and P matrices     .... done
Transforming gradient to internals      .... done
Projecting the internal gradient        .... done
Number of atoms                         ....  18
Number of internal coordinates          ....  79
Current Energy                          ....   -82.488592463 Eh
Current gradient norm                   ....     0.150098591 Eh/bohr
Maximum allowed component of the step   ....  0.300
Current trust radius                    ....  0.300
Evaluating the initial hessian          ....  (Almloef) done
Projecting the Hessian                  .... done
Forming the augmented Hessian           .... done
Diagonalizing the augmented Hessian     .... done
Last element of RFO vector              ....  0.976496455
Lowest eigenvalues of augmented Hessian:
 -0.027092581  0.013769303  0.016216651  0.019489057  0.020637538
Length of the computed step             ....  0.220721193
The final length of the internal step   ....  0.220721193
Converting the step to Cartesian space:
 Initial RMS(Int)=    0.0248330744
Transforming coordinates:
 Iter   0:  RMS(Cart)=    0.0834571171 RMS(Int)=    1.7317100256
 Iter   5:  RMS(Cart)=    0.0000000133 RMS(Int)=    0.0000000041
done
Storing new coordinates                 .... done

                                .--------------------.
          ----------------------|Geometry convergence|-------------------------
          Item                value                   Tolerance       Converged
          ---------------------------------------------------------------------
          RMS gradient        0.0145491571            0.0001000000      NO
          MAX gradient        0.0838189114            0.0003000000      NO
          RMS step            0.0248330744            0.0020000000      NO
          MAX step            0.1103192921            0.0040000000      NO
          ........................................................
          Max(Bonds)      0.0584      Max(Angles)    5.00
          Max(Dihed)        0.13      Max(Improp)    0.00
          ---------------------------------------------------------------------

The optimization has not yet converged - more geometry cycles are needed


    ---------------------------------------------------------------------------
                         Redundant Internal Coordinates
                            (Angstroem and degrees)

        Definition                    Value    dE/dq     Step     New-Value
    ----------------------------------------------------------------------------
     1. B(O   1,C   0)                1.4225  0.012083 -0.0122    1.4103   
     2. B(C   2,O   1)                1.3993  0.062654 -0.0584    1.3409   
     3. B(O   3,C   2)                1.2623  0.083819 -0.0481    1.2142   
     4. B(C   4,C   2)                1.4797  0.010359 -0.0115    1.4682   
     5. B(C   5,C   4)                1.4079  0.021448 -0.0187    1.3892   
     6. B(C   6,C   5)                1.3985  0.017576 -0.0147    1.3837   
     7. B(C   7,C   6)                1.3967  0.010704 -0.0088    1.3879   
     8. B(C   8,C   7)                1.3967  0.012805 -0.0105    1.3862   
     9. B(C   9,C   8)                1.3985  0.016242 -0.0136    1.3850   
    10. B(C   9,C   4)                1.4070  0.017341 -0.0151    1.3919   
    11. B(H  10,C   0)                1.1106  0.014647 -0.0215    1.0891   
    12. B(H  11,C   0)                1.1093  0.016449 -0.0240    1.0853   
    13. B(H  12,C   0)                1.1106  0.014644 -0.0215    1.0891   
    14. B(H  13,C   5)                1.0828  0.002343 -0.0031    1.0797   
    15. B(H  14,C   6)                1.0824  0.001478 -0.0020    1.0804   
    16. B(H  15,C   7)                1.0824  0.000827 -0.0011    1.0813   
    17. B(H  16,C   8)                1.0824  0.001290 -0.0017    1.0807   
    18. B(H  17,C   9)                1.0827  0.002045 -0.0027    1.0800   
    19. A(H  10,C   0,H  12)          109.77  0.001486   -0.21    109.56   
    20. A(O   1,C   0,H  12)          110.02 -0.002531    0.39    110.41   
    21. A(H  11,C   0,H  12)          108.91 -0.004494    0.75    109.66   
    22. A(O   1,C   0,H  11)          109.18  0.012597   -2.07    107.11   
    23. A(O   1,C   0,H  10)          110.02 -0.002554    0.40    110.42   
    24. A(H  10,C   0,H  11)          108.91 -0.004480    0.74    109.66   
    25. A(C   0,O   1,C   2)          122.68  0.037445   -5.00    117.68   
    26. A(O   1,C   2,C   4)          119.88  0.029239   -3.82    116.06   
    27. A(O   1,C   2,O   3)          120.00 -0.009399    1.25    121.24   
    28. A(O   3,C   2,C   4)          120.13 -0.019839    2.57    122.70   
    29. A(C   5,C   4,C   9)          118.97 -0.006063    0.74    119.71   
    30. A(C   2,C   4,C   5)          120.71  0.009729   -1.26    119.45   
    31. A(C   2,C   4,C   9)          120.32 -0.003666    0.51    120.84   
    32. A(C   4,C   5,C   6)          120.38  0.002796   -0.40    119.99   
    33. A(C   6,C   5,H  13)          118.82 -0.006080    0.91    119.73   
    34. A(C   4,C   5,H  13)          120.80  0.003284   -0.51    120.29   
[...]
     34      -0.007796   0.731401   0.005390  -0.005414   0.000486  -0.004862
     35      -0.001268   0.119089   0.000880  -0.000881   0.000087  -0.000793
     36       0.000770  -0.059263  -0.000206   0.000227   0.000305   0.000100
     37      -0.002603   0.213490   0.001026  -0.000995  -0.000648  -0.000744
     38       0.003163  -0.261968  -0.001298   0.001295   0.000711   0.000871
     39      -0.029366   0.000064   0.060291   0.084684   0.213150   0.017877
     40       0.122188   0.000192  -0.250244  -0.347594  -0.846830  -0.072689
     41       0.016360   0.000029  -0.033495  -0.046499  -0.113065  -0.009718
     42      -0.334774  -0.005471   0.483564   0.288077  -0.305086  -0.053626
     43      -0.308284  -0.005024   0.449199   0.273147  -0.279716  -0.050166
     44      -0.054152  -0.000884   0.078769   0.047698  -0.049191  -0.008786
     45       0.686997   0.011558  -0.014831   0.634798  -0.147428  -0.098887
     46      -0.208638  -0.003475  -0.000537  -0.192446   0.046687   0.028617
     47      -0.007886  -0.000128  -0.000540  -0.007250   0.001966   0.000937
     48      -0.113095  -0.000012  -0.151794   0.100414  -0.006390  -0.073612
     49       0.471202  -0.000416   0.644099  -0.441830   0.032856   0.299431
     50       0.062955  -0.000059   0.086141  -0.059216   0.004435   0.039952
     51      -0.079988   0.005247  -0.140254   0.166858  -0.097679   0.683984
     52      -0.075210   0.004959  -0.132044   0.156507  -0.089659   0.627338
     53      -0.013152   0.000867  -0.023091   0.027396  -0.015765   0.110331


-----------
IR SPECTRUM
-----------

 Mode   freq       eps      Int      T**2         TX        TY        TZ
       cm**-1   L/(mol*cm) km/mol    a.u.
----------------------------------------------------------------------------
  6:     52.60   0.000378    1.91  0.002243  ( 0.001427  0.006771 -0.046855)
  7:    110.30   0.000427    2.16  0.001209  (-0.001157 -0.004706  0.034425)
  8:    159.18   0.000007    0.04  0.000014  ( 0.000062  0.000355 -0.003724)
  9:    170.68   0.000460    2.33  0.000842  (-0.003418  0.028555  0.003831)
 10:    210.30   0.000514    2.60  0.000763  (-0.000872 -0.003872  0.027343)
 11:    339.53   0.003356   16.96  0.003085  ( 0.049321  0.024998  0.005212)
 12:    368.09   0.000049    0.25  0.000041  ( 0.005822  0.002678  0.000604)
 13:    420.05   0.000000    0.00  0.000000  ( 0.000054  0.000015 -0.000371)
 14:    459.59   0.000111    0.56  0.000075  (-0.000392 -0.001128  0.008598)
 15:    495.21   0.001019    5.15  0.000642  ( 0.021972 -0.012581 -0.000955)
 16:    642.60   0.000070    0.35  0.000034  (-0.005469 -0.001938 -0.000472)
 17:    704.55   0.001508    7.62  0.000668  (-0.024800  0.007275  0.000107)
 18:    715.82   0.003198   16.16  0.001394  (-0.001268 -0.005209  0.036950)
 19:    738.75   0.021162  106.95  0.008939  ( 0.002963  0.013300 -0.093561)
 20:    843.56   0.000020    0.10  0.000007  ( 0.000010 -0.000374  0.002684)
 21:    862.42   0.001743    8.81  0.000631  ( 0.012080 -0.021853 -0.002710)
 22:    885.68   0.000004    0.02  0.000001  ( 0.000065  0.000187 -0.001182)
 23:    984.73   0.000285    1.44  0.000090  ( 0.000319  0.001344 -0.009402)
 24:   1026.61   0.000005    0.03  0.000002  ( 0.000031  0.000173 -0.001221)
 25:   1038.01   0.001652    8.35  0.000497  (-0.005299  0.021457  0.002864)
 26:   1040.16   0.000009    0.04  0.000003  (-0.000179 -0.000190  0.001586)
 27:   1044.31   0.000501    2.53  0.000150  (-0.010393  0.006431  0.000549)
 28:   1080.25   0.003713   18.77  0.001073  (-0.031302  0.009631  0.000344)
 29:   1129.09   0.002862   14.46  0.000791  (-0.020504 -0.018964 -0.003316)
 30:   1185.43   0.013948   70.49  0.003672  ( 0.059723  0.009656  0.003405)
 31:   1196.62   0.000316    1.60  0.000082  ( 0.004085  0.008006  0.001263)
 32:   1207.77   0.000147    0.74  0.000038  (-0.000216 -0.000864  0.006101)
 33:   1221.81   0.005182   26.19  0.001323  (-0.036357  0.000543 -0.001149)
 34:   1251.15   0.006715   33.94  0.001675  (-0.037086 -0.016914 -0.003664)
 35:   1351.18   0.028762  145.35  0.006643  (-0.077969 -0.023008 -0.005862)
 36:   1369.47   0.065184  329.41  0.014854  ( 0.121306  0.010382  0.005533)
 37:   1375.64   0.018155   91.75  0.004118  (-0.062119 -0.015533 -0.004285)
 38:   1507.75   0.007181   36.29  0.001486  ( 0.038083 -0.005969  0.000634)
 39:   1517.00   0.002545   12.86  0.000524  (-0.000991 -0.003121  0.022645)
 40:   1523.23   0.004114   20.79  0.000843  ( 0.026029  0.012581  0.002662)
 41:   1529.09   0.003051   15.42  0.000623  ( 0.015033  0.019643  0.003285)
 42:   1571.33   0.001073    5.42  0.000213  (-0.011166 -0.009252 -0.001690)
 43:   1699.25   0.000998    5.04  0.000183  (-0.008146  0.010738  0.001277)
 44:   1719.91   0.002745   13.87  0.000498  (-0.022204  0.002197 -0.000422)
 45:   1860.18   0.063189  319.33  0.010601  (-0.028684  0.098006  0.013138)
 46:   3131.49   0.006671   33.71  0.000665  ( 0.025767  0.000333  0.000877)
 47:   3233.90   0.001339    6.77  0.000129  ( 0.000384  0.001596 -0.011250)
 48:   3251.71   0.000047    0.24  0.000005  (-0.002068  0.000508  0.000030)
 49:   3257.94   0.000799    4.04  0.000077  (-0.005456 -0.006746 -0.001136)
 50:   3264.04   0.001222    6.18  0.000117  (-0.002058 -0.010499 -0.001544)
 51:   3273.54   0.001138    5.75  0.000108  (-0.009897  0.003242  0.000093)
 52:   3285.46   0.000750    3.79  0.000071  ( 0.008347  0.001174  0.000409)
 53:   3291.68   0.000413    2.08  0.000039  ( 0.003645 -0.005049 -0.000585)

* The epsilon (eps) is given for a Dirac delta lineshape.
** The dipole moment derivative (T) already includes vibrational overlap.

The first frequency considered to be a vibration is 6
The total number of vibrations considered is 48


--------------------------
THERMOCHEMISTRY AT 298.15K
--------------------------

Temperature         ...   298.15 K
Pressure            ...     1.00 atm
Total Mass          ...   136.15 AMU
Quasi RRHO          ...     True
Cut-Off Frequency   ...     1.00 cm^-1

Throughout the following assumptions are being made:
  (1) The electronic state is orbitally nondegenerate
  (2) There are no thermally accessible electronically excited states
  (3) Hindered rotations indicated by low frequency modes are not
      treated as such but are treated as vibrations and this may
      cause some error
  (4) All equations used are the standard statistical mechanics
      equations for an ideal gas
  (5) All vibrations are strictly harmonic

freq.      52.60  E(vib)   ...       0.52 
freq.     110.30  E(vib)   ...       0.45 
freq.     159.18  E(vib)   ...       0.39 
freq.     170.68  E(vib)   ...       0.38 
freq.     210.30  E(vib)   ...       0.34 
freq.     339.53  E(vib)   ...       0.23 
freq.     368.09  E(vib)   ...       0.21 
freq.     420.05  E(vib)   ...       0.18 
freq.     459.59  E(vib)   ...       0.16 
freq.     495.21  E(vib)   ...       0.14 
freq.     642.60  E(vib)   ...       0.09 
freq.     704.55  E(vib)   ...       0.07 
freq.     715.82  E(vib)   ...       0.07 
freq.     738.75  E(vib)   ...       0.06 
freq.     843.56  E(vib)   ...       0.04 
freq.     862.42  E(vib)   ...       0.04 
freq.     885.68  E(vib)   ...       0.04 
freq.     984.73  E(vib)   ...       0.02 
freq.    1026.61  E(vib)   ...       0.02 
freq.    1038.01  E(vib)   ...       0.02 
freq.    1040.16  E(vib)   ...       0.02 
freq.    1044.31  E(vib)   ...       0.02 
freq.    1080.25  E(vib)   ...       0.02 
freq.    1129.09  E(vib)   ...       0.01 
freq.    1185.43  E(vib)   ...       0.01 
freq.    1196.62  E(vib)   ...       0.01 
freq.    1207.77  E(vib)   ...       0.01 
freq.    1221.81  E(vib)   ...       0.01 
freq.    1251.15  E(vib)   ...       0.01 
freq.    1351.18  E(vib)   ...       0.01 
freq.    1369.47  E(vib)   ...       0.01 
freq.    1375.64  E(vib)   ...       0.01 
freq.    1507.75  E(vib)   ...       0.00 
freq.    1517.00  E(vib)   ...       0.00 
freq.    1523.23  E(vib)   ...       0.00 
freq.    1529.09  E(vib)   ...       0.00 
freq.    1571.33  E(vib)   ...       0.00 
freq.    1699.25  E(vib)   ...       0.00 
freq.    1719.91  E(vib)   ...       0.00 
freq.    1860.18  E(vib)   ...       0.00 
freq.    3131.49  E(vib)   ...       0.00 
freq.    3233.90  E(vib)   ...       0.00 
freq.    3251.71  E(vib)   ...       0.00 
freq.    3257.94  E(vib)   ...       0.00 
freq.    3264.04  E(vib)   ...       0.00 
freq.    3273.54  E(vib)   ...       0.00 
freq.    3285.46  E(vib)   ...       0.00 
freq.    3291.68  E(vib)   ...       0.00 

------------
INNER ENERGY
------------

The inner energy is: U= E(el) + E(ZPE) + E(vib) + E(rot) + E(trans)
    E(el)   - is the total energy from the electronic structure calculation
              = E(kin-el) + E(nuc-el) + E(el-el) + E(nuc-nuc)
    E(ZPE)  - the the zero temperature vibrational energy from the frequency calculation
    E(vib)  - the the finite temperature correction to E(ZPE) due to population
              of excited vibrational states
    E(rot)  - is the rotational thermal energy
    E(trans)- is the translational thermal energy

Summary of contributions to the inner energy U:
Electronic energy                ...    -82.50691355 Eh
Zero point energy                ...      0.14716655 Eh      92.35 kcal/mol
Thermal vibrational correction   ...      0.00580148 Eh       3.64 kcal/mol
Thermal rotational correction    ...      0.00141627 Eh       0.89 kcal/mol
Thermal translational correction ...      0.00141627 Eh       0.89 kcal/mol
-----------------------------------------------------------------------
Total thermal energy                    -82.35111299 Eh


Summary of corrections to the electronic energy:
(perhaps to be used in another calculation)
Total thermal correction                  0.00863402 Eh       5.42 kcal/mol
Non-thermal (ZPE) correction              0.14716655 Eh      92.35 kcal/mol
-----------------------------------------------------------------------
Total correction                          0.15580057 Eh      97.77 kcal/mol


--------
ENTHALPY
--------

The enthalpy is H = U + kB*T
                kB is Boltzmann's constant
Total thermal energy              ...    -82.35111299 Eh 
Thermal Enthalpy correction       ...      0.00094421 Eh       0.59 kcal/mol
-----------------------------------------------------------------------
Total Enthalpy                    ...    -82.35016878 Eh


Note: Only C1 symmetry has been detected, increase convergence thresholds 
      if your molecule has a higher symmetry. Symmetry factor of 1.0 is   
      used for the rotational entropy correction. 
 

Note: Rotational entropy computed according to Herzberg 
Infrared and Raman Spectra, Chapter V,1, Van Nostrand Reinhold, 1945 
Point Group:  C1, Symmetry Number:   1  
Rotational constants in cm-1:     0.119521     0.028398     0.023045 

Vibrational entropy computed according to the QRRHO of S. Grimme
Chem.Eur.J. 2012 18 9955 using a reference frequency of 100.0 cm-1


-------
ENTROPY
-------

The entropy contributions are T*S = T*(S(el)+S(vib)+S(rot)+S(trans))
     S(el)   - electronic entropy
     S(vib)  - vibrational entropy
     S(rot)  - rotational entropy
     S(trans)- translational entropy
The entropies will be listed as multiplied by the temperature to get
units of energy

Electronic entropy                ...      0.00000000 Eh      0.00 kcal/mol
Vibrational entropy               ...      0.00991514 Eh      6.22 kcal/mol
Rotational entropy                ...      0.01397489 Eh      8.77 kcal/mol
Translational entropy             ...      0.01930829 Eh     12.12 kcal/mol
-----------------------------------------------------------------------
Final entropy term                ...      0.04319831 Eh     27.11 kcal/mol

In case the symmetry of your molecule has not been determined correctly
or in case you have a reason to use a different symmetry number we print 
out the resulting rotational entropy values for sn=1,12:

 non-linear molecules -----------------------------------
|  sn= 1 | S(rot)=       0.01397489 Eh      8.77 kcal/mol|
|  sn= 2 | S(rot)=       0.01332043 Eh      8.36 kcal/mol|
|  sn= 3 | S(rot)=       0.01293760 Eh      8.12 kcal/mol|
|  sn= 4 | S(rot)=       0.01266598 Eh      7.95 kcal/mol|
|  sn= 5 | S(rot)=       0.01245529 Eh      7.82 kcal/mol|
|  sn= 6 | S(rot)=       0.01228314 Eh      7.71 kcal/mol|
|  sn= 7 | S(rot)=       0.01213760 Eh      7.62 kcal/mol|
|  sn= 8 | S(rot)=       0.01201152 Eh      7.54 kcal/mol|
|  sn= 9 | S(rot)=       0.01190031 Eh      7.47 kcal/mol|
|  sn=10 | S(rot)=       0.01180083 Eh      7.41 kcal/mol|
|  sn=11 | S(rot)=       0.01171084 Eh      7.35 kcal/mol|
|  sn=12 | S(rot)=       0.01162869 Eh      7.30 kcal/mol|
 linear molecules ---------------------------------------
|  Dinfh | S(rot)=       0.00888564 Eh      5.58 kcal/mol|
|  Cinfv | S(rot)=       0.00954010 Eh      5.99 kcal/mol|
 --------------------------------------------------------


-------------------
GIBBS FREE ENERGY
-------------------

The Gibbs free energy is G = H - T*S

Total enthalpy                    ...    -82.35016878 Eh 
Total entropy correction          ...     -0.04319831 Eh    -27.11 kcal/mol
-----------------------------------------------------------------------
Final Gibbs free energy         ...    -82.39336709 Eh

For completeness - the Gibbs free energy minus the electronic energy
G-E(el)                           ...      0.11354646 Eh     71.25 kcal/mol


Maximum memory used throughout the entire PROP-calculation: 70.5 MB

--------------------------------
SUGGESTED CITATIONS FOR THIS RUN
--------------------------------

Below you find a list of papers that are relevant to this ORCA run
We neither can nor want to force you to cite these papers, but we appreciate if you do
You receive ORCA, which is the product of decades of hard work by many enthusiastic individuals, for free
The only thing we kindly ask in return is that you cite our papers,
We deeply appreciate it, if you show your appreciation for ORCA by not just citing the generic ORCA reference.

Please note that relegating all ORCA citations to the supporting information does *not* help us.
SI sections are not indexed - citations you put there will not count into any citation statistics
But we need these citations in order to attract the funding resources that allow us to do what we are doing

Therefore, if you are a happy ORCA user, please consider citing a few of the papers listed below in the main body of your paper

In addition to the list printed below, the program has created the file ./output/methyl_benzoate/methyl_benzoate.bibtex that contains the list in bibtex format
You can import this file easily into all common literature databanks and citation aid programs


List of essential papers. We consider these as the minimum necessary citations

  1. Neese,F.
     Software update: the ORCA program system, version 5.0
     WIRES Comput. Molec. Sci., 2022 12(1)e1606
     doi.org/10.1002/wcms.1606
  2. Mueller,M.; Hansen,A.; Grimme,S.
     wB97X-3c: A composite range-separated hybrid DFT method with a molecule-optimized polarized valence double-zeta basis set
     J. Chem. Phys., 2023 158 014103
     doi.org/10.1063/5.0133026

List of papers to cite with high priority. The work reported in these papers was absolutely
necessary for this run to complete.
Our perspective: the developers of density functionals and basis sets usually get cited in chemistry papers
Good! But without the algorithms to do something with them, the functionals or basis sets would not do anything.
Hence, in our opinion, the algorithm design and method developments papers are equally worthy of getting cited

  1. Neese,F.
     An improvement of the resolution of the identity approximation for the formation of the Coulomb matrix
     J. Comp. Chem., 2003 24(14)1740-1747
     doi.org/10.1002/jcc.10318
  2. Neese,F.; Wennmohs,F.; Hansen,A.; Becker,U.
     Efficient, approximate and parallel Hartree-Fock and hybrid DFT calculations. A 'chain-of-spheres' algorithm for the Hartree-Fock exchange
     Chem. Phys., 2009 356(1-3)98-109
     doi.org/10.1016/j.chemphys.2008.10.036
  3. Bykov,D.; Petrenko,T.; Izsak,R.; Kossmann,S.; Becker,U.; Valeev,E.; Neese,F.
     Efficient implementation of the analytic second derivatives of Hartree-Fock and hybrid DFT energies: a detailed analysis of different approximations
     Molec. Phys., 2015 113 1961-1977
     doi.org/10.1080/00268976.2015.1025114
  4. Helmich-Paris,B.; de Souza,B.; Neese,F.; Izsák,R.
     An improved chain of spheres for exchange algorithm
     J. Chem. Phys., 2021 155 104109
     doi.org/doi: 10.1063/5.0058766.
  5. Neese,F.
     The SHARK Integral Generation and Digestion System
     J. Comp. Chem., 2022  1-16
     doi.org/10.1002/jcc.26942
  6. Caldeweyher,E.; Bannwarth,C.; Grimme,S.
     Extension of the D3 dispersion coefficient model
     J. Chem. Phys., 2017 147 034112
     doi.org/10.1063/1.4993215
  7. Caldeweyher,E.; Ehlert,S.; Hansen,A.; Neugebauer,H.; Spicher,S.; Bannwarth,C.; Grimme,S.
     A generally applicable atomic-charge dependent London dispersion correction
     J. Chem. Phys., 2019 150 154122
     doi.org/10.1063/1.5090222
  8. Caldeweyher,E.; Mewes,J.; Ehlert,S.; Grimme,S.
     Extension and evaluation of the D4 London-dispersion model for periodic systems
     Phys. Chem. Chem. Phys., 2020 22(16)8499-8512
     doi.org/10.1039/D0CP00502A
  9. Wittmann,L.; Gordiy,I.; Friede,M.; Helmich-Paris,B.; Grimme,S.; Hansen,A.; Bursch,M.
     Extension of the D3 and D4 London Dispersion Corrections to the full Actinides Series
     Phys. Chem. Chem. Phys., 2024 26(32)21379-21394
     doi.org/https://doi.org/10.1039/D4CP01514B 

List of suggested additional citations. These are papers that are important in the 'surrounding' of 
of this run, or papers that preceded the highly important papers. If you like your results we are grateful for a citation.

  1. Izsak,R.; Neese,F.
     An overlap fitted chain of spheres exchange method
     J. Chem. Phys., 2011 135 144105
     doi.org/10.1063/1.3646921
  2. Izsak,R.; Hansen,A.; Neese,F.
     The resolution of identity and chain of spheres approximations for the LPNO-CCSD singles Fock term
     Molec. Phys., 2012 110 2413-2417
     doi.org/10.1080/00268976.2012.687466
  3. Neese,F.
     The ORCA program system
     WIRES Comput. Molec. Sci., 2012 2(1)73-78
     doi.org/10.1002/wcms.81
  4. Izsak,R.; Neese,F.; Klopper,W.
     Robust fitting techniques in the chain of spheres approximation to the Fock exchange: The role of the complementary space
     J. Chem. Phys., 2013 139 
     doi.org/10.1063/1.4819264
  5. Neese,F.
     Software update: the ORCA program system, version 4.0
     WIRES Comput. Molec. Sci., 2018 8(1)1-6
     doi.org/10.1002/wcms.1327
  6. Neese,F.; Wennmohs,F.; Becker,U.; Riplinger,C.
     The ORCA quantum chemistry program package
     J. Chem. Phys., 2020 152 Art. No. L224108
     doi.org/10.1063/5.0004608

List of optional additional citations

  1. Neese,F.
     Approximate second-order SCF convergence for spin unrestricted wavefunctions
     Chem. Phys. Lett., 2000 325(1-3)93-98
     doi.org/10.1016/s0009-2614(00)00662-x

Timings for individual modules:

Sum of individual times          ...      368.679 sec (=   6.145 min)
Startup calculation              ...       24.739 sec (=   0.412 min)   6.7 %
SCF iterations                   ...      208.312 sec (=   3.472 min)  56.5 %
Property integrals               ...       24.860 sec (=   0.414 min)   6.7 %
SCF Response                     ...       23.584 sec (=   0.393 min)   6.4 %
Property calculations            ...       46.538 sec (=   0.776 min)  12.6 %
SCF Gradient evaluation          ...       40.556 sec (=   0.676 min)  11.0 %
Geometry relaxation              ...        0.091 sec (=   0.002 min)   0.0 %
                             ****ORCA TERMINATED NORMALLY****
TOTAL RUN TIME: 0 days 0 hours 6 minutes 12 seconds 483 msec
