
                                 *****************
                                 * O   R   C   A *
                                 *****************

                                            #,                                       
                                            ###                                      
                                            ####                                     
                                            #####                                    
                                            ######                                   
                                           ########,                                 
                                     ,,################,,,,,                         
                               ,,#################################,,                 
                          ,,##########################################,,             
                       ,#########################################, ''#####,          
                    ,#############################################,,   '####,        
                  ,##################################################,,,,####,       
                ,###########''''           ''''###############################       
              ,#####''   ,,,,##########,,,,          '''####'''          '####       
            ,##' ,,,,###########################,,,                        '##       
           ' ,,###''''                  '''############,,,                           
         ,,##''                                '''############,,,,        ,,,,,,###''
      ,#''                                            '''#######################'''  
     '                                                          ''''####''''         
             ,#######,   #######,   ,#######,      ##                                
            ,#'     '#,  ##    ##  ,#'     '#,    #''#        ,####,   ,####,        
            ##       ##  ##   ,#'  ##            #'  '#       #'       #'  '#        
            ##       ##  #######   ##           ,######,      #####,   #    #        
            '#,     ,#'  ##    ##  '#,     ,#' ,#      #,     #,   #   #,  ,#        
             '#######'   ##     ##  '#######'  #'      '#     '####' # '####'        



                #########################################################
                #                        -***-                          #
                #          Department of theory and spectroscopy        #
                #                                                       #
                #                      Frank Neese                      #
                #                                                       #
                #     Directorship, Architecture, Infrastructure        #
                #                    SHARK, DRIVERS                     #
                #        Core code/Algorithms in most modules           #
                #                                                       #
                #        Max Planck Institute fuer Kohlenforschung      #
                #                Kaiser Wilhelm Platz 1                 #
                #                 D-45470 Muelheim/Ruhr                 #
                #                      Germany                          #
                #                                                       #
                #                  All rights reserved                  #
                #                        -***-                          #
                #########################################################


                         Program Version 6.0.1  -  RELEASE   -


 With contributions from (in alphabetic order):
[Max-Planck-Institut fuer Kohlenforschung]                               
  Daniel Aravena         : Magnetic Suceptibility                        
  Michael Atanasov       : Ab Initio Ligand Field Theory (pilot matlab implementation)
  Alexander A. Auer      : GIAO ZORA, VPT2 properties, NMR spectrum      
  Ute Becker             : All parallelization in ORCA, NUMFREQ, NUMCALC 
  Giovanni Bistoni       : ED, misc. LED, open-shell LED, HFLD           
  Martin Brehm           : Molecular dynamics                            
  Dmytro Bykov           : pre 5.0 version of the SCF Hessian            
  Marcos Casanova-Páez   : Triplet and SCS-CIS(D). UHF-(DLPNO)-IP/EA/STEOM-CCSD. UHF-CVS-IP/STEOM-CCSD   
  Vijay G. Chilkuri      : MRCI spin determinant printing, contributions to CSF-ICE 
  Pauline Colinet        : FMM embedding                                 
  Dipayan Datta          : RHF DLPNO-CCSD density                        
  Achintya Kumar Dutta   : EOM-CC, STEOM-CC                              
  Nicolas Foglia         : Exact transition moments, OPA infrastructure, MCD improvements    
  Dmitry Ganyushin       : Spin-Orbit,Spin-Spin,Magnetic field MRCI      
  Miquel Garcia-Rates    : C-PCM and meta-GGA Hessian, CCSD/C-PCM, Gaussian charge scheme 
  Tiago L. C. Gouveia    : GS-ROHF, GS-ROCIS                             
  Yang Guo               : DLPNO-NEVPT2, F12-NEVPT2, CIM, IAO-localization        
  Andreas Hansen         : Spin unrestricted coupled pair/coupled cluster methods 
  Ingolf Harden          : AUTO-CI MPn and infrastructure                
  Benjamin Helmich-Paris : MC-RPA, TRAH-(SCF,CASSCF), AVAS, COSX integrals, SCF dyn. polar. 
  Lee Huntington         : MR-EOM, pCC                                   
  Robert Izsak           : Overlap fitted RIJCOSX, COSX-SCS-MP3, EOM     
  Riya Kayal             : Wick's Theorem for AUTO-CI, AUTO-CI UHF-CCSDT 
  Emily Kempfer          : AUTO-CI, RHF CISDT and CCSDT                  
  Christian Kollmar      : KDIIS, OOCD, Brueckner-CCSD(T), CCSD density, CASPT2, CASPT2-K, improved NEVPT2 
  Axel Koslowski         : Symmetry handling                             
  Simone Kossmann        : meta-GGA functionals, TD-DFT gradient, OOMP2, (MP2 Hessian; deprecated post 5.0) 
  Lucas Lang             : DCDCAS                                        
  Marvin Lechner         : AUTO-CI (C++ implementation), FIC-MRCC        
  Spencer Leger          : CASSCF response                               
  Dagmar Lenk            : GEPOL surface, SMD, ORCA-2-JSON               
  Dimitrios Liakos       : Extrapolation schemes; Compound Job, initial MDCI parallelization 
  Dimitrios Manganas     : Further ROCIS development; embedding schemes. LFT, Crystal Embedding 
  Dimitrios Pantazis     : SARC Basis sets                               
  Anastasios Papadopoulos: AUTO-CI, single reference methods and gradients 
  Taras Petrenko         : pre 6.0 DFT Hessian and TD-DFT gradient, (ASA, deprecated), ECA, 1-Electron XAS/XES, NRVS 
  Peter Pinski           : DLPNO-MP2, DLPNO-MP2 Gradient                 
  Christoph Reimann      : Effective Core Potentials                     
  Marius Retegan         : Local ZFS, SOC                                
  Christoph Riplinger    : Optimizer, TS searches, QM/MM, DLPNO-CCSD(T), (RO)-DLPNO pert. Triples 
  Michael Roemelt        : Original ROCIS implementation                 
  Masaaki Saitow         : Open-shell DLPNO-CCSD energy and density      
  Barbara Sandhoefer     : DKH picture change effects                    
  Kantharuban Sivalingam : CASSCF convergence/infrastructure, NEVPT2 and variants, FIC-MRCI 
  Bernardo de Souza      : ESD, SOC TD-DFT                               
  Georgi L. Stoychev     : AutoAux, RI-MP2 NMR, DLPNO-MP2 response, X2C  
  Van Anh Tran           : RI-MP2 g-tensors                              
  Willem Van den Heuvel  : Paramagnetic NMR                              
  Zikuan Wang            : NOTCH, Electric field optimization            
  Frank Wennmohs         : Technical directorship and infrastructure     
  Hang Xu                : AUTO-CI-Response properties                   
                                                                         
[FACCTs GmbH]                                                            
  Markus Bursch, Miquel Garcia-Rates, Christoph Riplinger, Bernardo de Souza, Georgi L. Stoychev 
                                                                 
  APM, Basis sets (HGBS, AHGBS, def-TZVP (Ac-Lr), def2-XVPD (La-Lu)), CI-OPT, improved COSX, DLPNO-Multilevel,           
  DOCKER, DRACO, updates on ESD, GOAT, IRC, LR-CPCM, MBIS, meta-GGA TD-DFT gradient, ML-optimized integration grids, 
  MM, NACMEs, nearIR, NEB, NEB-TS, NL-DFT gradient (VV10), 2- and 3-layer-ONIOM, interface openCOSMO-RS, QMMM,   
  Crystal-QMMM, SF, symmetry and pop. for TD-DFT, r2SCAN hybrids, SOLVATOR                                   
                                                                         
[Other institutions]                                                     
  V. Asgeirsson          : NEB                                           
  Christoph Bannwarth    : sTDA-DFT, sTD-DFT, PBEh-3c, B97-3c, D3        
  Sebastian Ehlert       : rSCAN, r2SCAN, r2SCAN-3c, D4, dhf basis sets  
  Marvin Friede          : D4 for Fr, Ra, Ac-Lr                          
  Lars Goerigk           : TD-DFT with DH, B97 family of functionals     
  Stefan Grimme          : VdW corrections, initial TS optimization, DFT functionals, gCP, sTDA/sTD-DF 
  Waldemar Hujo          : DFT-NL                                        
  H. Jonsson             : NEB                                           
  Holger Kruse           : gCP                                           
  Marcel Mueller         : wB97X-3c, vDZP basis set                      
  Hagen Neugebauer       : wr2SCAN                                       
  Tobias Risthaus        : range-separated hybrid DFT                    
  Lukas Wittmann         : regularized MP2, r2SCAN double-hybrids, wr2SCAN        
                                                                         
We gratefully acknowledge several colleagues who have allowed us to      
interface, adapt or use parts of their codes:                            
  Ed Valeev, F. Pavosevic, A. Kumar             : LibInt (2-el integral package), F12 methods 
  Garnet Chan, S. Sharma, J. Yang, R. Olivares  : DMRG                   
  Ulf Ekstrom                                   : XCFun DFT Library      
  Mihaly Kallay                                 : mrcc  (arbitrary order and MRCC methods)
  Frank Weinhold                                : gennbo (NPA and NBO analysis)           
  Simon Mueller                                 : openCOSMO-RS                            
  Christopher J. Cramer and Donald G. Truhlar   : smd solvation model                     
  S Lehtola, MJT Oliveira, MAL Marques          : LibXC Library                           
  Liviu Ungur et al                             : ANISO software                          


 Your calculation uses the libint2 library for the computation of 2-el integrals
 For citations please refer to: http://libint.valeyev.net

 Your ORCA version has been built with support for libXC version: 6.2.2
 For citations please refer to: https://libxc.gitlab.io

 This ORCA versions uses:
   CBLAS   interface :  Fast vector & matrix operations
   LAPACKE interface :  Fast linear algebra routines
   SCALAPACK package :  Parallel linear algebra routines
   Shared memory     :  Shared parallel matrices
   BLAS/LAPACK       :  OpenBLAS 0.3.27  USE64BITINT DYNAMIC_ARCH NO_AFFINITY SkylakeX SINGLE_THREADED
        Core in use  :  SkylakeX
   Copyright (c) 2011-2014, The OpenBLAS Project


Your calculation utilizes the atom-pairwise dispersion correction
based on EEQ partial charges (D4)


================================================================================

cite the ECPs for C  [vDZP-ECP], O  [vDZP-ECP] as follows:
   B-Ne (ecp-2-mwb), Al-Ar (ecp-10-mwb), Ga-Kr (ecp-28-mwb), Y-Cd (ecp-28-mwb), In-Xe (ecp-46-mwb):
     A. Bergner, M. Dolg, W. Küchle, H. Stoll, and H. Preuß, Mol. Phys. 80, 1431 (1993)., T. Leininger, A. Berning, A. Nicklass, H. Stoll, H.-J. Werner, and H.-J.Flad, Chem. Phys. 217, 19 (1997).
   Na-Mg, K-Ca, Rb-Sr, Cs-Ba (CRENBL):
     L. Fernandez Pacios and P. A. Christiansen, J. Chem. Phys. 82, 2664 (1985)., M. M. Hurley, L. F. Pacios, P. A. Christiansen, R. B. Ross, and W. C. Ermler, J. Chem. Phys. 84, 6840 (1986)., L. A. LaJohn, P. A. Christiansen, R. B. Ross, T. Atashroo, and W. C. Ermler, J. Chem. Phys. 87, 2812 (1987)., R. B. Ross, J. M. Powers, T. Atashroo, W. C. Ermler, L. A. LaJohn, and P. A. Christiansen, J. Chem. Phys. 93, 6654 (1990). 
   Sc-Zn (ecp-10-mdf):
     M. Dolg, U. Wedig, H. Stoll, and H. Preuss, J. Chem. Phys. 86, 866 (1986). 
   Y-Cd (ecp-28-mwb), Hf-Hg (ecp-60-mwb):
     D. Andrae, U. Häußermann, M. Dolg, H. Stoll, and H. Preuß, Theor. Chim. Acta 77, 123 (1990). 
   La (ecp-46-mwb):
     M. Dolg, H. Stoll, and H. Preuss, J. Chem. Phys. 90, 1730 (1989)., M. Dolg, H. Stoll, and H. Preuss, Theor. Chim. Acta 85, 441 (1993).
   Ce-Lu (SBKJC-ecp):
     T. R. Cundari and W. J. Stevens, J. Chem. Phys. 98, 5555 (1993).
   Tl-Rn (ecp-78-mwb):
     W. Küchle, M. Dolg, H. Stoll, and H. Preuss, Mol. Phys. 74, 1245 (1991).

ECP parameters for C  [vDZP-ECP], O  [vDZP-ECP] have been obtained from:
MM, AH, SG, J. Chem. Phys. 158, 014103 (2023), 10.1063/5.0133026

----- Orbital basis set information -----
Your calculation utilizes the basis: vDZP
   Marcel Mueller, Andreas Hansen, Stefan Grimme 
   J. Chem. Phys. 158, 014103 (2023). DOI: 10.1063/5.0133026

----- AuxJ basis set information -----
Your calculation utilizes the auxiliary basis: def2/J
   F. Weigend, Phys. Chem. Chem. Phys. 8, 1057 (2006).

================================================================================
                                        WARNINGS
                       Please study these warnings very carefully!
================================================================================

WARNING: Frozen-Core approximation turned on, but there are no core electrons.
  ===> : Turning off frozen-core approximation


WARNING: Geometry Optimization
  ===> : Switching off AutoStart
         For restart on a previous wavefunction, please use MOREAD

================================================================================
                                       INPUT FILE
================================================================================
NAME = ./output/lavandulyl_acetate/lavandulyl_acetate.inp
|  1> ! wB97X-3c OPT FREQ TightSCF
|  2> %pal
|  3>   nprocs 40
|  4> end
|  5> * xyz 0 1
|  6> C     -4.064488    -0.231144    -0.231335
|  7> C     -2.659108     0.311839    -0.257964
|  8> C     -1.740398    -0.319066    -1.022065
|  9> C     -0.284611     0.075076    -1.112368
| 10> C      0.556158    -0.598333    -0.004406
| 11> C      2.012114    -0.104481    -0.033754
| 12> O      2.061032     1.281097     0.295720
| 13> C      3.255976     2.003688     0.343348
| 14> O      4.360621     1.438452     0.118331
| 15> C      3.226558     3.447907     0.711607
| 16> C      0.497001    -2.119790    -0.099409
| 17> C      0.987487    -2.771438    -1.167664
| 18> C     -0.132352    -2.921779     1.010154
| 19> C     -2.322367     1.545593     0.546524
| 20> H     -4.055580    -1.273840     0.151324
| 21> H     -4.489250    -0.224718    -1.257566
| 22> H     -4.727361     0.372941     0.422407
| 23> H     -2.044438    -1.192482    -1.594158
| 24> H      0.098349    -0.227048    -2.110559
| 25> H     -0.180247     1.179305    -1.064224
| 26> H      0.139612    -0.284784     0.976304
| 27> H      2.611211    -0.674114     0.710856
| 28> H      2.455029    -0.260628    -1.041685
| 29> H      3.985386     4.006555     0.124103
| 30> H      3.445951     3.558095     1.793845
| 31> H      2.223528     3.873237     0.498000
| 32> H      0.936307    -3.854585    -1.228678
| 33> H      1.444312    -2.237273    -1.993996
| 34> H      0.616810    -3.619640     1.440338
| 35> H     -0.510385    -2.270278     1.825034
| 36> H     -0.987853    -3.506672     0.610643
| 37> H     -1.999111     2.363311    -0.130932
| 38> H     -3.200721     1.909333     1.118904
| 39> H     -1.515171     1.325664     1.273823
| 40> *
| 41> 
| 42>                          ****END OF INPUT****
================================================================================

                       *****************************
                       * Geometry Optimization Run *
                       *****************************

Geometry optimization settings:
Update method            Update   .... BFGS
Choice of coordinates    CoordSys .... (2022) Redundant Internals
Initial Hessian          InHess   .... Almloef's Model
Max. no of cycles        MaxIter  .... 102

Convergence Tolerances:
Energy Change            TolE     ....  5.0000e-06 Eh
Max. Gradient            TolMAXG  ....  3.0000e-04 Eh/bohr
RMS Gradient             TolRMSG  ....  1.0000e-04 Eh/bohr
Max. Displacement        TolMAXD  ....  4.0000e-03 bohr
RMS Displacement         TolRMSD  ....  2.0000e-03 bohr
Strict Convergence                .... False

------------------------------------------------------------------------------
                        ORCA OPTIMIZATION COORDINATE SETUP
------------------------------------------------------------------------------

The optimization will be done in redundant internal coordinates (2022)
Making redundant internal coordinates   ...  (2022 redundants) done
Evaluating the initial hessian          ...  (Almloef) done
Evaluating the coordinates              ...  done
Calculating the B-matrix                .... done
Calculating the G-matrix                .... done
Diagonalizing the G-matrix              .... done
Small eigenvalue found = 3.049e-03
Small eigenvalue found = 7.256e-03
Small eigenvalue found = 1.142e-02
Small eigenvalue found = 1.802e-02
Small eigenvalue found = 2.127e-02
Small eigenvalue found = 2.955e-02
The first mode is                       ....   50
The number of degrees of freedom        ....   96

    -----------------------------------------------------------------
                    Redundant Internal Coordinates


    -----------------------------------------------------------------
         Definition                    Initial Value    Approx d2E/dq
    -----------------------------------------------------------------
      1. B(C   1,C   0)                  1.5069         0.406718   
      2. B(C   2,C   1)                  1.3513         0.720338   
      3. B(C   3,C   2)                  1.5109         0.400729   
      4. B(C   4,C   3)                  1.5453         0.353157   
      5. B(C   5,C   4)                  1.5377         0.363139   
      6. B(O   6,C   5)                  1.4251         0.491986   
      7. B(C   7,O   6)                  1.3972         0.544897   
      8. B(O   8,C   7)                  1.2611         0.898530   
      9. B(C   9,C   7)                  1.4907         0.431564   
     10. B(C  10,C   4)                  1.5256         0.379707   
     11. B(C  11,C  10)                  1.3440         0.739769   
     12. B(C  12,C  10)                  1.5068         0.406832   
     13. B(C  13,C   1)                  1.5109         0.400765   
     14. B(H  14,C   0)                  1.1107         0.333694   
     15. B(H  15,C   0)                  1.1107         0.333754   
     16. B(H  16,C   0)                  1.1098         0.334814   
     17. B(H  17,C   2)                  1.0875         0.363465   
     18. B(H  18,C   3)                  1.1110         0.333363   
     19. B(H  19,C   3)                  1.1102         0.334352   
     20. B(H  20,C   4)                  1.1107         0.333753   
     21. B(H  21,C   5)                  1.1126         0.331430   
     22. B(H  22,C   5)                  1.1120         0.332177   
     23. B(H  23,C   9)                  1.1104         0.334055   
     24. B(H  24,C   9)                  1.1097         0.334916   
     25. B(H  25,C   9)                  1.1102         0.334313   
     26. B(H  26,C  11)                  1.0861         0.365336   
     27. B(H  27,C  11)                  1.0848         0.367011   
     28. B(H  28,C  12)                  1.1105         0.333921   
     29. B(H  29,C  12)                  1.1097         0.334983   
     30. B(H  30,C  12)                  1.1107         0.333767   
     31. B(H  31,C  13)                  1.1100         0.334589   
     32. B(H  32,C  13)                  1.1097         0.334962   
     33. B(H  33,C  13)                  1.1086         0.336370   
     34. A(H  14,C   0,H  16)          108.2295         0.284148   
     35. A(C   1,C   0,H  14)          109.6867         0.324790   
     36. A(H  14,C   0,H  15)          109.0755         0.284008   
     37. A(H  15,C   0,H  16)          108.2217         0.284156   
     38. A(C   1,C   0,H  16)          111.7976         0.324969   
     39. A(C   1,C   0,H  15)          109.7712         0.324800   
     40. A(C   0,C   1,C  13)          119.5186         0.373164   
     41. A(C   2,C   1,C  13)          122.0610         0.412411   
     42. A(C   0,C   1,C   2)          118.4147         0.413493   
     43. A(C   3,C   2,H  17)          116.5810         0.328590   
     44. A(C   1,C   2,H  17)          118.8417         0.362598   
     45. A(C   1,C   2,C   3)          124.5473         0.412405   
     46. A(C   4,C   3,H  18)          109.7634         0.317322   
     47. A(C   4,C   3,H  19)          110.5606         0.317475   
     48. A(C   2,C   3,H  19)          110.3313         0.324105   
     49. A(H  18,C   3,H  19)          106.0834         0.284043   
     50. A(C   2,C   3,C   4)          111.5740         0.364220   
     51. A(C   2,C   3,H  18)          108.3538         0.323947   
     52. A(C   5,C   4,H  20)          106.3369         0.318828   
     53. A(C   3,C   4,H  20)          107.8192         0.317383   
     54. A(C   5,C   4,C  10)          110.8438         0.362604   
     55. A(C   3,C   4,C  10)          111.6452         0.360884   
     56. A(C   3,C   4,C   5)          111.1933         0.358152   
     57. A(C  10,C   4,H  20)          108.7831         0.321161   
     58. A(C   4,C   5,O   6)          109.8984         0.376739   
     59. A(O   6,C   5,H  22)          109.4163         0.332893   
     60. A(H  21,C   5,H  22)          108.6790         0.283499   
     61. A(O   6,C   5,H  21)          108.9408         0.332768   
     62. A(C   4,C   5,H  21)          109.4291         0.318465   
     63. A(C   4,C   5,H  22)          110.4469         0.318582   
     64. A(C   5,O   6,C   7)          122.6882         0.401824   
     65. A(O   6,C   7,O   8)          120.7465         0.447513   
     66. A(O   8,C   7,C   9)          119.7088         0.431904   
     67. A(O   6,C   7,C   9)          119.5093         0.395202   
     68. A(H  24,C   9,H  25)          109.1597         0.284243   
     69. A(H  23,C   9,H  25)          108.8354         0.284129   
     70. A(C   7,C   9,H  25)          109.9653         0.328076   
     71. A(H  23,C   9,H  24)          109.3242         0.284209   
     72. A(C   7,C   9,H  24)          109.4635         0.328174   
     73. A(C   7,C   9,H  23)          110.0726         0.328035   
     74. A(C  11,C  10,C  12)          118.6628         0.415474   
     75. A(C   4,C  10,C  12)          120.0766         0.369731   
     76. A(C   4,C  10,C  11)          121.2577         0.410415   
     77. A(H  26,C  11,H  27)          117.9126         0.292373   
     78. A(C  10,C  11,H  27)          121.3570         0.364857   
     79. A(C  10,C  11,H  26)          120.7304         0.364571   
     80. A(H  29,C  12,H  30)          108.1146         0.284180   
     81. A(H  28,C  12,H  30)          109.1487         0.284039   
     82. A(C  10,C  12,H  30)          109.7023         0.324817   
     83. A(H  28,C  12,H  29)          108.3180         0.284200   
     84. A(C  10,C  12,H  29)          111.7496         0.325011   
     85. A(C  10,C  12,H  28)          109.7519         0.324842   
     86. A(H  32,C  13,H  33)          107.6364         0.284520   
     87. A(H  31,C  13,H  33)          109.5431         0.284471   
     88. A(C   1,C  13,H  33)          110.4643         0.324430   
     89. A(H  31,C  13,H  32)          107.6883         0.284285   
     90. A(C   1,C  13,H  32)          111.4625         0.324206   
     91. A(C   1,C  13,H  31)          109.9679         0.324147   
     92. D(C   2,C   1,C   0,H  15)    -59.4481         0.012259   
     93. D(C   2,C   1,C   0,H  14)     60.3838         0.012259   
     94. D(C  13,C   1,C   0,H  14)   -120.4605         0.012259   
     95. D(C   2,C   1,C   0,H  16)   -179.5556         0.012259   
     96. D(C  13,C   1,C   0,H  15)    119.7076         0.012259   
     97. D(H  17,C   2,C   1,C   0)      0.2465         0.036728   
     98. D(C   3,C   2,C   1,C   0)   -177.6925         0.036728   
     99. D(C   3,C   2,C   1,C  13)      3.1744         0.036728   
    100. D(H  17,C   2,C   1,C  13)   -178.8866         0.036728   
    101. D(C   4,C   3,C   2,H  17)    -91.0179         0.011916   
    102. D(H  18,C   3,C   2,H  17)     29.9313         0.011916   
    103. D(H  19,C   3,C   2,C   1)    -36.3527         0.011916   
    104. D(C   4,C   3,C   2,C   1)     86.9634         0.011916   
    105. D(H  18,C   3,C   2,C   1)   -152.0874         0.011916   
    106. D(C   5,C   4,C   3,C   2)   -175.4251         0.010034   
    107. D(C  10,C   4,C   3,H  19)   -176.6039         0.010034   
    108. D(C  10,C   4,C   3,H  18)    -59.9133         0.010034   
    109. D(C  10,C   4,C   3,C   2)     60.2104         0.010034   
    110. D(C   5,C   4,C   3,H  19)    -52.2395         0.010034   
    111. D(C   5,C   4,C   3,H  18)     64.4512         0.010034   
    112. D(H  21,C   5,C   4,H  20)     68.0671         0.010567   
    113. D(H  21,C   5,C   4,C  10)    -50.0082         0.010567   
    114. D(H  21,C   5,C   4,C   3)   -174.8245         0.010567   
    115. D(O   6,C   5,C   4,H  20)    -51.5182         0.010567   
    116. D(O   6,C   5,C   4,C  10)   -169.5935         0.010567   
    117. D(O   6,C   5,C   4,C   3)     65.5902         0.010567   
    118. D(C   7,O   6,C   5,H  22)    -58.3370         0.019118   
    119. D(C   7,O   6,C   5,H  21)     60.3469         0.019118   
    120. D(C   7,O   6,C   5,C   4)   -179.7704         0.019118   
    121. D(C   9,C   7,O   6,C   5)   -179.3039         0.021456   
    122. D(O   8,C   7,O   6,C   5)     -1.4735         0.021456   
    123. D(H  25,C   9,C   7,O   6)    -23.6518         0.013753   
    124. D(H  24,C   9,C   7,O   8)    -81.5884         0.013753   
    125. D(H  24,C   9,C   7,O   6)     96.2648         0.013753   
    126. D(H  23,C   9,C   7,O   8)     38.5971         0.013753   
    127. D(H  23,C   9,C   7,O   6)   -143.5497         0.013753   
    128. D(C  12,C  10,C   4,C   5)    119.8186         0.010760   
    129. D(C  12,C  10,C   4,C   3)   -115.6212         0.010760   
    130. D(C  11,C  10,C   4,H  20)   -177.3874         0.010760   
    131. D(C  11,C  10,C   4,C   5)    -60.8103         0.010760   
    132. D(C  11,C  10,C   4,C   3)     63.7498         0.010760   
    133. D(H  27,C  11,C  10,C  12)    179.6283         0.038926   
    134. D(H  27,C  11,C  10,C   4)      0.2485         0.038926   
    135. D(H  26,C  11,C  10,C  12)     -0.3059         0.038926   
    136. D(H  26,C  11,C  10,C   4)   -179.6857         0.038926   
    137. D(H  30,C  12,C  10,C   4)    120.0940         0.012266   
    138. D(H  29,C  12,C  10,C  11)   -179.1893         0.012266   
    139. D(H  29,C  12,C  10,C   4)      0.1979         0.012266   
    140. D(H  28,C  12,C  10,C  11)     60.6262         0.012266   
    141. D(H  28,C  12,C  10,C   4)   -119.9865         0.012266   
    142. D(H  33,C  13,C   1,C   0)    121.3177         0.011918   
    143. D(H  32,C  13,C   1,C   2)   -179.1752         0.011918   
    144. D(H  32,C  13,C   1,C   0)      1.7011         0.011918   
    145. D(H  31,C  13,C   1,C   2)     61.4707         0.011918   
    146. D(H  31,C  13,C   1,C   0)   -117.6531         0.011918   
    -----------------------------------------------------------------

Number of atoms                         .... 34
Number of degrees of freedom            .... 146


         *************************************************************
         *                GEOMETRY OPTIMIZATION CYCLE   1            *
         *************************************************************
---------------------------------
CARTESIAN COORDINATES (ANGSTROEM)
---------------------------------
  C     -4.064488   -0.231144   -0.231335
  C     -2.659108    0.311839   -0.257964
  C     -1.740398   -0.319066   -1.022065
  C     -0.284611    0.075076   -1.112368
  C      0.556158   -0.598333   -0.004406
  C      2.012114   -0.104481   -0.033754
  O      2.061032    1.281097    0.295720
  C      3.255976    2.003688    0.343348
  O      4.360621    1.438452    0.118331
  C      3.226558    3.447907    0.711607
  C      0.497001   -2.119790   -0.099409
  C      0.987487   -2.771438   -1.167664
  C     -0.132352   -2.921779    1.010154
  C     -2.322367    1.545593    0.546524
  H     -4.055580   -1.273840    0.151324
  H     -4.489250   -0.224718   -1.257566
  H     -4.727361    0.372941    0.422407
  H     -2.044438   -1.192482   -1.594158
  H      0.098349   -0.227048   -2.110559
  H     -0.180247    1.179305   -1.064224
  H      0.139612   -0.284784    0.976304
  H      2.611211   -0.674114    0.710856
  H      2.455029   -0.260628   -1.041685
  H      3.985386    4.006555    0.124103
  H      3.445951    3.558095    1.793845
  H      2.223528    3.873237    0.498000
  H      0.936307   -3.854585   -1.228678
  H      1.444312   -2.237273   -1.993996
  H      0.616810   -3.619640    1.440338
  H     -0.510385   -2.270278    1.825034
  H     -0.987853   -3.506672    0.610643
  H     -1.999111    2.363311   -0.130932
  H     -3.200721    1.909333    1.118904
  H     -1.515171    1.325664    1.273823

----------------------------
CARTESIAN COORDINATES (A.U.)
----------------------------
  NO LB      ZA    FRAG     MASS         X           Y           Z
   0 C     4.0000*   0    12.011   -7.680769   -0.436799   -0.437160
   1 C     4.0000*   0    12.011   -5.024986    0.589290   -0.487481
   2 C     4.0000*   0    12.011   -3.288876   -0.602947   -1.931423
   3 C     4.0000*   0    12.011   -0.537837    0.141873   -2.102071
   4 C     4.0000*   0    12.011    1.050986   -1.130686   -0.008326
   5 C     4.0000*   0    12.011    3.802344   -0.197440   -0.063786
   6 O     6.0000*   0    15.999    3.894786    2.420922    0.558830
   7 C     4.0000*   0    12.011    6.152903    3.786422    0.648834
   8 O     6.0000*   0    15.999    8.240379    2.718280    0.223613
   9 C     4.0000*   0    12.011    6.097311    6.515600    1.344742
  10 C     4.0000*   0    12.011    0.939196   -4.005823   -0.187856
  11 C     4.0000*   0    12.011    1.866080   -5.237259   -2.206565
  12 C     4.0000*   0    12.011   -0.250109   -5.521362    1.908914
  13 C     4.0000*   0    12.011   -4.388638    2.920747    1.032781
  14 H     1.0000    0     1.008   -7.663936   -2.407209    0.285961
  15 H     1.0000    0     1.008   -8.483453   -0.424655   -2.376455
  16 H     1.0000    0     1.008   -8.933418    0.704756    0.798234
  17 H     1.0000    0     1.008   -3.863428   -2.253464   -3.012522
  18 H     1.0000    0     1.008    0.185853   -0.429059   -3.988378
  19 H     1.0000    0     1.008   -0.340617    2.228563   -2.011092
  20 H     1.0000    0     1.008    0.263828   -0.538164    1.844947
  21 H     1.0000    0     1.008    4.934474   -1.273891    1.343323
  22 H     1.0000    0     1.008    4.639332   -0.492516   -1.968499
  23 H     1.0000    0     1.008    7.531288    7.571292    0.234521
  24 H     1.0000    0     1.008    6.511904    6.723825    3.389876
  25 H     1.0000    0     1.008    4.201859    7.319357    0.941084
  26 H     1.0000    0     1.008    1.769364   -7.284110   -2.321865
  27 H     1.0000    0     1.008    2.729354   -4.227833   -3.768106
  28 H     1.0000    0     1.008    1.165602   -6.840128    2.721844
  29 H     1.0000    0     1.008   -0.964488   -4.290204    3.448814
  30 H     1.0000    0     1.008   -1.866772   -6.626650    1.153948
  31 H     1.0000    0     1.008   -3.777772    4.466011   -0.247426
  32 H     1.0000    0     1.008   -6.048486    3.608116    2.114422
  33 H     1.0000    0     1.008   -2.863258    2.505142    2.407177
* core charge reduced due to ECP

--------------------------------
INTERNAL COORDINATES (ANGSTROEM)
--------------------------------
 C      0   0   0     0.000000000000     0.00000000     0.00000000
 C      1   0   0     1.506861833855     0.00000000     0.00000000
 C      2   1   0     1.351265895864   118.41474763     0.00000000
 C      3   2   1     1.510899843584   124.54734743   182.30749327
 C      4   3   2     1.545299966377   111.57399725    86.96339593
 C      5   4   3     1.537712254274   111.19327240   184.57486414
 O      6   5   4     1.425051746950   109.89841950    65.59024471
 C      7   6   5     1.397246342919   122.68817052   180.22961954
 O      8   7   6     1.261096729839   120.74647509   358.52652332
 C      8   7   6     1.490720842333   119.50932723   180.69613846
 C      5   4   3     1.525567606993   111.64515025    60.21038731
 C     11   5   4     1.344020229433   121.25773803    63.74981212
 C     11   5   4     1.506785188970   120.07656637   244.37875702
 C      2   1   3     1.510875367375   119.51858606   179.15569736
 H      1   2   3     1.110730485384   109.68671838    60.38375378
 H      1   2   3     1.110681824593   109.77120736   300.55193995
 H      1   2   3     1.109818860859   111.79757987   180.44444851
 H      3   2   1     1.087467807020   118.84173998     0.24645360
 H      4   3   2     1.111000695525   108.35382543   207.91259878
 H      4   3   2     1.110194295460   110.33132458   323.64734324
 H      5   4   3     1.110682515221   107.81919229   300.77597498
 H      6   5   4     1.112583939394   109.42908610   185.17553226
 H      6   5   4     1.111971440099   110.44689084   304.77579848
 H     10   8   7     1.110436162732   110.07258163   216.45030424
 H     10   8   7     1.109735902112   109.46350289    96.26476824
 H     10   8   7     1.110226436475   109.96529524   336.34815974
 H     12  11   5     1.086070681036   120.73040833   180.31433985
 H     12  11   5     1.084825286428   121.35700120     0.24853089
 H     13  11   5     1.110545789880   109.75187245   240.01348411
 H     13  11   5     1.109680997625   111.74960785     0.19793659
 H     13  11   5     1.110671338232   109.70232001   120.09399127
 H     14   2   1     1.110001712159   109.96793687   242.34688128
 H     14   2   1     1.109698788553   111.46249295     1.70106433
 H     14   2   1     1.108556711611   110.46427963   121.31770030

---------------------------
INTERNAL COORDINATES (A.U.)
---------------------------
 C      0   0   0     0.000000000000     0.00000000     0.00000000
 C      1   0   0     2.847556187645     0.00000000     0.00000000
 C      2   1   0     2.553522477291   118.41474763     0.00000000
 C      3   2   1     2.855186920158   124.54734743   182.30749327
 C      4   3   2     2.920193731211   111.57399725    86.96339593
 C      5   4   3     2.905855033352   111.19327240   184.57486414
 O      6   5   4     2.692957528401   109.89841950    65.59024471
 C      7   6   5     2.640412929740   122.68817052   180.22961954
 O      8   7   6     2.383127447779   120.74647509   358.52652332
 C      8   7   6     2.817054134138   119.50932723   180.69613846
 C      5   4   3     2.882904975999   111.64515025    60.21038731
 C     11   5   4     2.539830152078   121.25773803    63.74981212
 C     11   5   4     2.847411349802   120.07656637   244.37875702
 C      2   1   3     2.855140666827   119.51858606   179.15569736
 H      1   2   3     2.098976425973   109.68671838    60.38375378
 H      1   2   3     2.098884470405   109.77120736   300.55193995
 H      1   2   3     2.097253705284   111.79757987   180.44444851
 H      3   2   1     2.055016334724   118.84173998     0.24645360
 H      4   3   2     2.099487049138   108.35382543   207.91259878
 H      4   3   2     2.097963173862   110.33132458   323.64734324
 H      5   4   3     2.098885775502   107.81919229   300.77597498
 H      6   5   4     2.102478946454   109.42908610   185.17553226
 H      6   5   4     2.101321490528   110.44689084   304.77579848
 H     10   8   7     2.098420236767   110.07258163   216.45030424
 H     10   8   7     2.097096935972   109.46350289    96.26476824
 H     10   8   7     2.098023911578   109.96529524   336.34815974
 H     12  11   5     2.052376149239   120.73040833   180.31433985
 H     12  11   5     2.050022694502   121.35700120     0.24853089
 H     13  11   5     2.098627402053   109.75187245   240.01348411
 H     13  11   5     2.096993181528   111.74960785     0.19793659
 H     13  11   5     2.098864654055   109.70232001   120.09399127
 H     14   2   1     2.097599244164   109.96793687   242.34688128
 H     14   2   1     2.097026801509   111.46249295     1.70106433
 H     14   2   1     2.094868588865   110.46427963   121.31770030

---------------------
BASIS SET INFORMATION
---------------------
There are 3 groups of distinct atoms

 Group   1 Type C   : 6s6p2d contracted to 2s2p1d pattern {42/42/2}
 Group   2 Type O   : 6s6p2d contracted to 2s2p1d pattern {42/42/2}
 Group   3 Type H   : 8s2p contracted to 2s1p pattern {53/2}

Atom   0C    basis set group =>   1
Atom   1C    basis set group =>   1
Atom   2C    basis set group =>   1
Atom   3C    basis set group =>   1
Atom   4C    basis set group =>   1
Atom   5C    basis set group =>   1
Atom   6O    basis set group =>   2
Atom   7C    basis set group =>   1
Atom   8O    basis set group =>   2
Atom   9C    basis set group =>   1
Atom  10C    basis set group =>   1
Atom  11C    basis set group =>   1
Atom  12C    basis set group =>   1
Atom  13C    basis set group =>   1
Atom  14H    basis set group =>   3
Atom  15H    basis set group =>   3
Atom  16H    basis set group =>   3
Atom  17H    basis set group =>   3
Atom  18H    basis set group =>   3
Atom  19H    basis set group =>   3
Atom  20H    basis set group =>   3
Atom  21H    basis set group =>   3
Atom  22H    basis set group =>   3
Atom  23H    basis set group =>   3
Atom  24H    basis set group =>   3
Atom  25H    basis set group =>   3
Atom  26H    basis set group =>   3
Atom  27H    basis set group =>   3
Atom  28H    basis set group =>   3
Atom  29H    basis set group =>   3
Atom  30H    basis set group =>   3
Atom  31H    basis set group =>   3
Atom  32H    basis set group =>   3
Atom  33H    basis set group =>   3
---------------------------------
AUXILIARY/J BASIS SET INFORMATION
---------------------------------
There are 3 groups of distinct atoms

 Group   1 Type C   : 12s5p4d2f1g contracted to 6s4p3d1f1g pattern {711111/2111/211/2/1}
 Group   2 Type O   : 12s5p4d2f1g contracted to 6s4p3d1f1g pattern {711111/2111/211/2/1}
 Group   3 Type H   : 5s2p1d contracted to 3s1p1d pattern {311/2/1}

Atom   0C    basis set group =>   1
Atom   1C    basis set group =>   1
Atom   2C    basis set group =>   1
Atom   3C    basis set group =>   1
Atom   4C    basis set group =>   1
Atom   5C    basis set group =>   1
Atom   6O    basis set group =>   2
Atom   7C    basis set group =>   1
Atom   8O    basis set group =>   2
Atom   9C    basis set group =>   1
Atom  10C    basis set group =>   1
Atom  11C    basis set group =>   1
Atom  12C    basis set group =>   1
Atom  13C    basis set group =>   1
Atom  14H    basis set group =>   3
Atom  15H    basis set group =>   3
Atom  16H    basis set group =>   3
Atom  17H    basis set group =>   3
Atom  18H    basis set group =>   3
Atom  19H    basis set group =>   3
Atom  20H    basis set group =>   3
Atom  21H    basis set group =>   3
Atom  22H    basis set group =>   3
Atom  23H    basis set group =>   3
Atom  24H    basis set group =>   3
Atom  25H    basis set group =>   3
Atom  26H    basis set group =>   3
Atom  27H    basis set group =>   3
Atom  28H    basis set group =>   3
Atom  29H    basis set group =>   3
Atom  30H    basis set group =>   3
Atom  31H    basis set group =>   3
Atom  32H    basis set group =>   3
Atom  33H    basis set group =>   3
-------------------------
ECP PARAMETER INFORMATION
-------------------------

 Group 1, Type C  ECP vDZP-ECP (replacing 2 core electrons, lmax=3)
 Group 2, Type O  ECP vDZP-ECP (replacing 2 core electrons, lmax=3)

Atom   0C    ECP group =>   1
Atom   1C    ECP group =>   1
Atom   2C    ECP group =>   1
Atom   3C    ECP group =>   1
Atom   4C    ECP group =>   1
Atom   5C    ECP group =>   1
Atom   6O    ECP group =>   2
Atom   7C    ECP group =>   1
Atom   8O    ECP group =>   2
Atom   9C    ECP group =>   1
Atom  10C    ECP group =>   1
Atom  11C    ECP group =>   1
Atom  12C    ECP group =>   1
Atom  13C    ECP group =>   1



           ************************************************************
           *        Program running with 40 parallel MPI-processes    *
           *              working on a common directory               *
           ************************************************************
------------------------------------------------------------------------------
                             ORCA STARTUP CALCULATIONS
                           -- RI-GTO INTEGRALS CHOSEN --
------------------------------------------------------------------------------
------------------------------------------------------------------------------
                   ___                                                        
                  /   \      - P O W E R E D   B Y -                         
                 /     \                                                     
                 |  |  |   _    _      __       _____    __    __             
                 |  |  |  | |  | |    /  \     |  _  \  |  |  /  |          
                  \  \/   | |  | |   /    \    | | | |  |  | /  /          
                 / \  \   | |__| |  /  /\  \   | |_| |  |  |/  /          
                |  |  |   |  __  | /  /__\  \  |    /   |      \           
                |  |  |   | |  | | |   __   |  |    \   |  |\   \          
                \     /   | |  | | |  |  |  |  | |\  \  |  | \   \       
                 \___/    |_|  |_| |__|  |__|  |_| \__\ |__|  \__/        
                                                                              
                      - O R C A' S   B I G   F R I E N D -                    
                                      &                                       
                       - I N T E G R A L  F E E D E R -                       
                                                                              
 v1 FN, 2020, v2 2021, v3 2022-2024                                           
------------------------------------------------------------------------------


----------------------
SHARK INTEGRAL PACKAGE
----------------------

Number of atoms                             ...     34
Number of basis functions                   ...    282
Number of shells                            ...    130
Maximum angular momentum                    ...      2
Integral batch strategy                     ... SHARK/LIBINT Hybrid
RI-J (if used) integral strategy            ... SPLIT-RIJ (Revised 2003 algorithm where possible)
Printlevel                                  ...      1
Contraction scheme used                     ... SEGMENTED contraction
Prescreening option                         ... SCHWARTZ
   Thresh                                   ... 2.500e-11
   Tcut                                     ... 2.500e-12
   Tpresel                                  ... 2.500e-12 
Coulomb Range Separation                    ... NOT USED
Exchange Range Separation                   ... Long Range
   Mu parameter                             ... 3.000e-01
   Scaling (regular/separated)              ... 1.670e-01 8.330e-01
Multipole approximations                    ... NOT USED
Finite Nucleus Model                        ... NOT USED
CABS basis                                  ... NOT available
Auxiliary Coulomb fitting basis             ... AVAILABLE
   # of basis functions in Aux-J            ...    906
   # of shells in Aux-J                     ...    310
   Maximum angular momentum in Aux-J        ...      4
Auxiliary J/K fitting basis                 ... NOT available
Auxiliary Correlation fitting basis         ... NOT available
Auxiliary 'external' fitting basis          ... NOT available

Checking pre-screening integrals            ... done (  0.0 sec) Dimension = 130
Check shell pair data                       ... done (  0.0 sec)
Shell pair information
Shell pair cut-off parameter TPreSel        ...   2.5e-12
Total number of shell pairs                 ...      8515
Shell pairs after pre-screening             ...      8313
Total number of primitive shell pairs       ...     79096
Primitive shell pairs kept                  ...     57716
          la=0 lb=0:   2319 shell pairs
          la=1 lb=0:   3190 shell pairs
          la=1 lb=1:   1114 shell pairs
          la=2 lb=0:    939 shell pairs
          la=2 lb=1:    647 shell pairs
          la=2 lb=2:    104 shell pairs

Calculating one electron integrals          ... done (  0.0 sec)
Calculating ECP integrals                   ... done (  0.2 sec)
Calculating RI/J V-Matrix + Cholesky decomp.... done (  0.0 sec)
Calculating Nuclear repulsion               ... done (  0.0 sec) ENN=    489.248926747906 Eh

Diagonalization of the overlap matrix:
Smallest eigenvalue                        ... 1.099e-03
Time for diagonalization                   ...    0.011 sec
Threshold for overlap eigenvalues          ... 1.000e-07
Number of eigenvalues below threshold      ... 0
Time for construction of square roots      ...    0.006 sec
Total time needed                          ...    0.020 sec

-------------------
DFT GRID GENERATION
-------------------

General Integration Accuracy     IntAcc      ... 4.388
Radial Grid Type                 RadialGrid  ... OptM3 with GC (2021)
Angular Grid (max. ang.)         AngularGrid ... 4 (Lebedev-302)
Angular grid pruning method      GridPruning ... 4 (adaptive)
Weight generation scheme         WeightScheme... mBecke (2022)
Basis function cutoff            BFCut       ... 1.0000e-11
Integration weight cutoff        WCut        ... 1.0000e-14
Partially contracted basis set               ... off
Rotationally invariant grid construction     ... off
Angular grids for H and He will be reduced by one unit

Total number of grid points                  ...   147707
Total number of batches                      ...     2325
Average number of points per batch           ...       63
Average number of grid points per atom       ...     4344

--------------------
COSX GRID GENERATION
--------------------

GRIDX 1
-------
General Integration Accuracy     IntAcc      ... 3.816
Radial Grid Type                 RadialGrid  ... OptM3 with GC (2021)
Angular Grid (max. ang.)         AngularGrid ... 1 (Lebedev-50)
Angular grid pruning method      GridPruning ... 4 (adaptive)
Weight generation scheme         WeightScheme... mBecke (2022)
Basis function cutoff            BFCut       ... 1.0000e-11
Integration weight cutoff        WCut        ... 1.0000e-14
Partially contracted basis set               ... on
Rotationally invariant grid construction     ... off
Angular grids for H and He will be reduced by one unit

Total number of grid points                  ...    18840
Total number of batches                      ...      170
Average number of points per batch           ...      110
Average number of grid points per atom       ...      554
UseSFitting                                  ... on

GRIDX 2
-------
General Integration Accuracy     IntAcc      ... 4.020
Radial Grid Type                 RadialGrid  ... OptM3 with GC (2021)
Angular Grid (max. ang.)         AngularGrid ... 2 (Lebedev-110)
Angular grid pruning method      GridPruning ... 4 (adaptive)
Weight generation scheme         WeightScheme... mBecke (2022)
Basis function cutoff            BFCut       ... 1.0000e-11
Integration weight cutoff        WCut        ... 1.0000e-14
Partially contracted basis set               ... on
Rotationally invariant grid construction     ... off
Angular grids for H and He will be reduced by one unit

Total number of grid points                  ...    39581
Total number of batches                      ...      325
Average number of points per batch           ...      121
Average number of grid points per atom       ...     1164
UseSFitting                                  ... on

GRIDX 3
-------
General Integration Accuracy     IntAcc      ... 4.338
Radial Grid Type                 RadialGrid  ... OptM3 with GC (2021)
Angular Grid (max. ang.)         AngularGrid ... 3 (Lebedev-194)
Angular grid pruning method      GridPruning ... 4 (adaptive)
Weight generation scheme         WeightScheme... mBecke (2022)
Basis function cutoff            BFCut       ... 1.0000e-11
Integration weight cutoff        WCut        ... 1.0000e-14
Partially contracted basis set               ... on
Rotationally invariant grid construction     ... off
Angular grids for H and He will be reduced by one unit

Total number of grid points                  ...    86124
Total number of batches                      ...      690
Average number of points per batch           ...      124
Average number of grid points per atom       ...     2533
UseSFitting                                  ... on
Initializing property integral containers    ... done (  0.0 sec)

SHARK setup successfully completed in   4.4 seconds

Maximum memory used throughout the entire STARTUP-calculation: 46.1 MB


           ************************************************************
           *        Program running with 40 parallel MPI-processes    *
           *              working on a common directory               *
           ************************************************************
-------------------------------------------------------------------------------
                                 ORCA GUESS
                   Start orbitals & Density for SCF / CASSCF
-------------------------------------------------------------------------------

------------
SCF SETTINGS
------------
Hamiltonian:
 Density Functional     Method          .... DFT(GTOs)
 Exchange Functional    Exchange        .... WB97X-V
 Correlation Functional Correlation     .... WB97X-V
 Gradients option       PostSCFGGA      .... off
 Hybrid DFT is turned on
   Fraction HF Exchange ScalHFX         ....  0.167000
   Scaling of DF-GGA-X  ScalDFX         ....  0.000000
   Scaling of DF-GGA-C  ScalDFC         ....  1.000000
   Scaling of DF-LDA-C  ScalLDAC        ....  1.000000
   Perturbative correction              ....  0.000000
 Long-range corrected/Screened/Range-Separated Hybrid DFT is turned on
   Amount of maximum screened exact exchange              ....  0.833000
   Range separation parameter mu (erf(mu*r12)/r12)        ....  0.300000
   NL short-range parameter             ....  6.000000
   NL long-range parameter              ....  0.010000
 RI-approximation to the Coulomb term is turned on
   Number of AuxJ basis functions       .... 906
   RIJ-COSX (HFX calculated with COS-X)).... on


General Settings:
 Integral files         IntName         .... ./output/lavandulyl_acetate/lavandulyl_acetate
 Hartree-Fock type      HFTyp           .... RHF
 Total Charge           Charge          ....    0
 Multiplicity           Mult            ....    1
 Number of Electrons    NEL             ....   80
 Basis Dimension        Dim             ....  282
 Nuclear Repulsion      ENuc            ....    489.2489267479 Eh

Convergence Acceleration:
 AO-DIIS                CNVDIIS         .... on
   Start iteration      DIISMaxIt       ....    12
   Startup error        DIISStart       ....  0.200000
   # of expansion vecs  DIISMaxEq       ....     5
   Bias factor          DIISBfac        ....   1.050
   Max. coefficient     DIISMaxC        ....  10.000
 MO-DIIS                CNVKDIIS        .... off
 Trust-Rad. Augm. Hess. CNVTRAH         .... auto
   Auto Start mean grad. ratio tolernc. ....  1.125000
   Auto Start start iteration           ....    50
   Auto Start num. interpolation iter.  ....    10
   Max. Number of Micro iterations      ....    24
   Max. Number of Macro iterations      .... Maxiter - #DIIS iter
   Number of Davidson start vectors     ....     2
   Converg. threshold    (grad. norm)   ....   1.000e-05
   Grad. Scal. Fac. for Micro threshold ....   0.100
   Minimum threshold for Micro iter.    ....   1.000e-02
   NR start threshold (gradient norm)   ....   1.000e-04
   Initial trust radius                 ....   0.400
   Minimum AH scaling param. (alpha)    ....   1.000
   Maximum AH scaling param. (alpha)    .... 1000.000
   Quad. conv. algorithm                .... NR
   White noise on init. David. guess    .... on
   Maximum white noise                  ....   0.010
   Pseudo random numbers                .... off
   Inactive MOs                         .... canonical
   Orbital update algorithm             .... Taylor
   Preconditioner                       .... Diag
   Full preconditioner red. dimension   ....   250
 SOSCF                  CNVSOSCF        .... on
   Start iteration      SOSCFMaxIt      ....   150
   Startup grad/error   SOSCFStart      ....  0.003300
   Hessian update       SOSCFHessUp     .... L-BFGS
 Level Shifting         CNVShift        .... on
   Level shift para.    LevelShift      ....    0.2500
   Turn off err/grad.   ShiftErr        ....    0.0010
 Zerner damping         CNVZerner       .... off
 Static damping         CNVDamp         .... on
   Fraction old density DampFac         ....    0.7000
   Max. Damping (<1)    DampMax         ....    0.9800
   Min. Damping (>=0)   DampMin         ....    0.0000
   Turn off err/grad.   DampErr         ....    0.1000

SCF Procedure:
 Maximum # iterations   MaxIter         ....   125
 SCF integral mode      SCFMode         .... Direct
   Integral package                     .... SHARK and LIBINT hybrid scheme
 Reset frequency        DirectResetFreq ....    20
 Integral Threshold     Thresh          ....  2.500e-11 Eh
 Primitive CutOff       TCut            ....  2.500e-12 Eh

Convergence Tolerance:
 Convergence Check Mode ConvCheckMode   .... Total+1el-Energy
 Convergence forced     ConvForced      .... 0
 Energy Change          TolE            ....  1.000e-08 Eh
 1-El. energy change                    ....  1.000e-05 Eh
 Orbital Gradient       TolG            ....  1.000e-05
 Orbital Rotation angle TolX            ....  1.000e-05
 DIIS Error             TolErr          ....  5.000e-07

------------------------------
INITIAL GUESS: MODEL POTENTIAL
------------------------------
Loading Hartree-Fock densities                     ... done
Atomic calculation to generate a density for atom 0 (C  with ECP)
  Multiplicity assumed   :    1
  Atomic configuration   : 1s2 2s2 2p2 
  Number of open shells  : 1
  Command: /home/aspe232/Project/Software/ORCA/6_0_1/build/orca ./output/lavandulyl_acetate/lavandulyl_acetate_atom6.inp "" > ./output/lavandulyl_acetate/lavandulyl_acetate_atom6.out
Returned from the atomic calculation with res=0
Atomic calculation to generate a density for atom 6 (O  with ECP)
  Multiplicity assumed   :    3
  Atomic configuration   : 1s2 2s2 2p4 
  Number of open shells  : 1
  Command: /home/aspe232/Project/Software/ORCA/6_0_1/build/orca ./output/lavandulyl_acetate/lavandulyl_acetate_atom8.inp "" > ./output/lavandulyl_acetate/lavandulyl_acetate_atom8.out
Returned from the atomic calculation with res=0
Calculating cut-offs                               ... done
Initializing the effective Hamiltonian             ... done
Setting up the integral package (SHARK)            ... done
Starting the Coulomb interaction                   ... done (   0.1 sec)
Making the grid                                    ... done (   1.1 sec)
Mapping shells                                     ... done
Starting the XC term evaluation                    ... done (   0.0 sec)
  promolecular density results
     # of electrons  =    107.991579091
     EX              =    -55.766137778
     EC              =     -4.360785047
     EX+EC           =    -60.126922825
Transforming the Hamiltonian                       ... done (   0.0 sec)
Diagonalizing the Hamiltonian                      ... done (   0.0 sec)
Back transforming the eigenvectors                 ... done (   0.0 sec)
Now organizing SCF variables                       ... done
                      ------------------
                      INITIAL GUESS DONE (   2.4 sec)
                      ------------------
             **** ENERGY FILE WAS UPDATED (./output/lavandulyl_acetate/lavandulyl_acetate.en.tmp) ****
Finished Guess after   3.1 sec
Maximum memory used throughout the entire GUESS-calculation: 29.3 MB


           ************************************************************
           *        Program running with 40 parallel MPI-processes    *
           *              working on a common directory               *
           ************************************************************

-------------------------------------------------------------------------------------------
                                      ORCA LEAN-SCF
                              memory conserving SCF solver
-------------------------------------------------------------------------------------------

----------------------------------------D-I-I-S--------------------------------------------
Iteration    Energy (Eh)           Delta-E    RMSDP     MaxDP     DIISErr   Damp  Time(sec)
-------------------------------------------------------------------------------------------
               ***  Starting incremental Fock matrix formation  ***
    1    -111.9037675382405723     0.00e+00  3.35e-03  9.43e-02  2.10e-01  0.700   6.5
    2    -112.1329778653871472    -2.29e-01  2.43e-03  6.21e-02  1.09e-01  0.700   4.9
                               ***Turning on AO-DIIS***
    3    -112.2513596039351569    -1.18e-01  1.26e-03  2.70e-02  5.98e-02  0.700   4.5
    4    -112.3214114887300639    -7.01e-02  2.67e-03  5.60e-02  3.72e-02  0.000   4.5
    5    -112.4697011033903209    -1.48e-01  2.41e-04  1.28e-02  1.09e-02  0.000   4.7
    6    -112.4701646595065085    -4.64e-04  1.12e-04  7.29e-03  6.21e-03  0.000   4.5
                              *** Initializing SOSCF ***
---------------------------------------S-O-S-C-F--------------------------------------
Iteration    Energy (Eh)           Delta-E    RMSDP     MaxDP     MaxGrad    Time(sec)
--------------------------------------------------------------------------------------
    7    -112.4702893519311147    -1.25e-04  5.92e-05  3.07e-03  2.31e-03     4.6
               *** Restarting incremental Fock matrix formation ***
    8    -112.4703202275350122    -3.09e-05  3.28e-05  1.27e-03  2.45e-04     6.2
    9    -112.4703251902000147    -4.96e-06  2.47e-05  1.49e-03  4.40e-04     5.7
   10    -112.4703274375525552    -2.25e-06  7.38e-06  3.01e-04  9.20e-05     5.4
   11    -112.4703276346411940    -1.97e-07  3.10e-06  7.98e-05  2.61e-05     5.3
   12    -112.4703276739378452    -3.93e-08  1.23e-06  5.52e-05  1.58e-05     5.1
   13    -112.4703276944158006    -2.05e-08  3.46e-07  1.34e-05  2.34e-06     4.6
                  *** Gradient check signals convergence ***

               *****************************************************
               *                     SUCCESS                       *
               *           SCF CONVERGED AFTER  13 CYCLES          *
               *****************************************************

Recomputing exchange energy using gridx3       ... done (    6.583 sec)
Old exchange energy                            :    -15.480917246 Eh
New exchange energy                            :    -15.480923830 Eh
Exchange energy change after final integration :     -0.000006584 Eh
Total energy after final integration           :   -112.470334279 Eh
             **** ENERGY FILE WAS UPDATED (./output/lavandulyl_acetate/lavandulyl_acetate.en.tmp) ****

----------------
TOTAL SCF ENERGY
----------------

Total Energy       :       -112.47033427861277 Eh           -3060.47339 eV

Components:
Nuclear Repulsion  :        489.24892674790578 Eh           13313.14012 eV
Electronic Energy  :       -601.71925444232158 Eh          -16373.61333 eV
One Electron Energy:      -1142.19382263044190 Eh          -31080.67402 eV
Two Electron Energy:        540.47456818812032 Eh           14707.06069 eV

Virial components:
Potential Energy   :       -199.84896283394465 Eh           -5438.16675 eV
Kinetic Energy     :         87.37862855533187 Eh            2377.69336 eV
Virial Ratio       :          2.28716067233067

DFT components:
N(Alpha)           :       39.999966764100 electrons
N(Beta)            :       39.999966764100 electrons
N(Total)           :       79.999933528200 electrons
E(X)               :      -16.781444968688 Eh       
E(C)               :       -3.014492115279 Eh       
E(XC)              :      -19.795937083967 Eh       

---------------
SCF CONVERGENCE
---------------

  Last Energy change         ...    2.0478e-08  Tolerance :   1.0000e-08
  Last MAX-Density change    ...    1.3425e-05  Tolerance :   1.0000e-07
  Last RMS-Density change    ...    3.4580e-07  Tolerance :   5.0000e-09
  Last DIIS Error            ...    2.3053e-03  Tolerance :   5.0000e-07
  Last Orbital Gradient      ...    2.3381e-06  Tolerance :   1.0000e-05
  Last Orbital Rotation      ...    7.3967e-06  Tolerance :   1.0000e-05


----------------
ORBITAL ENERGIES
----------------

  NO   OCC          E(Eh)            E(eV) 
   0   2.0000      -1.212257       -32.9872 
   1   2.0000      -1.120132       -30.4803 
   2   2.0000      -0.979496       -26.6534 
   3   2.0000      -0.946571       -25.7575 
   4   2.0000      -0.910269       -24.7697 
   5   2.0000      -0.888548       -24.1786 
   6   2.0000      -0.848993       -23.1023 
   7   2.0000      -0.827093       -22.5063 
   8   2.0000      -0.816724       -22.2242 
   9   2.0000      -0.781275       -21.2596 
  10   2.0000      -0.741492       -20.1770 
  11   2.0000      -0.687301       -18.7024 
  12   2.0000      -0.652925       -17.7670 
  13   2.0000      -0.629396       -17.1267 
  14   2.0000      -0.611828       -16.6487 
  15   2.0000      -0.609287       -16.5795 
  16   2.0000      -0.588498       -16.0138 
  17   2.0000      -0.585912       -15.9435 
  18   2.0000      -0.564273       -15.3546 
  19   2.0000      -0.563160       -15.3244 
  20   2.0000      -0.551875       -15.0173 
  21   2.0000      -0.541728       -14.7412 
  22   2.0000      -0.535009       -14.5583 
  23   2.0000      -0.531808       -14.4712 
  24   2.0000      -0.522582       -14.2202 
  25   2.0000      -0.510554       -13.8929 
  26   2.0000      -0.504673       -13.7329 
  27   2.0000      -0.500662       -13.6237 
  28   2.0000      -0.483380       -13.1534 
  29   2.0000      -0.475746       -12.9457 
  30   2.0000      -0.473793       -12.8926 
  31   2.0000      -0.464383       -12.6365 
  32   2.0000      -0.457010       -12.4359 
  33   2.0000      -0.442892       -12.0517 
  34   2.0000      -0.435077       -11.8390 
  35   2.0000      -0.422597       -11.4994 
  36   2.0000      -0.404799       -11.0151 
  37   2.0000      -0.382986       -10.4216 
  38   2.0000      -0.349808        -9.5188 
  39   2.0000      -0.326065        -8.8727 
  40   0.0000       0.069156         1.8818 
  41   0.0000       0.074085         2.0159 
  42   0.0000       0.075720         2.0605 
  43   0.0000       0.081004         2.2042 
  44   0.0000       0.088275         2.4021 
  45   0.0000       0.098055         2.6682 
  46   0.0000       0.104183         2.8350 
  47   0.0000       0.112652         3.0654 
  48   0.0000       0.120972         3.2918 
  49   0.0000       0.126897         3.4530 
  50   0.0000       0.135071         3.6755 
*Only the first 10 virtual orbitals were printed.

                    ********************************
                    * MULLIKEN POPULATION ANALYSIS *
                    ********************************

-----------------------
MULLIKEN ATOMIC CHARGES
-----------------------
   0 C :   -0.089554
   1 C :   -0.071792
   2 C :   -0.016310
   3 C :   -0.054201
   4 C :   -0.074746
   5 C :    0.115835
   6 O :   -0.309251
   7 C :    0.273244
   8 O :   -0.360353
   9 C :   -0.084154
  10 C :   -0.092935
  11 C :   -0.012257
  12 C :   -0.076687
  13 C :   -0.088675
  14 H :    0.049935
  15 H :    0.056765
  16 H :    0.033581
  17 H :    0.011723
  18 H :    0.043251
  19 H :    0.046164
  20 H :    0.039008
  21 H :    0.061400
  22 H :    0.055179
  23 H :    0.079566
  24 H :    0.077251
  25 H :    0.057380
  26 H :    0.025561
  27 H :    0.019476
  28 H :    0.056495
  29 H :    0.037979
  30 H :    0.052213
  31 H :    0.055372
  32 H :    0.034851
  33 H :    0.048687
Sum of atomic charges:    0.0000000

--------------------------------
MULLIKEN REDUCED ORBITAL CHARGES
--------------------------------
  0 C s       :     0.959273  s :     0.959273
      pz      :     1.053141  p :     3.056583
      px      :     0.969576
      py      :     1.033866
      dz2     :     0.011661  d :     0.073698
      dxz     :     0.019887
      dyz     :     0.009120
      dx2y2   :     0.018057
      dxy     :     0.014973

  1 C s       :     1.101263  s :     1.101263
      pz      :     0.958101  p :     2.852044
      px      :     0.941433
      py      :     0.952509
      dz2     :     0.021387  d :     0.118485
      dxz     :     0.022761
      dyz     :     0.015668
      dx2y2   :     0.030127
      dxy     :     0.028542

  2 C s       :     1.029125  s :     1.029125
      pz      :     0.992612  p :     2.896674
      px      :     0.918720
      py      :     0.985342
      dz2     :     0.013554  d :     0.090510
      dxz     :     0.019630
      dyz     :     0.010727
      dx2y2   :     0.025209
      dxy     :     0.021389

  3 C s       :     0.984640  s :     0.984640
      pz      :     0.998438  p :     2.969442
      px      :     0.938926
      py      :     1.032078
      dz2     :     0.023903  d :     0.100118
      dxz     :     0.023289
      dyz     :     0.009382
      dx2y2   :     0.027861
      dxy     :     0.015683

  4 C s       :     1.035387  s :     1.035387
      pz      :     1.046154  p :     2.920497
      px      :     0.915387
      py      :     0.958956
      dz2     :     0.025764  d :     0.118863
      dxz     :     0.022936
      dyz     :     0.019272
      dx2y2   :     0.028908
      dxy     :     0.021981

  5 C s       :     1.039237  s :     1.039237
      pz      :     1.039182  p :     2.707636
      px      :     0.992031
      py      :     0.676423
      dz2     :     0.021290  d :     0.137293
      dxz     :     0.022967
      dyz     :     0.029973
      dx2y2   :     0.032145
      dxy     :     0.030919

  6 O s       :     1.695804  s :     1.695804
      pz      :     1.759809  p :     4.577104
      px      :     1.503687
      py      :     1.313607
      dz2     :     0.004471  d :     0.036343
      dxz     :     0.004706
      dyz     :     0.005547
      dx2y2   :     0.011951
      dxy     :     0.009668

  7 C s       :     1.150578  s :     1.150578
      pz      :     0.717349  p :     2.330540
      px      :     0.742041
      py      :     0.871150
      dz2     :     0.013940  d :     0.245638
      dxz     :     0.054157
      dyz     :     0.024397
      dx2y2   :     0.082150
      dxy     :     0.070994

  8 O s       :     1.795914  s :     1.795914
      pz      :     1.430740  p :     4.530793
      px      :     1.396084
      py      :     1.703969
      dz2     :     0.003719  d :     0.033646
      dxz     :     0.009916
      dyz     :     0.002575
      dx2y2   :     0.008333
      dxy     :     0.009104

  9 C s       :     0.962427  s :     0.962427
      pz      :     1.068007  p :     3.058514
      px      :     1.074159
      py      :     0.916348
      dz2     :     0.015809  d :     0.063213
      dxz     :     0.007422
      dyz     :     0.010125
      dx2y2   :     0.016680
      dxy     :     0.013177

 10 C s       :     1.093173  s :     1.093173
      pz      :     0.980667  p :     2.880347
      px      :     0.967774
      py      :     0.931906
      dz2     :     0.029908  d :     0.119416
      dxz     :     0.017512
      dyz     :     0.031575
      dx2y2   :     0.020381
      dxy     :     0.020040

 11 C s       :     0.979115  s :     0.979115
      pz      :     0.982274  p :     2.969299
      px      :     1.000134
      py      :     0.986891
      dz2     :     0.017699  d :     0.063844
      dxz     :     0.010595
      dyz     :     0.015922
      dx2y2   :     0.012792
      dxy     :     0.006836

 12 C s       :     0.956549  s :     0.956549
      pz      :     0.997755  p :     3.047793
      px      :     1.025653
      py      :     1.024384
      dz2     :     0.012692  d :     0.072345
      dxz     :     0.015631
      dyz     :     0.019913
      dx2y2   :     0.005522
      dxy     :     0.018587

 13 C s       :     0.954808  s :     0.954808
      pz      :     1.027746  p :     3.060732
      px      :     1.039633
      py      :     0.993352
      dz2     :     0.007432  d :     0.073134
      dxz     :     0.019918
      dyz     :     0.019121
      dx2y2   :     0.014880
      dxy     :     0.011784

 14 H s       :     0.906005  s :     0.906005
      pz      :     0.011838  p :     0.044060
      px      :     0.010028
      py      :     0.022194

 15 H s       :     0.899106  s :     0.899106
      pz      :     0.021520  p :     0.044129
      px      :     0.012209
      py      :     0.010401

 16 H s       :     0.922202  s :     0.922202
      pz      :     0.014953  p :     0.044217
      px      :     0.015268
      py      :     0.013996

 17 H s       :     0.939872  s :     0.939872
      pz      :     0.016404  p :     0.048405
      px      :     0.010938
      py      :     0.021063

 18 H s       :     0.913995  s :     0.913995
      pz      :     0.020681  p :     0.042754
      px      :     0.011429
      py      :     0.010645

 19 H s       :     0.909975  s :     0.909975
      pz      :     0.009460  p :     0.043861
      px      :     0.010048
      py      :     0.024354

 20 H s       :     0.920885  s :     0.920885
      pz      :     0.019762  p :     0.040107
      px      :     0.010376
      py      :     0.009969

 21 H s       :     0.899356  s :     0.899356
      pz      :     0.015436  p :     0.039244
      px      :     0.014034
      py      :     0.009775

 22 H s       :     0.905216  s :     0.905216
      pz      :     0.021818  p :     0.039605
      px      :     0.011866
      py      :     0.005921

 23 H s       :     0.876288  s :     0.876288
      pz      :     0.013950  p :     0.044146
      px      :     0.017353
      py      :     0.012843

 24 H s       :     0.876950  s :     0.876950
      pz      :     0.024087  p :     0.045799
      px      :     0.011334
      py      :     0.010378

 25 H s       :     0.898391  s :     0.898391
      pz      :     0.010470  p :     0.044230
      px      :     0.021908
      py      :     0.011851

 26 H s       :     0.924399  s :     0.924399
      pz      :     0.010810  p :     0.050039
      px      :     0.013498
      py      :     0.025732

 27 H s       :     0.928779  s :     0.928779
      pz      :     0.020290  p :     0.051745
      px      :     0.017283
      py      :     0.014172

 28 H s       :     0.899375  s :     0.899375
      pz      :     0.012166  p :     0.044130
      px      :     0.016109
      py      :     0.015855

 29 H s       :     0.917911  s :     0.917911
      pz      :     0.017750  p :     0.044110
      px      :     0.012093
      py      :     0.014268

 30 H s       :     0.903743  s :     0.903743
      pz      :     0.011436  p :     0.044044
      px      :     0.018366
      py      :     0.014241

 31 H s       :     0.900018  s :     0.900018
      pz      :     0.015122  p :     0.044610
      px      :     0.011760
      py      :     0.017728

 32 H s       :     0.920868  s :     0.920868
      pz      :     0.014063  p :     0.044281
      px      :     0.018396
      py      :     0.011822

 33 H s       :     0.906320  s :     0.906320
      pz      :     0.016293  p :     0.044993
      px      :     0.017808
      py      :     0.010891



                     *******************************
                     * LOEWDIN POPULATION ANALYSIS *
                     *******************************

----------------------
LOEWDIN ATOMIC CHARGES
----------------------
   0 C :   -0.119391
   1 C :   -0.052232
   2 C :   -0.052861
   3 C :   -0.081702
   4 C :   -0.063004
   5 C :   -0.020254
   6 O :   -0.052090
   7 C :    0.022639
   8 O :   -0.200633
   9 C :   -0.092790
  10 C :   -0.033561
  11 C :   -0.073050
  12 C :   -0.113738
  13 C :   -0.115770
  14 H :    0.053195
  15 H :    0.055307
  16 H :    0.047437
  17 H :    0.035945
  18 H :    0.050266
  19 H :    0.050001
  20 H :    0.051061
  21 H :    0.057480
  22 H :    0.053516
  23 H :    0.076510
  24 H :    0.072867
  25 H :    0.062035
  26 H :    0.036351
  27 H :    0.029539
  28 H :    0.056618
  29 H :    0.049610
  30 H :    0.056334
  31 H :    0.054413
  32 H :    0.049900
  33 H :    0.050053

-------------------------------
LOEWDIN REDUCED ORBITAL CHARGES
-------------------------------
  0 C s       :     0.778077  s :     0.778077
      pz      :     1.066056  p :     3.103520
      px      :     0.984399
      py      :     1.053065
      dz2     :     0.037495  d :     0.237794
      dxz     :     0.064862
      dyz     :     0.029023
      dx2y2   :     0.058399
      dxy     :     0.048015

  1 C s       :     0.801639  s :     0.801639
      pz      :     0.931976  p :     2.874765
      px      :     0.992806
      py      :     0.949983
      dz2     :     0.061696  d :     0.375828
      dxz     :     0.074965
      dyz     :     0.054347
      dx2y2   :     0.096584
      dxy     :     0.088236

  2 C s       :     0.803596  s :     0.803596
      pz      :     0.971985  p :     2.952024
      px      :     0.980102
      py      :     0.999937
      dz2     :     0.035167  d :     0.297241
      dxz     :     0.068838
      dyz     :     0.039563
      dx2y2   :     0.085094
      dxy     :     0.068579

  3 C s       :     0.761306  s :     0.761306
      pz      :     1.003267  p :     3.004216
      px      :     0.962794
      py      :     1.038155
      dz2     :     0.078365  d :     0.316180
      dxz     :     0.072700
      dyz     :     0.028409
      dx2y2   :     0.087947
      dxy     :     0.048759

  4 C s       :     0.757428  s :     0.757428
      pz      :     1.018344  p :     2.935233
      px      :     0.954586
      py      :     0.962303
      dz2     :     0.079948  d :     0.370343
      dxz     :     0.073566
      dyz     :     0.059899
      dx2y2   :     0.090059
      dxy     :     0.066871

  5 C s       :     0.769168  s :     0.769168
      pz      :     1.067492  p :     2.836432
      px      :     1.010969
      py      :     0.757971
      dz2     :     0.064517  d :     0.414655
      dxz     :     0.073046
      dyz     :     0.087350
      dx2y2   :     0.099983
      dxy     :     0.089759

  6 O s       :     1.395921  s :     1.395921
      pz      :     1.662414  p :     4.556998
      px      :     1.528637
      py      :     1.365947
      dz2     :     0.011874  d :     0.099171
      dxz     :     0.008366
      dyz     :     0.017488
      dx2y2   :     0.029434
      dxy     :     0.032009

  7 C s       :     0.786534  s :     0.786534
      pz      :     0.713146  p :     2.520991
      px      :     0.869709
      py      :     0.938136
      dz2     :     0.055026  d :     0.669836
      dxz     :     0.129928
      dyz     :     0.066209
      dx2y2   :     0.220500
      dxy     :     0.198172

  8 O s       :     1.563054  s :     1.563054
      pz      :     1.393760  p :     4.570068
      px      :     1.508953
      py      :     1.667355
      dz2     :     0.008380  d :     0.067512
      dxz     :     0.014350
      dyz     :     0.004141
      dx2y2   :     0.018604
      dxy     :     0.022038

  9 C s       :     0.783823  s :     0.783823
      pz      :     1.064675  p :     3.097120
      px      :     1.074077
      py      :     0.958368
      dz2     :     0.053158  d :     0.211847
      dxz     :     0.022971
      dyz     :     0.034080
      dx2y2   :     0.050417
      dxy     :     0.051221

 10 C s       :     0.798135  s :     0.798135
      pz      :     0.997046  p :     2.861365
      px      :     0.883676
      py      :     0.980643
      dz2     :     0.091018  d :     0.374061
      dxz     :     0.053655
      dyz     :     0.101698
      dx2y2   :     0.066228
      dxy     :     0.061462

 11 C s       :     0.825035  s :     0.825035
      pz      :     1.028578  p :     3.033768
      px      :     0.949483
      py      :     1.055707
      dz2     :     0.058171  d :     0.214247
      dxz     :     0.036236
      dyz     :     0.056918
      dx2y2   :     0.043773
      dxy     :     0.019149

 12 C s       :     0.776950  s :     0.776950
      pz      :     1.013103  p :     3.101977
      px      :     1.049642
      py      :     1.039232
      dz2     :     0.041016  d :     0.234811
      dxz     :     0.050650
      dyz     :     0.064135
      dx2y2   :     0.017336
      dxy     :     0.061673

 13 C s       :     0.776718  s :     0.776718
      pz      :     1.038684  p :     3.103470
      px      :     1.059487
      py      :     1.005299
      dz2     :     0.020980  d :     0.235582
      dxz     :     0.066846
      dyz     :     0.062075
      dx2y2   :     0.045948
      dxy     :     0.039733

 14 H s       :     0.799915  s :     0.799915
      pz      :     0.043578  p :     0.146890
      px      :     0.039030
      py      :     0.064282

 15 H s       :     0.797931  s :     0.797931
      pz      :     0.062538  p :     0.146762
      px      :     0.043224
      py      :     0.041000

 16 H s       :     0.807177  s :     0.807177
      pz      :     0.050394  p :     0.145386
      px      :     0.047229
      py      :     0.047764

 17 H s       :     0.810378  s :     0.810378
      pz      :     0.050944  p :     0.153677
      px      :     0.038801
      py      :     0.063931

 18 H s       :     0.803374  s :     0.803374
      pz      :     0.062801  p :     0.146359
      px      :     0.041553
      py      :     0.042005

 19 H s       :     0.800689  s :     0.800689
      pz      :     0.039983  p :     0.149309
      px      :     0.038987
      py      :     0.070339

 20 H s       :     0.801100  s :     0.801100
      pz      :     0.065348  p :     0.147839
      px      :     0.043177
      py      :     0.039313

 21 H s       :     0.805216  s :     0.805216
      pz      :     0.051380  p :     0.137304
      px      :     0.049725
      py      :     0.036199

 22 H s       :     0.809206  s :     0.809206
      pz      :     0.066898  p :     0.137277
      px      :     0.044413
      py      :     0.025966

[...]
 57:   1311.59   0.007147   36.12  0.001701  (-0.030060 -0.028093 -0.002779)
 58:   1330.56   0.097592  493.19  0.022889  ( 0.113191  0.099121  0.015862)
 59:   1354.41   0.001887    9.54  0.000435  (-0.004481 -0.019459 -0.006010)
 60:   1390.76   0.000308    1.56  0.000069  (-0.005767 -0.004735  0.003675)
 61:   1410.62   0.001365    6.90  0.000302  (-0.015236 -0.007205 -0.004222)
 62:   1423.82   0.000322    1.63  0.000071  (-0.005994 -0.004751  0.003490)
 63:   1437.64   0.013082   66.11  0.002840  (-0.029973 -0.041494 -0.014819)
 64:   1443.64   0.009682   48.93  0.002093  (-0.020648 -0.039764  0.009243)
 65:   1450.33   0.001885    9.53  0.000406  (-0.014571 -0.013895  0.000400)
 66:   1459.19   0.004761   24.06  0.001018  (-0.006123 -0.027012 -0.015843)
 67:   1466.93   0.008227   41.58  0.001750  ( 0.019466  0.036250  0.007564)
 68:   1481.64   0.000535    2.70  0.000113  (-0.008159 -0.006169 -0.002825)
 69:   1502.49   0.000970    4.90  0.000201  ( 0.012095 -0.007381 -0.000776)
 70:   1502.58   0.002476   12.51  0.000514  (-0.016616  0.014154  0.006148)
 71:   1509.31   0.001860    9.40  0.000385  ( 0.017663 -0.000547  0.008501)
 72:   1509.41   0.003309   16.72  0.000684  ( 0.008078 -0.004163  0.024525)
 73:   1509.78   0.000304    1.54  0.000063  ( 0.002119  0.004939 -0.005831)
 74:   1521.88   0.004622   23.36  0.000948  (-0.003136  0.029200 -0.009234)
 75:   1522.75   0.002918   14.75  0.000598  ( 0.000531 -0.007661 -0.023218)
 76:   1526.77   0.001031    5.21  0.000211  ( 0.006104 -0.004887 -0.012227)
 77:   1533.08   0.002292   11.58  0.000467  ( 0.020295 -0.005844 -0.004537)
 78:   1540.68   0.001118    5.65  0.000226  (-0.011008 -0.007431  0.007070)
 79:   1777.55   0.004878   24.65  0.000856  ( 0.012912 -0.010866 -0.023909)
 80:   1804.71   0.001026    5.19  0.000177  ( 0.009030 -0.007746 -0.005990)
 81:   1876.88   0.067946  343.37  0.011297  (-0.101334  0.024544  0.020646)
 82:   3092.65   0.005943   30.03  0.000600  (-0.022890 -0.008639 -0.001055)
 83:   3094.92   0.003500   17.69  0.000353  ( 0.004594  0.010031 -0.015204)
 84:   3097.38   0.009120   46.09  0.000919  ( 0.020239 -0.015945 -0.015968)
 85:   3105.42   0.000845    4.27  0.000085  ( 0.000363  0.007120  0.005836)
 86:   3115.78   0.005994   30.29  0.000600  (-0.010291 -0.007609  0.020893)
 87:   3131.56   0.002104   10.64  0.000210  ( 0.007882 -0.011496 -0.003929)
 88:   3135.78   0.000491    2.48  0.000049  ( 0.001523 -0.006537 -0.001961)
 89:   3167.03   0.000188    0.95  0.000018  ( 0.000634 -0.003127  0.002881)
 90:   3168.37   0.004152   20.98  0.000409  ( 0.004139 -0.012110  0.015658)
 91:   3174.60   0.001412    7.14  0.000139  (-0.010371  0.000331 -0.005579)
 92:   3182.27   0.001768    8.94  0.000173  ( 0.005106 -0.011734 -0.003107)
 93:   3196.83   0.001787    9.03  0.000174  ( 0.003479 -0.003739  0.012182)
 94:   3205.80   0.001317    6.65  0.000128  (-0.002919  0.008564  0.006805)
 95:   3208.12   0.000940    4.75  0.000091  ( 0.001491  0.008240 -0.004612)
 96:   3209.16   0.002715   13.72  0.000264  (-0.002615  0.013726  0.008292)
 97:   3214.70   0.003941   19.92  0.000383  ( 0.004746  0.015556  0.010865)
 98:   3222.58   0.002727   13.78  0.000264  (-0.014694 -0.006819 -0.001296)
 99:   3229.89   0.000108    0.54  0.000010  ( 0.000494 -0.000446  0.003155)
100:   3264.40   0.000257    1.30  0.000025  ( 0.002903  0.003943  0.000789)
101:   3300.59   0.001276    6.45  0.000121  ( 0.001633  0.010454 -0.002954)

* The epsilon (eps) is given for a Dirac delta lineshape.
** The dipole moment derivative (T) already includes vibrational overlap.

The first frequency considered to be a vibration is 6
The total number of vibrations considered is 96


--------------------------
THERMOCHEMISTRY AT 298.15K
--------------------------

Temperature         ...   298.15 K
Pressure            ...     1.00 atm
Total Mass          ...   196.29 AMU
Quasi RRHO          ...     True
Cut-Off Frequency   ...     1.00 cm^-1

Throughout the following assumptions are being made:
  (1) The electronic state is orbitally nondegenerate
  (2) There are no thermally accessible electronically excited states
  (3) Hindered rotations indicated by low frequency modes are not
      treated as such but are treated as vibrations and this may
      cause some error
  (4) All equations used are the standard statistical mechanics
      equations for an ideal gas
  (5) All vibrations are strictly harmonic

freq.      19.76  E(vib)   ...       0.56 
freq.      26.20  E(vib)   ...       0.56 
freq.      33.90  E(vib)   ...       0.55 
freq.      36.78  E(vib)   ...       0.54 
freq.      50.12  E(vib)   ...       0.52 
freq.      67.87  E(vib)   ...       0.50 
freq.      95.40  E(vib)   ...       0.47 
freq.     110.91  E(vib)   ...       0.45 
freq.     136.30  E(vib)   ...       0.42 
freq.     178.72  E(vib)   ...       0.37 
freq.     189.83  E(vib)   ...       0.36 
freq.     207.76  E(vib)   ...       0.34 
freq.     222.84  E(vib)   ...       0.33 
freq.     245.02  E(vib)   ...       0.31 
freq.     271.34  E(vib)   ...       0.29 
freq.     290.60  E(vib)   ...       0.27 
freq.     341.77  E(vib)   ...       0.23 
freq.     385.18  E(vib)   ...       0.20 
freq.     412.11  E(vib)   ...       0.19 
freq.     436.92  E(vib)   ...       0.17 
freq.     475.22  E(vib)   ...       0.15 
freq.     484.50  E(vib)   ...       0.15 
freq.     541.66  E(vib)   ...       0.12 
freq.     560.12  E(vib)   ...       0.12 
freq.     605.25  E(vib)   ...       0.10 
freq.     624.78  E(vib)   ...       0.09 
freq.     672.01  E(vib)   ...       0.08 
freq.     749.17  E(vib)   ...       0.06 
freq.     800.60  E(vib)   ...       0.05 
freq.     822.53  E(vib)   ...       0.05 
freq.     884.88  E(vib)   ...       0.04 
freq.     922.21  E(vib)   ...       0.03 
freq.     943.29  E(vib)   ...       0.03 
freq.     961.18  E(vib)   ...       0.03 
freq.     974.81  E(vib)   ...       0.03 
freq.     986.90  E(vib)   ...       0.02 
freq.    1015.76  E(vib)   ...       0.02 
freq.    1031.60  E(vib)   ...       0.02 
freq.    1033.17  E(vib)   ...       0.02 
freq.    1042.07  E(vib)   ...       0.02 
freq.    1080.87  E(vib)   ...       0.02 
freq.    1093.14  E(vib)   ...       0.02 
freq.    1096.34  E(vib)   ...       0.02 
freq.    1109.50  E(vib)   ...       0.02 
freq.    1129.22  E(vib)   ...       0.01 
freq.    1148.39  E(vib)   ...       0.01 
freq.    1154.71  E(vib)   ...       0.01 
freq.    1176.32  E(vib)   ...       0.01 
freq.    1222.09  E(vib)   ...       0.01 
freq.    1280.69  E(vib)   ...       0.01 
freq.    1289.37  E(vib)   ...       0.01 
freq.    1311.59  E(vib)   ...       0.01 
freq.    1330.56  E(vib)   ...       0.01 
freq.    1354.41  E(vib)   ...       0.01 
freq.    1390.76  E(vib)   ...       0.00 
freq.    1410.62  E(vib)   ...       0.00 
freq.    1423.82  E(vib)   ...       0.00 
freq.    1437.64  E(vib)   ...       0.00 
freq.    1443.64  E(vib)   ...       0.00 
freq.    1450.33  E(vib)   ...       0.00 
freq.    1459.19  E(vib)   ...       0.00 
freq.    1466.93  E(vib)   ...       0.00 
freq.    1481.64  E(vib)   ...       0.00 
freq.    1502.49  E(vib)   ...       0.00 
freq.    1502.58  E(vib)   ...       0.00 
freq.    1509.31  E(vib)   ...       0.00 
freq.    1509.41  E(vib)   ...       0.00 
freq.    1509.78  E(vib)   ...       0.00 
freq.    1521.88  E(vib)   ...       0.00 
freq.    1522.75  E(vib)   ...       0.00 
freq.    1526.77  E(vib)   ...       0.00 
freq.    1533.08  E(vib)   ...       0.00 
freq.    1540.68  E(vib)   ...       0.00 
freq.    1777.55  E(vib)   ...       0.00 
freq.    1804.71  E(vib)   ...       0.00 
freq.    1876.88  E(vib)   ...       0.00 
freq.    3092.65  E(vib)   ...       0.00 
freq.    3094.92  E(vib)   ...       0.00 
freq.    3097.38  E(vib)   ...       0.00 
freq.    3105.42  E(vib)   ...       0.00 
freq.    3115.78  E(vib)   ...       0.00 
freq.    3131.56  E(vib)   ...       0.00 
freq.    3135.78  E(vib)   ...       0.00 
freq.    3167.03  E(vib)   ...       0.00 
freq.    3168.37  E(vib)   ...       0.00 
freq.    3174.60  E(vib)   ...       0.00 
freq.    3182.27  E(vib)   ...       0.00 
freq.    3196.83  E(vib)   ...       0.00 
freq.    3205.80  E(vib)   ...       0.00 
freq.    3208.12  E(vib)   ...       0.00 
freq.    3209.16  E(vib)   ...       0.00 
freq.    3214.70  E(vib)   ...       0.00 
freq.    3222.58  E(vib)   ...       0.00 
freq.    3229.89  E(vib)   ...       0.00 
freq.    3264.40  E(vib)   ...       0.00 
freq.    3300.59  E(vib)   ...       0.00 

------------
INNER ENERGY
------------

The inner energy is: U= E(el) + E(ZPE) + E(vib) + E(rot) + E(trans)
    E(el)   - is the total energy from the electronic structure calculation
              = E(kin-el) + E(nuc-el) + E(el-el) + E(nuc-nuc)
    E(ZPE)  - the the zero temperature vibrational energy from the frequency calculation
    E(vib)  - the the finite temperature correction to E(ZPE) due to population
              of excited vibrational states
    E(rot)  - is the rotational thermal energy
    E(trans)- is the translational thermal energy

Summary of contributions to the inner energy U:
Electronic energy                ...   -112.54141478 Eh
Zero point energy                ...      0.30479259 Eh     191.26 kcal/mol
Thermal vibrational correction   ...      0.01446646 Eh       9.08 kcal/mol
Thermal rotational correction    ...      0.00141627 Eh       0.89 kcal/mol
Thermal translational correction ...      0.00141627 Eh       0.89 kcal/mol
-----------------------------------------------------------------------
Total thermal energy                   -112.21932318 Eh


Summary of corrections to the electronic energy:
(perhaps to be used in another calculation)
Total thermal correction                  0.01729900 Eh      10.86 kcal/mol
Non-thermal (ZPE) correction              0.30479259 Eh     191.26 kcal/mol
-----------------------------------------------------------------------
Total correction                          0.32209160 Eh     202.12 kcal/mol


--------
ENTHALPY
--------

The enthalpy is H = U + kB*T
                kB is Boltzmann's constant
Total thermal energy              ...   -112.21932318 Eh 
Thermal Enthalpy correction       ...      0.00094421 Eh       0.59 kcal/mol
-----------------------------------------------------------------------
Total Enthalpy                    ...   -112.21837897 Eh


Note: Only C1 symmetry has been detected, increase convergence thresholds 
      if your molecule has a higher symmetry. Symmetry factor of 1.0 is   
      used for the rotational entropy correction. 
 

Note: Rotational entropy computed according to Herzberg 
Infrared and Raman Spectra, Chapter V,1, Van Nostrand Reinhold, 1945 
Point Group:  C1, Symmetry Number:   1  
Rotational constants in cm-1:     0.027834     0.012570     0.009496 

Vibrational entropy computed according to the QRRHO of S. Grimme
Chem.Eur.J. 2012 18 9955 using a reference frequency of 100.0 cm-1


-------
ENTROPY
-------

The entropy contributions are T*S = T*(S(el)+S(vib)+S(rot)+S(trans))
     S(el)   - electronic entropy
     S(vib)  - vibrational entropy
     S(rot)  - rotational entropy
     S(trans)- translational entropy
The entropies will be listed as multiplied by the temperature to get
units of energy

Electronic entropy                ...      0.00000000 Eh      0.00 kcal/mol
Vibrational entropy               ...      0.02671184 Eh     16.76 kcal/mol
Rotational entropy                ...      0.01546614 Eh      9.71 kcal/mol
Translational entropy             ...      0.01982641 Eh     12.44 kcal/mol
-----------------------------------------------------------------------
Final entropy term                ...      0.06200438 Eh     38.91 kcal/mol

In case the symmetry of your molecule has not been determined correctly
or in case you have a reason to use a different symmetry number we print 
out the resulting rotational entropy values for sn=1,12:

 non-linear molecules -----------------------------------
|  sn= 1 | S(rot)=       0.01546614 Eh      9.71 kcal/mol|
|  sn= 2 | S(rot)=       0.01481168 Eh      9.29 kcal/mol|
|  sn= 3 | S(rot)=       0.01442885 Eh      9.05 kcal/mol|
|  sn= 4 | S(rot)=       0.01415722 Eh      8.88 kcal/mol|
|  sn= 5 | S(rot)=       0.01394653 Eh      8.75 kcal/mol|
|  sn= 6 | S(rot)=       0.01377439 Eh      8.64 kcal/mol|
|  sn= 7 | S(rot)=       0.01362884 Eh      8.55 kcal/mol|
|  sn= 8 | S(rot)=       0.01350277 Eh      8.47 kcal/mol|
|  sn= 9 | S(rot)=       0.01339156 Eh      8.40 kcal/mol|
|  sn=10 | S(rot)=       0.01329208 Eh      8.34 kcal/mol|
|  sn=11 | S(rot)=       0.01320209 Eh      8.28 kcal/mol|
|  sn=12 | S(rot)=       0.01311993 Eh      8.23 kcal/mol|
 linear molecules ---------------------------------------
|  Dinfh | S(rot)=       0.00972272 Eh      6.10 kcal/mol|
|  Cinfv | S(rot)=       0.01037718 Eh      6.51 kcal/mol|
 --------------------------------------------------------


-------------------
GIBBS FREE ENERGY
-------------------

The Gibbs free energy is G = H - T*S

Total enthalpy                    ...   -112.21837897 Eh 
Total entropy correction          ...     -0.06200438 Eh    -38.91 kcal/mol
-----------------------------------------------------------------------
Final Gibbs free energy         ...   -112.28038335 Eh

For completeness - the Gibbs free energy minus the electronic energy
G-E(el)                           ...      0.26103143 Eh    163.80 kcal/mol


Maximum memory used throughout the entire PROP-calculation: 191.8 MB

--------------------------------
SUGGESTED CITATIONS FOR THIS RUN
--------------------------------

Below you find a list of papers that are relevant to this ORCA run
We neither can nor want to force you to cite these papers, but we appreciate if you do
You receive ORCA, which is the product of decades of hard work by many enthusiastic individuals, for free
The only thing we kindly ask in return is that you cite our papers,
We deeply appreciate it, if you show your appreciation for ORCA by not just citing the generic ORCA reference.

Please note that relegating all ORCA citations to the supporting information does *not* help us.
SI sections are not indexed - citations you put there will not count into any citation statistics
But we need these citations in order to attract the funding resources that allow us to do what we are doing

Therefore, if you are a happy ORCA user, please consider citing a few of the papers listed below in the main body of your paper

In addition to the list printed below, the program has created the file ./output/lavandulyl_acetate/lavandulyl_acetate.bibtex that contains the list in bibtex format
You can import this file easily into all common literature databanks and citation aid programs


List of essential papers. We consider these as the minimum necessary citations

  1. Neese,F.
     Software update: the ORCA program system, version 5.0
     WIRES Comput. Molec. Sci., 2022 12(1)e1606
     doi.org/10.1002/wcms.1606
  2. Mueller,M.; Hansen,A.; Grimme,S.
     wB97X-3c: A composite range-separated hybrid DFT method with a molecule-optimized polarized valence double-zeta basis set
     J. Chem. Phys., 2023 158 014103
     doi.org/10.1063/5.0133026

List of papers to cite with high priority. The work reported in these papers was absolutely
necessary for this run to complete.
Our perspective: the developers of density functionals and basis sets usually get cited in chemistry papers
Good! But without the algorithms to do something with them, the functionals or basis sets would not do anything.
Hence, in our opinion, the algorithm design and method developments papers are equally worthy of getting cited

  1. Neese,F.
     An improvement of the resolution of the identity approximation for the formation of the Coulomb matrix
     J. Comp. Chem., 2003 24(14)1740-1747
     doi.org/10.1002/jcc.10318
  2. Neese,F.; Wennmohs,F.; Hansen,A.; Becker,U.
     Efficient, approximate and parallel Hartree-Fock and hybrid DFT calculations. A 'chain-of-spheres' algorithm for the Hartree-Fock exchange
     Chem. Phys., 2009 356(1-3)98-109
     doi.org/10.1016/j.chemphys.2008.10.036
  3. Bykov,D.; Petrenko,T.; Izsak,R.; Kossmann,S.; Becker,U.; Valeev,E.; Neese,F.
     Efficient implementation of the analytic second derivatives of Hartree-Fock and hybrid DFT energies: a detailed analysis of different approximations
     Molec. Phys., 2015 113 1961-1977
     doi.org/10.1080/00268976.2015.1025114
  4. Helmich-Paris,B.; de Souza,B.; Neese,F.; Izsák,R.
     An improved chain of spheres for exchange algorithm
     J. Chem. Phys., 2021 155 104109
     doi.org/doi: 10.1063/5.0058766.
  5. Neese,F.
     The SHARK Integral Generation and Digestion System
     J. Comp. Chem., 2022  1-16
     doi.org/10.1002/jcc.26942
  6. Caldeweyher,E.; Bannwarth,C.; Grimme,S.
     Extension of the D3 dispersion coefficient model
     J. Chem. Phys., 2017 147 034112
     doi.org/10.1063/1.4993215
  7. Caldeweyher,E.; Ehlert,S.; Hansen,A.; Neugebauer,H.; Spicher,S.; Bannwarth,C.; Grimme,S.
     A generally applicable atomic-charge dependent London dispersion correction
     J. Chem. Phys., 2019 150 154122
     doi.org/10.1063/1.5090222
  8. Caldeweyher,E.; Mewes,J.; Ehlert,S.; Grimme,S.
     Extension and evaluation of the D4 London-dispersion model for periodic systems
     Phys. Chem. Chem. Phys., 2020 22(16)8499-8512
     doi.org/10.1039/D0CP00502A
  9. Wittmann,L.; Gordiy,I.; Friede,M.; Helmich-Paris,B.; Grimme,S.; Hansen,A.; Bursch,M.
     Extension of the D3 and D4 London Dispersion Corrections to the full Actinides Series
     Phys. Chem. Chem. Phys., 2024 26(32)21379-21394
     doi.org/https://doi.org/10.1039/D4CP01514B 

List of suggested additional citations. These are papers that are important in the 'surrounding' of 
of this run, or papers that preceded the highly important papers. If you like your results we are grateful for a citation.

  1. Izsak,R.; Neese,F.
     An overlap fitted chain of spheres exchange method
     J. Chem. Phys., 2011 135 144105
     doi.org/10.1063/1.3646921
  2. Izsak,R.; Hansen,A.; Neese,F.
     The resolution of identity and chain of spheres approximations for the LPNO-CCSD singles Fock term
     Molec. Phys., 2012 110 2413-2417
     doi.org/10.1080/00268976.2012.687466
  3. Neese,F.
     The ORCA program system
     WIRES Comput. Molec. Sci., 2012 2(1)73-78
     doi.org/10.1002/wcms.81
  4. Izsak,R.; Neese,F.; Klopper,W.
     Robust fitting techniques in the chain of spheres approximation to the Fock exchange: The role of the complementary space
     J. Chem. Phys., 2013 139 
     doi.org/10.1063/1.4819264
  5. Neese,F.
     Software update: the ORCA program system, version 4.0
     WIRES Comput. Molec. Sci., 2018 8(1)1-6
     doi.org/10.1002/wcms.1327
  6. Neese,F.; Wennmohs,F.; Becker,U.; Riplinger,C.
     The ORCA quantum chemistry program package
     J. Chem. Phys., 2020 152 Art. No. L224108
     doi.org/10.1063/5.0004608

List of optional additional citations

  1. Neese,F.
     Approximate second-order SCF convergence for spin unrestricted wavefunctions
     Chem. Phys. Lett., 2000 325(1-3)93-98
     doi.org/10.1016/s0009-2614(00)00662-x

Timings for individual modules:

Sum of individual times          ...     2659.692 sec (=  44.328 min)
Startup calculation              ...      144.677 sec (=   2.411 min)   5.4 %
SCF iterations                   ...     1829.177 sec (=  30.486 min)  68.8 %
Property integrals               ...      111.928 sec (=   1.865 min)   4.2 %
SCF Response                     ...       62.688 sec (=   1.045 min)   2.4 %
Property calculations            ...      140.139 sec (=   2.336 min)   5.3 %
SCF Gradient evaluation          ...      370.233 sec (=   6.171 min)  13.9 %
Geometry relaxation              ...        0.850 sec (=   0.014 min)   0.0 %
                             ****ORCA TERMINATED NORMALLY****
TOTAL RUN TIME: 0 days 0 hours 44 minutes 34 seconds 928 msec
