
                                 *****************
                                 * O   R   C   A *
                                 *****************

                                            #,                                       
                                            ###                                      
                                            ####                                     
                                            #####                                    
                                            ######                                   
                                           ########,                                 
                                     ,,################,,,,,                         
                               ,,#################################,,                 
                          ,,##########################################,,             
                       ,#########################################, ''#####,          
                    ,#############################################,,   '####,        
                  ,##################################################,,,,####,       
                ,###########''''           ''''###############################       
              ,#####''   ,,,,##########,,,,          '''####'''          '####       
            ,##' ,,,,###########################,,,                        '##       
           ' ,,###''''                  '''############,,,                           
         ,,##''                                '''############,,,,        ,,,,,,###''
      ,#''                                            '''#######################'''  
     '                                                          ''''####''''         
             ,#######,   #######,   ,#######,      ##                                
            ,#'     '#,  ##    ##  ,#'     '#,    #''#        ,####,   ,####,        
            ##       ##  ##   ,#'  ##            #'  '#       #'       #'  '#        
            ##       ##  #######   ##           ,######,      #####,   #    #        
            '#,     ,#'  ##    ##  '#,     ,#' ,#      #,     #,   #   #,  ,#        
             '#######'   ##     ##  '#######'  #'      '#     '####' # '####'        



                #########################################################
                #                        -***-                          #
                #          Department of theory and spectroscopy        #
                #                                                       #
                #                      Frank Neese                      #
                #                                                       #
                #     Directorship, Architecture, Infrastructure        #
                #                    SHARK, DRIVERS                     #
                #        Core code/Algorithms in most modules           #
                #                                                       #
                #        Max Planck Institute fuer Kohlenforschung      #
                #                Kaiser Wilhelm Platz 1                 #
                #                 D-45470 Muelheim/Ruhr                 #
                #                      Germany                          #
                #                                                       #
                #                  All rights reserved                  #
                #                        -***-                          #
                #########################################################


                         Program Version 6.0.1  -  RELEASE   -


 With contributions from (in alphabetic order):
[Max-Planck-Institut fuer Kohlenforschung]                               
  Daniel Aravena         : Magnetic Suceptibility                        
  Michael Atanasov       : Ab Initio Ligand Field Theory (pilot matlab implementation)
  Alexander A. Auer      : GIAO ZORA, VPT2 properties, NMR spectrum      
  Ute Becker             : All parallelization in ORCA, NUMFREQ, NUMCALC 
  Giovanni Bistoni       : ED, misc. LED, open-shell LED, HFLD           
  Martin Brehm           : Molecular dynamics                            
  Dmytro Bykov           : pre 5.0 version of the SCF Hessian            
  Marcos Casanova-Páez   : Triplet and SCS-CIS(D). UHF-(DLPNO)-IP/EA/STEOM-CCSD. UHF-CVS-IP/STEOM-CCSD   
  Vijay G. Chilkuri      : MRCI spin determinant printing, contributions to CSF-ICE 
  Pauline Colinet        : FMM embedding                                 
  Dipayan Datta          : RHF DLPNO-CCSD density                        
  Achintya Kumar Dutta   : EOM-CC, STEOM-CC                              
  Nicolas Foglia         : Exact transition moments, OPA infrastructure, MCD improvements    
  Dmitry Ganyushin       : Spin-Orbit,Spin-Spin,Magnetic field MRCI      
  Miquel Garcia-Rates    : C-PCM and meta-GGA Hessian, CCSD/C-PCM, Gaussian charge scheme 
  Tiago L. C. Gouveia    : GS-ROHF, GS-ROCIS                             
  Yang Guo               : DLPNO-NEVPT2, F12-NEVPT2, CIM, IAO-localization        
  Andreas Hansen         : Spin unrestricted coupled pair/coupled cluster methods 
  Ingolf Harden          : AUTO-CI MPn and infrastructure                
  Benjamin Helmich-Paris : MC-RPA, TRAH-(SCF,CASSCF), AVAS, COSX integrals, SCF dyn. polar. 
  Lee Huntington         : MR-EOM, pCC                                   
  Robert Izsak           : Overlap fitted RIJCOSX, COSX-SCS-MP3, EOM     
  Riya Kayal             : Wick's Theorem for AUTO-CI, AUTO-CI UHF-CCSDT 
  Emily Kempfer          : AUTO-CI, RHF CISDT and CCSDT                  
  Christian Kollmar      : KDIIS, OOCD, Brueckner-CCSD(T), CCSD density, CASPT2, CASPT2-K, improved NEVPT2 
  Axel Koslowski         : Symmetry handling                             
  Simone Kossmann        : meta-GGA functionals, TD-DFT gradient, OOMP2, (MP2 Hessian; deprecated post 5.0) 
  Lucas Lang             : DCDCAS                                        
  Marvin Lechner         : AUTO-CI (C++ implementation), FIC-MRCC        
  Spencer Leger          : CASSCF response                               
  Dagmar Lenk            : GEPOL surface, SMD, ORCA-2-JSON               
  Dimitrios Liakos       : Extrapolation schemes; Compound Job, initial MDCI parallelization 
  Dimitrios Manganas     : Further ROCIS development; embedding schemes. LFT, Crystal Embedding 
  Dimitrios Pantazis     : SARC Basis sets                               
  Anastasios Papadopoulos: AUTO-CI, single reference methods and gradients 
  Taras Petrenko         : pre 6.0 DFT Hessian and TD-DFT gradient, (ASA, deprecated), ECA, 1-Electron XAS/XES, NRVS 
  Peter Pinski           : DLPNO-MP2, DLPNO-MP2 Gradient                 
  Christoph Reimann      : Effective Core Potentials                     
  Marius Retegan         : Local ZFS, SOC                                
  Christoph Riplinger    : Optimizer, TS searches, QM/MM, DLPNO-CCSD(T), (RO)-DLPNO pert. Triples 
  Michael Roemelt        : Original ROCIS implementation                 
  Masaaki Saitow         : Open-shell DLPNO-CCSD energy and density      
  Barbara Sandhoefer     : DKH picture change effects                    
  Kantharuban Sivalingam : CASSCF convergence/infrastructure, NEVPT2 and variants, FIC-MRCI 
  Bernardo de Souza      : ESD, SOC TD-DFT                               
  Georgi L. Stoychev     : AutoAux, RI-MP2 NMR, DLPNO-MP2 response, X2C  
  Van Anh Tran           : RI-MP2 g-tensors                              
  Willem Van den Heuvel  : Paramagnetic NMR                              
  Zikuan Wang            : NOTCH, Electric field optimization            
  Frank Wennmohs         : Technical directorship and infrastructure     
  Hang Xu                : AUTO-CI-Response properties                   
                                                                         
[FACCTs GmbH]                                                            
  Markus Bursch, Miquel Garcia-Rates, Christoph Riplinger, Bernardo de Souza, Georgi L. Stoychev 
                                                                 
  APM, Basis sets (HGBS, AHGBS, def-TZVP (Ac-Lr), def2-XVPD (La-Lu)), CI-OPT, improved COSX, DLPNO-Multilevel,           
  DOCKER, DRACO, updates on ESD, GOAT, IRC, LR-CPCM, MBIS, meta-GGA TD-DFT gradient, ML-optimized integration grids, 
  MM, NACMEs, nearIR, NEB, NEB-TS, NL-DFT gradient (VV10), 2- and 3-layer-ONIOM, interface openCOSMO-RS, QMMM,   
  Crystal-QMMM, SF, symmetry and pop. for TD-DFT, r2SCAN hybrids, SOLVATOR                                   
                                                                         
[Other institutions]                                                     
  V. Asgeirsson          : NEB                                           
  Christoph Bannwarth    : sTDA-DFT, sTD-DFT, PBEh-3c, B97-3c, D3        
  Sebastian Ehlert       : rSCAN, r2SCAN, r2SCAN-3c, D4, dhf basis sets  
  Marvin Friede          : D4 for Fr, Ra, Ac-Lr                          
  Lars Goerigk           : TD-DFT with DH, B97 family of functionals     
  Stefan Grimme          : VdW corrections, initial TS optimization, DFT functionals, gCP, sTDA/sTD-DF 
  Waldemar Hujo          : DFT-NL                                        
  H. Jonsson             : NEB                                           
  Holger Kruse           : gCP                                           
  Marcel Mueller         : wB97X-3c, vDZP basis set                      
  Hagen Neugebauer       : wr2SCAN                                       
  Tobias Risthaus        : range-separated hybrid DFT                    
  Lukas Wittmann         : regularized MP2, r2SCAN double-hybrids, wr2SCAN        
                                                                         
We gratefully acknowledge several colleagues who have allowed us to      
interface, adapt or use parts of their codes:                            
  Ed Valeev, F. Pavosevic, A. Kumar             : LibInt (2-el integral package), F12 methods 
  Garnet Chan, S. Sharma, J. Yang, R. Olivares  : DMRG                   
  Ulf Ekstrom                                   : XCFun DFT Library      
  Mihaly Kallay                                 : mrcc  (arbitrary order and MRCC methods)
  Frank Weinhold                                : gennbo (NPA and NBO analysis)           
  Simon Mueller                                 : openCOSMO-RS                            
  Christopher J. Cramer and Donald G. Truhlar   : smd solvation model                     
  S Lehtola, MJT Oliveira, MAL Marques          : LibXC Library                           
  Liviu Ungur et al                             : ANISO software                          


 Your calculation uses the libint2 library for the computation of 2-el integrals
 For citations please refer to: http://libint.valeyev.net

 Your ORCA version has been built with support for libXC version: 6.2.2
 For citations please refer to: https://libxc.gitlab.io

 This ORCA versions uses:
   CBLAS   interface :  Fast vector & matrix operations
   LAPACKE interface :  Fast linear algebra routines
   SCALAPACK package :  Parallel linear algebra routines
   Shared memory     :  Shared parallel matrices
   BLAS/LAPACK       :  OpenBLAS 0.3.27  USE64BITINT DYNAMIC_ARCH NO_AFFINITY SkylakeX SINGLE_THREADED
        Core in use  :  SkylakeX
   Copyright (c) 2011-2014, The OpenBLAS Project


Your calculation utilizes the atom-pairwise dispersion correction
based on EEQ partial charges (D4)


================================================================================

cite the ECPs for C  [vDZP-ECP], O  [vDZP-ECP] as follows:
   B-Ne (ecp-2-mwb), Al-Ar (ecp-10-mwb), Ga-Kr (ecp-28-mwb), Y-Cd (ecp-28-mwb), In-Xe (ecp-46-mwb):
     A. Bergner, M. Dolg, W. Küchle, H. Stoll, and H. Preuß, Mol. Phys. 80, 1431 (1993)., T. Leininger, A. Berning, A. Nicklass, H. Stoll, H.-J. Werner, and H.-J.Flad, Chem. Phys. 217, 19 (1997).
   Na-Mg, K-Ca, Rb-Sr, Cs-Ba (CRENBL):
     L. Fernandez Pacios and P. A. Christiansen, J. Chem. Phys. 82, 2664 (1985)., M. M. Hurley, L. F. Pacios, P. A. Christiansen, R. B. Ross, and W. C. Ermler, J. Chem. Phys. 84, 6840 (1986)., L. A. LaJohn, P. A. Christiansen, R. B. Ross, T. Atashroo, and W. C. Ermler, J. Chem. Phys. 87, 2812 (1987)., R. B. Ross, J. M. Powers, T. Atashroo, W. C. Ermler, L. A. LaJohn, and P. A. Christiansen, J. Chem. Phys. 93, 6654 (1990). 
   Sc-Zn (ecp-10-mdf):
     M. Dolg, U. Wedig, H. Stoll, and H. Preuss, J. Chem. Phys. 86, 866 (1986). 
   Y-Cd (ecp-28-mwb), Hf-Hg (ecp-60-mwb):
     D. Andrae, U. Häußermann, M. Dolg, H. Stoll, and H. Preuß, Theor. Chim. Acta 77, 123 (1990). 
   La (ecp-46-mwb):
     M. Dolg, H. Stoll, and H. Preuss, J. Chem. Phys. 90, 1730 (1989)., M. Dolg, H. Stoll, and H. Preuss, Theor. Chim. Acta 85, 441 (1993).
   Ce-Lu (SBKJC-ecp):
     T. R. Cundari and W. J. Stevens, J. Chem. Phys. 98, 5555 (1993).
   Tl-Rn (ecp-78-mwb):
     W. Küchle, M. Dolg, H. Stoll, and H. Preuss, Mol. Phys. 74, 1245 (1991).

ECP parameters for C  [vDZP-ECP], O  [vDZP-ECP] have been obtained from:
MM, AH, SG, J. Chem. Phys. 158, 014103 (2023), 10.1063/5.0133026

----- Orbital basis set information -----
Your calculation utilizes the basis: vDZP
   Marcel Mueller, Andreas Hansen, Stefan Grimme 
   J. Chem. Phys. 158, 014103 (2023). DOI: 10.1063/5.0133026

----- AuxJ basis set information -----
Your calculation utilizes the auxiliary basis: def2/J
   F. Weigend, Phys. Chem. Chem. Phys. 8, 1057 (2006).

================================================================================
                                        WARNINGS
                       Please study these warnings very carefully!
================================================================================

WARNING: Frozen-Core approximation turned on, but there are no core electrons.
  ===> : Turning off frozen-core approximation


WARNING: Geometry Optimization
  ===> : Switching off AutoStart
         For restart on a previous wavefunction, please use MOREAD

================================================================================
                                       INPUT FILE
================================================================================
NAME = ./output/carvone/carvone.inp
|  1> ! wB97X-3c OPT FREQ TightSCF
|  2> %pal
|  3>   nprocs 40
|  4> end
|  5> * xyz 0 1
|  6> C      3.692319     0.277651     0.370668
|  7> C      2.212136     0.241549     0.107492
|  8> C      1.389338     1.045725     0.802450
|  9> C     -0.097791     1.062862     0.566575
| 10> C     -0.609814    -0.330049     0.152341
| 11> C      0.169681    -0.842612    -1.073208
| 12> C      1.651576    -0.766347    -0.827166
| 13> O      2.418892    -1.545997    -1.453330
| 14> C     -2.111920    -0.325117    -0.099270
| 15> C     -2.657117     0.436769    -1.063272
| 16> C     -3.021431    -1.184932     0.740132
| 17> H      4.009174     1.268066     0.762782
| 18> H      3.954431    -0.505196     1.112671
| 19> H      4.256034     0.091529    -0.567553
| 20> H      1.795496     1.744769     1.524109
| 21> H     -0.312655     1.809968    -0.226868
| 22> H     -0.609676     1.388181     1.497967
| 23> H     -0.389238    -1.023645     0.994994
| 24> H     -0.063050    -0.232693    -1.971826
| 25> H     -0.120228    -1.896085    -1.280028
| 26> H     -3.729795     0.432497    -1.233601
| 27> H     -2.046742     1.073478    -1.694772
| 28> H     -3.757573    -0.544999     1.271255
| 29> H     -3.565918    -1.901551     0.089357
| 30> H     -2.456127    -1.765614     1.498099
| 31> *
| 32> 
| 33>                          ****END OF INPUT****
================================================================================

                       *****************************
                       * Geometry Optimization Run *
                       *****************************

Geometry optimization settings:
Update method            Update   .... BFGS
Choice of coordinates    CoordSys .... (2022) Redundant Internals
Initial Hessian          InHess   .... Almloef's Model
Max. no of cycles        MaxIter  .... 75

Convergence Tolerances:
Energy Change            TolE     ....  5.0000e-06 Eh
Max. Gradient            TolMAXG  ....  3.0000e-04 Eh/bohr
RMS Gradient             TolRMSG  ....  1.0000e-04 Eh/bohr
Max. Displacement        TolMAXD  ....  4.0000e-03 bohr
RMS Displacement         TolRMSD  ....  2.0000e-03 bohr
Strict Convergence                .... False

------------------------------------------------------------------------------
                        ORCA OPTIMIZATION COORDINATE SETUP
------------------------------------------------------------------------------

The optimization will be done in redundant internal coordinates (2022)
Making redundant internal coordinates   ...  (2022 redundants) done
Evaluating the initial hessian          ...  (Almloef) done
Evaluating the coordinates              ...  done
Calculating the B-matrix                .... done
Calculating the G-matrix                .... done
Diagonalizing the G-matrix              .... done
Small eigenvalue found = 2.294e-02
The first mode is                       ....   50
The number of degrees of freedom        ....   69

    -----------------------------------------------------------------
                    Redundant Internal Coordinates


    -----------------------------------------------------------------
         Definition                    Initial Value    Approx d2E/dq
    -----------------------------------------------------------------
      1. B(C   1,C   0)                  1.5038         0.411272   
      2. B(C   2,C   1)                  1.3441         0.739495   
      3. B(C   3,C   2)                  1.5058         0.408282   
      4. B(C   4,C   3)                  1.5408         0.359089   
      5. B(C   5,C   4)                  1.5402         0.359798   
      6. B(C   6,C   1)                  1.4845         0.441580   
      7. B(C   6,C   5)                  1.5041         0.410841   
      8. B(O   7,C   6)                  1.2604         0.900700   
      9. B(C   8,C   4)                  1.5230         0.383248   
     10. B(C   9,C   8)                  1.3443         0.739143   
     11. B(C  10,C   8)                  1.5070         0.406492   
     12. B(H  11,C   0)                  1.1113         0.332950   
     13. B(H  12,C   0)                  1.1100         0.334580   
     14. B(H  13,C   0)                  1.1103         0.334273   
     15. B(H  14,C   2)                  1.0837         0.368523   
     16. B(H  15,C   3)                  1.1108         0.333604   
     17. B(H  16,C   3)                  1.1115         0.332798   
     18. B(H  17,C   4)                  1.1135         0.330365   
     19. B(H  18,C   5)                  1.1107         0.333718   
     20. B(H  19,C   5)                  1.1120         0.332096   
     21. B(H  20,C   9)                  1.0861         0.365262   
     22. B(H  21,C   9)                  1.0848         0.367072   
     23. B(H  22,C  10)                  1.1106         0.333811   
     24. B(H  23,C  10)                  1.1106         0.333808   
     25. B(H  24,C  10)                  1.1096         0.335049   
     26. A(C   1,C   0,H  12)          109.4191         0.325527   
     27. A(H  11,C   0,H  13)          107.6256         0.283978   
     28. A(C   1,C   0,H  13)          110.3551         0.325478   
     29. A(C   1,C   0,H  11)          111.3319         0.325266   
     30. A(H  12,C   0,H  13)          109.0724         0.284193   
     31. A(H  11,C   0,H  12)          108.9864         0.284018   
     32. A(C   0,C   1,C   2)          119.8462         0.416250   
     33. A(C   0,C   1,C   6)          119.8785         0.380203   
     34. A(C   2,C   1,C   6)          120.0394         0.421559   
     35. A(C   1,C   2,H  14)          120.0534         0.365091   
     36. A(C   1,C   2,C   3)          122.0303         0.415710   
     37. A(C   3,C   2,H  14)          117.8465         0.330358   
     38. A(C   4,C   3,H  16)          109.6851         0.318097   
     39. A(C   2,C   3,H  16)          109.0808         0.324852   
     40. A(C   2,C   3,H  15)          108.0938         0.324981   
     41. A(C   2,C   3,C   4)          111.1013         0.366429   
     42. A(H  15,C   3,H  16)          108.2175         0.283869   
     43. A(C   4,C   3,H  15)          110.5926         0.318222   
     44. A(C   5,C   4,H  17)          107.1346         0.317819   
     45. A(C   3,C   4,H  17)          107.0885         0.317717   
     46. A(C   5,C   4,C   8)          111.6392         0.362607   
     47. A(C   3,C   4,C   8)          111.6685         0.362484   
     48. A(C   3,C   4,C   5)          110.2788         0.358604   
     49. A(C   8,C   4,H  17)          108.8092         0.321112   
     50. A(C   4,C   5,C   6)          110.5841         0.366946   
     51. A(C   6,C   5,H  19)          109.5912         0.325073   
     52. A(H  18,C   5,H  19)          108.3675         0.283791   
     53. A(C   4,C   5,H  19)          109.3480         0.318090   
     54. A(C   6,C   5,H  18)          108.1158         0.325333   
     55. A(C   4,C   5,H  18)          110.7917         0.318342   
     56. A(C   5,C   6,O   7)          119.1533         0.428291   
     57. A(C   1,C   6,O   7)          120.1905         0.433877   
     58. A(C   1,C   6,C   5)          120.6275         0.380134   
     59. A(C   9,C   8,C  10)          118.5571         0.415350   
     60. A(C   4,C   8,C  10)          120.0899         0.370268   
     61. A(C   4,C   8,C   9)          121.3530         0.411029   
     62. A(H  20,C   9,H  21)          117.8216         0.292371   
     63. A(C   8,C   9,H  21)          121.4620         0.364814   
     64. A(C   8,C   9,H  20)          120.7164         0.364506   
     65. A(H  23,C  10,H  24)          108.2009         0.284194   
     66. A(H  22,C  10,H  24)          108.2122         0.284194   
     67. A(C   8,C  10,H  24)          111.8132         0.324977   
     68. A(H  22,C  10,H  23)          109.0893         0.284030   
     69. A(C   8,C  10,H  23)          109.7328         0.324779   
     70. A(C   8,C  10,H  22)          109.7335         0.324779   
     71. D(C   6,C   1,C   0,H  11)    158.9296         0.012525   
     72. D(C   2,C   1,C   0,H  12)     93.8845         0.012525   
     73. D(C   2,C   1,C   0,H  13)   -146.0931         0.012525   
     74. D(C   6,C   1,C   0,H  12)    -80.5389         0.012525   
     75. D(C   2,C   1,C   0,H  11)    -26.6470         0.012525   
     76. D(H  14,C   2,C   1,C   0)      2.2922         0.038894   
     77. D(C   3,C   2,C   1,C   6)     -6.3969         0.038894   
     78. D(H  14,C   2,C   1,C   6)    176.7065         0.038894   
     79. D(C   3,C   2,C   1,C   0)    179.1887         0.038894   
     80. D(C   4,C   3,C   2,H  14)   -150.5842         0.012350   
     81. D(H  15,C   3,C   2,C   1)    -89.0595         0.012350   
     82. D(H  15,C   3,C   2,H  14)     87.9025         0.012350   
     83. D(H  16,C   3,C   2,C   1)    153.4870         0.012350   
     84. D(C   4,C   3,C   2,C   1)     32.4538         0.012350   
     85. D(C   5,C   4,C   3,C   2)    -54.8570         0.010349   
     86. D(C   8,C   4,C   3,H  16)     59.7278         0.010349   
     87. D(C   8,C   4,C   3,H  15)    -59.5545         0.010349   
     88. D(C   8,C   4,C   3,C   2)   -179.5949         0.010349   
     89. D(C   5,C   4,C   3,H  16)   -175.5343         0.010349   
     90. D(C   5,C   4,C   3,H  15)     65.1834         0.010349   
     91. D(H  18,C   5,C   4,H  17)    176.0545         0.010387   
     92. D(H  18,C   5,C   4,C   8)     57.0235         0.010387   
     93. D(H  18,C   5,C   4,C   3)    -67.7312         0.010387   
     94. D(C   6,C   5,C   4,H  17)    -64.0858         0.010387   
     95. D(C   6,C   5,C   4,C   8)    176.8832         0.010387   
     96. D(C   6,C   5,C   4,C   3)     52.1285         0.010387   
     97. D(O   7,C   6,C   1,C   2)   -178.0972         0.013303   
     98. D(O   7,C   6,C   1,C   0)     -3.6846         0.013303   
     99. D(C   5,C   6,C   1,C   2)      3.8663         0.013303   
    100. D(C   1,C   6,C   5,C   4)    -27.4386         0.012499   
    101. D(C   5,C   6,C   1,C   0)    178.2788         0.013303   
    102. D(O   7,C   6,C   5,H  18)    -84.0409         0.012499   
    103. D(O   7,C   6,C   5,C   4)    154.5047         0.012499   
    104. D(C   1,C   6,C   5,H  19)   -148.0565         0.012499   
    105. D(C   1,C   6,C   5,H  18)     94.0158         0.012499   
    106. D(C  10,C   8,C   4,C   5)    117.7025         0.010949   
    107. D(C  10,C   8,C   4,C   3)   -118.3219         0.010949   
    108. D(C   9,C   8,C   4,H  17)    179.6376         0.010949   
    109. D(C   9,C   8,C   4,C   5)    -62.3306         0.010949   
    110. D(C   9,C   8,C   4,C   3)     61.6450         0.010949   
    111. D(H  21,C   9,C   8,C  10)    179.9845         0.038854   
    112. D(H  21,C   9,C   8,C   4)      0.0172         0.038854   
    113. D(H  20,C   9,C   8,C  10)     -0.0165         0.038854   
    114. D(H  20,C   9,C   8,C   4)   -179.9839         0.038854   
    115. D(H  24,C  10,C   8,C   4)     -0.0747         0.012246   
    116. D(H  23,C  10,C   8,C   9)     59.8917         0.012246   
    117. D(H  23,C  10,C   8,C   4)   -120.1405         0.012246   
    118. D(H  22,C  10,C   8,C   9)    -59.9622         0.012246   
    119. D(H  22,C  10,C   8,C   4)    120.0056         0.012246   
    -----------------------------------------------------------------

Number of atoms                         .... 25
Number of degrees of freedom            .... 119


         *************************************************************
         *                GEOMETRY OPTIMIZATION CYCLE   1            *
         *************************************************************
---------------------------------
CARTESIAN COORDINATES (ANGSTROEM)
---------------------------------
  C      3.692319    0.277651    0.370668
  C      2.212136    0.241549    0.107492
  C      1.389338    1.045725    0.802450
  C     -0.097791    1.062862    0.566575
  C     -0.609814   -0.330049    0.152341
  C      0.169681   -0.842612   -1.073208
  C      1.651576   -0.766347   -0.827166
  O      2.418892   -1.545997   -1.453330
  C     -2.111920   -0.325117   -0.099270
  C     -2.657117    0.436769   -1.063272
  C     -3.021431   -1.184932    0.740132
  H      4.009174    1.268066    0.762782
  H      3.954431   -0.505196    1.112671
  H      4.256034    0.091529   -0.567553
  H      1.795496    1.744769    1.524109
  H     -0.312655    1.809968   -0.226868
  H     -0.609676    1.388181    1.497967
  H     -0.389238   -1.023645    0.994994
  H     -0.063050   -0.232693   -1.971826
  H     -0.120228   -1.896085   -1.280028
  H     -3.729795    0.432497   -1.233601
  H     -2.046742    1.073478   -1.694772
  H     -3.757573   -0.544999    1.271255
  H     -3.565918   -1.901551    0.089357
  H     -2.456127   -1.765614    1.498099

----------------------------
CARTESIAN COORDINATES (A.U.)
----------------------------
  NO LB      ZA    FRAG     MASS         X           Y           Z
   0 C     4.0000*   0    12.011    6.977472    0.524684    0.700461
   1 C     4.0000*   0    12.011    4.180331    0.456461    0.203130
   2 C     4.0000*   0    12.011    2.625468    1.976134    1.516411
   3 C     4.0000*   0    12.011   -0.184798    2.008518    1.070672
   4 C     4.0000*   0    12.011   -1.152381   -0.623702    0.287883
   5 C     4.0000*   0    12.011    0.320651   -1.592306   -2.028069
   6 C     4.0000*   0    12.011    3.121026   -1.448186   -1.563117
   7 O     6.0000*   0    15.999    4.571043   -2.921511   -2.746396
   8 C     4.0000*   0    12.011   -3.990950   -0.614382   -0.187593
   9 C     4.0000*   0    12.011   -5.021223    0.825374   -2.009293
  10 C     4.0000*   0    12.011   -5.709677   -2.239197    1.398647
  11 H     1.0000    0     1.008    7.576241    2.396297    1.441449
  12 H     1.0000    0     1.008    7.472792   -0.954682    2.102643
  13 H     1.0000    0     1.008    8.042739    0.172965   -1.072520
  14 H     1.0000    0     1.008    3.392996    3.297136    2.880149
  15 H     1.0000    0     1.008   -0.590832    3.420344   -0.428718
  16 H     1.0000    0     1.008   -1.152121    2.623282    2.830747
  17 H     1.0000    0     1.008   -0.735553   -1.934409    1.880266
  18 H     1.0000    0     1.008   -0.119147   -0.439726   -3.726211
  19 H     1.0000    0     1.008   -0.227198   -3.583081   -2.418902
  20 H     1.0000    0     1.008   -7.048291    0.817301   -2.331168
  21 H     1.0000    0     1.008   -3.867782    2.028579   -3.202655
  22 H     1.0000    0     1.008   -7.100784   -1.029899    2.402324
  23 H     1.0000    0     1.008   -6.738608   -3.593411    0.168860
  24 H     1.0000    0     1.008   -4.641407   -3.336527    2.830997
* core charge reduced due to ECP

--------------------------------
INTERNAL COORDINATES (ANGSTROEM)
--------------------------------
 C      0   0   0     0.000000000000     0.00000000     0.00000000
 C      1   0   0     1.503830666953     0.00000000     0.00000000
 C      2   1   0     1.344121352239   119.84620406     0.00000000
 C      3   2   1     1.505816507758   122.03031636   179.18872821
 C      4   3   2     1.540765528303   111.10130038    32.45381495
 C      5   4   3     1.540228436108   110.27878014   305.14303922
 C      2   1   3     1.484475475506   119.87851099   185.57659906
 O      7   2   1     1.260440129975   120.19049879   356.31535370
 C      5   4   3     1.523041317621   111.66854175   180.40512571
 C      9   5   4     1.344250684139   121.35299825    61.64499299
 C      9   5   4     1.507012876836   120.08989013   241.67810248
 H      1   2   3     1.111338090882   111.33185173   333.35300373
 H      1   2   3     1.110009269314   109.41905089    93.88446739
 H      1   2   3     1.110258818902   110.35513651   213.90693464
 H      3   2   1     1.083705932060   120.05338095     2.29220645
 H      4   3   2     1.110804081727   108.09382902   270.94050491
 H      4   3   2     1.111462893060   109.08082528   153.48704069
 H      5   4   3     1.113460040325   107.08854076    61.38613610
 H      6   5   4     1.110711130243   110.79165243   292.26879260
 H      6   5   4     1.112037365564   109.34801338   172.89123919
 H     10   9   5     1.086125365650   120.71635133   180.01610871
 H     10   9   5     1.084780273284   121.46204615     0.00000000
 H     11   9   5     1.110635372110   109.73347445   120.00561633
 H     11   9   5     1.110638098102   109.73283784   239.85954827
 H     11   9   5     1.109627942433   111.81320591   359.92530129

---------------------------
INTERNAL COORDINATES (A.U.)
---------------------------
 C      0   0   0     0.000000000000     0.00000000     0.00000000
 C      1   0   0     2.841828112334     0.00000000     0.00000000
 C      2   1   0     2.540021246487   119.84620406     0.00000000
 C      3   2   1     2.845580807599   122.03031636   179.18872821
 C      4   3   2     2.911624885079   111.10130038    32.45381495
 C      5   4   3     2.910609927922   110.27878014   305.14303922
 C      2   1   3     2.805252101230   119.87851099   185.57659906
 O      7   2   1     2.381886653857   120.19049879   356.31535370
 C      5   4   3     2.878130980950   111.66854175   180.40512571
 C      9   5   4     2.540265648360   121.35299825    61.64499299
 C      9   5   4     2.847841617513   120.08989013   241.67810248
 H      1   2   3     2.100124633963   111.33185173   333.35300373
 H      1   2   3     2.097613525117   109.41905089    93.88446739
 H      1   2   3     2.098085105496   110.35513651   213.90693464
 H      3   2   1     2.047907421298   120.05338095     2.29220645
 H      4   3   2     2.099115502906   108.09382902   270.94050491
 H      4   3   2     2.100360475900   109.08082528   153.48704069
 H      5   4   3     2.104134537280   107.08854076    61.38613610
 H      6   5   4     2.098939850058   110.79165243   292.26879260
 H      6   5   4     2.101446071603   109.34801338   172.89123919
 H     10   9   5     2.052479488184   120.71635133   180.01610871
 H     10   9   5     2.049937631987   121.46204615     0.00000000
 H     11   9   5     2.098796687934   109.73347445   120.00561633
 H     11   9   5     2.098801839311   109.73283784   239.85954827
 H     11   9   5     2.096892921746   111.81320591   359.92530129

---------------------
BASIS SET INFORMATION
---------------------
There are 3 groups of distinct atoms

 Group   1 Type C   : 6s6p2d contracted to 2s2p1d pattern {42/42/2}
 Group   2 Type O   : 6s6p2d contracted to 2s2p1d pattern {42/42/2}
 Group   3 Type H   : 8s2p contracted to 2s1p pattern {53/2}

Atom   0C    basis set group =>   1
Atom   1C    basis set group =>   1
Atom   2C    basis set group =>   1
Atom   3C    basis set group =>   1
Atom   4C    basis set group =>   1
Atom   5C    basis set group =>   1
Atom   6C    basis set group =>   1
Atom   7O    basis set group =>   2
Atom   8C    basis set group =>   1
Atom   9C    basis set group =>   1
Atom  10C    basis set group =>   1
Atom  11H    basis set group =>   3
Atom  12H    basis set group =>   3
Atom  13H    basis set group =>   3
Atom  14H    basis set group =>   3
Atom  15H    basis set group =>   3
Atom  16H    basis set group =>   3
Atom  17H    basis set group =>   3
Atom  18H    basis set group =>   3
Atom  19H    basis set group =>   3
Atom  20H    basis set group =>   3
Atom  21H    basis set group =>   3
Atom  22H    basis set group =>   3
Atom  23H    basis set group =>   3
Atom  24H    basis set group =>   3
---------------------------------
AUXILIARY/J BASIS SET INFORMATION
---------------------------------
There are 3 groups of distinct atoms

 Group   1 Type C   : 12s5p4d2f1g contracted to 6s4p3d1f1g pattern {711111/2111/211/2/1}
 Group   2 Type O   : 12s5p4d2f1g contracted to 6s4p3d1f1g pattern {711111/2111/211/2/1}
 Group   3 Type H   : 5s2p1d contracted to 3s1p1d pattern {311/2/1}

Atom   0C    basis set group =>   1
Atom   1C    basis set group =>   1
Atom   2C    basis set group =>   1
Atom   3C    basis set group =>   1
Atom   4C    basis set group =>   1
Atom   5C    basis set group =>   1
Atom   6C    basis set group =>   1
Atom   7O    basis set group =>   2
Atom   8C    basis set group =>   1
Atom   9C    basis set group =>   1
Atom  10C    basis set group =>   1
Atom  11H    basis set group =>   3
Atom  12H    basis set group =>   3
Atom  13H    basis set group =>   3
Atom  14H    basis set group =>   3
Atom  15H    basis set group =>   3
Atom  16H    basis set group =>   3
Atom  17H    basis set group =>   3
Atom  18H    basis set group =>   3
Atom  19H    basis set group =>   3
Atom  20H    basis set group =>   3
Atom  21H    basis set group =>   3
Atom  22H    basis set group =>   3
Atom  23H    basis set group =>   3
Atom  24H    basis set group =>   3
-------------------------
ECP PARAMETER INFORMATION
-------------------------

 Group 1, Type C  ECP vDZP-ECP (replacing 2 core electrons, lmax=3)
 Group 2, Type O  ECP vDZP-ECP (replacing 2 core electrons, lmax=3)

Atom   0C    ECP group =>   1
Atom   1C    ECP group =>   1
Atom   2C    ECP group =>   1
Atom   3C    ECP group =>   1
Atom   4C    ECP group =>   1
Atom   5C    ECP group =>   1
Atom   6C    ECP group =>   1
Atom   7O    ECP group =>   2
Atom   8C    ECP group =>   1
Atom   9C    ECP group =>   1
Atom  10C    ECP group =>   1



           ************************************************************
           *        Program running with 40 parallel MPI-processes    *
           *              working on a common directory               *
           ************************************************************
------------------------------------------------------------------------------
                             ORCA STARTUP CALCULATIONS
                           -- RI-GTO INTEGRALS CHOSEN --
------------------------------------------------------------------------------
------------------------------------------------------------------------------
                   ___                                                        
                  /   \      - P O W E R E D   B Y -                         
                 /     \                                                     
                 |  |  |   _    _      __       _____    __    __             
                 |  |  |  | |  | |    /  \     |  _  \  |  |  /  |          
                  \  \/   | |  | |   /    \    | | | |  |  | /  /          
                 / \  \   | |__| |  /  /\  \   | |_| |  |  |/  /          
                |  |  |   |  __  | /  /__\  \  |    /   |      \           
                |  |  |   | |  | | |   __   |  |    \   |  |\   \          
                \     /   | |  | | |  |  |  |  | |\  \  |  | \   \       
                 \___/    |_|  |_| |__|  |__|  |_| \__\ |__|  \__/        
                                                                              
                      - O R C A' S   B I G   F R I E N D -                    
                                      &                                       
                       - I N T E G R A L  F E E D E R -                       
                                                                              
 v1 FN, 2020, v2 2021, v3 2022-2024                                           
------------------------------------------------------------------------------


----------------------
SHARK INTEGRAL PACKAGE
----------------------

Number of atoms                             ...     25
Number of basis functions                   ...    213
Number of shells                            ...     97
Maximum angular momentum                    ...      2
Integral batch strategy                     ... SHARK/LIBINT Hybrid
RI-J (if used) integral strategy            ... SPLIT-RIJ (Revised 2003 algorithm where possible)
Printlevel                                  ...      1
Contraction scheme used                     ... SEGMENTED contraction
Prescreening option                         ... SCHWARTZ
   Thresh                                   ... 2.500e-11
   Tcut                                     ... 2.500e-12
   Tpresel                                  ... 2.500e-12 
Coulomb Range Separation                    ... NOT USED
Exchange Range Separation                   ... Long Range
   Mu parameter                             ... 3.000e-01
   Scaling (regular/separated)              ... 1.670e-01 8.330e-01
Multipole approximations                    ... NOT USED
Finite Nucleus Model                        ... NOT USED
CABS basis                                  ... NOT available
Auxiliary Coulomb fitting basis             ... AVAILABLE
   # of basis functions in Aux-J            ...    693
   # of shells in Aux-J                     ...    235
   Maximum angular momentum in Aux-J        ...      4
Auxiliary J/K fitting basis                 ... NOT available
Auxiliary Correlation fitting basis         ... NOT available
Auxiliary 'external' fitting basis          ... NOT available

Checking pre-screening integrals            ... done (  0.0 sec) Dimension = 97
Check shell pair data                       ... done (  0.0 sec)
Shell pair information
Shell pair cut-off parameter TPreSel        ...   2.5e-12
Total number of shell pairs                 ...      4753
Shell pairs after pre-screening             ...      4710
Total number of primitive shell pairs       ...     43726
Primitive shell pairs kept                  ...     35101
          la=0 lb=0:   1268 shell pairs
          la=1 lb=0:   1781 shell pairs
          la=1 lb=1:    649 shell pairs
          la=2 lb=0:    550 shell pairs
          la=2 lb=1:    396 shell pairs
          la=2 lb=2:     66 shell pairs

Calculating one electron integrals          ... done (  0.0 sec)
Calculating ECP integrals                   ... done (  0.1 sec)
Calculating RI/J V-Matrix + Cholesky decomp.... done (  0.0 sec)
Calculating Nuclear repulsion               ... done (  0.0 sec) ENN=    317.151495723168 Eh

Diagonalization of the overlap matrix:
Smallest eigenvalue                        ... 8.427e-04
Time for diagonalization                   ...    0.006 sec
Threshold for overlap eigenvalues          ... 1.000e-07
Number of eigenvalues below threshold      ... 0
Time for construction of square roots      ...    0.006 sec
Total time needed                          ...    0.016 sec

-------------------
DFT GRID GENERATION
-------------------

General Integration Accuracy     IntAcc      ... 4.388
Radial Grid Type                 RadialGrid  ... OptM3 with GC (2021)
Angular Grid (max. ang.)         AngularGrid ... 4 (Lebedev-302)
Angular grid pruning method      GridPruning ... 4 (adaptive)
Weight generation scheme         WeightScheme... mBecke (2022)
Basis function cutoff            BFCut       ... 1.0000e-11
Integration weight cutoff        WCut        ... 1.0000e-14
Partially contracted basis set               ... off
Rotationally invariant grid construction     ... off
Angular grids for H and He will be reduced by one unit

Total number of grid points                  ...   110662
Total number of batches                      ...     1744
Average number of points per batch           ...       63
Average number of grid points per atom       ...     4426

--------------------
COSX GRID GENERATION
--------------------

GRIDX 1
-------
General Integration Accuracy     IntAcc      ... 3.816
Radial Grid Type                 RadialGrid  ... OptM3 with GC (2021)
Angular Grid (max. ang.)         AngularGrid ... 1 (Lebedev-50)
Angular grid pruning method      GridPruning ... 4 (adaptive)
Weight generation scheme         WeightScheme... mBecke (2022)
Basis function cutoff            BFCut       ... 1.0000e-11
Integration weight cutoff        WCut        ... 1.0000e-14
Partially contracted basis set               ... on
Rotationally invariant grid construction     ... off
Angular grids for H and He will be reduced by one unit

Total number of grid points                  ...    14109
Total number of batches                      ...      128
Average number of points per batch           ...      110
Average number of grid points per atom       ...      564
UseSFitting                                  ... on

GRIDX 2
-------
General Integration Accuracy     IntAcc      ... 4.020
Radial Grid Type                 RadialGrid  ... OptM3 with GC (2021)
Angular Grid (max. ang.)         AngularGrid ... 2 (Lebedev-110)
Angular grid pruning method      GridPruning ... 4 (adaptive)
Weight generation scheme         WeightScheme... mBecke (2022)
Basis function cutoff            BFCut       ... 1.0000e-11
Integration weight cutoff        WCut        ... 1.0000e-14
Partially contracted basis set               ... on
Rotationally invariant grid construction     ... off
Angular grids for H and He will be reduced by one unit

Total number of grid points                  ...    29964
Total number of batches                      ...      249
Average number of points per batch           ...      120
Average number of grid points per atom       ...     1199
UseSFitting                                  ... on

GRIDX 3
-------
General Integration Accuracy     IntAcc      ... 4.338
Radial Grid Type                 RadialGrid  ... OptM3 with GC (2021)
Angular Grid (max. ang.)         AngularGrid ... 3 (Lebedev-194)
Angular grid pruning method      GridPruning ... 4 (adaptive)
Weight generation scheme         WeightScheme... mBecke (2022)
Basis function cutoff            BFCut       ... 1.0000e-11
Integration weight cutoff        WCut        ... 1.0000e-14
Partially contracted basis set               ... on
Rotationally invariant grid construction     ... off
Angular grids for H and He will be reduced by one unit

Total number of grid points                  ...    65494
Total number of batches                      ...      522
Average number of points per batch           ...      125
Average number of grid points per atom       ...     2620
UseSFitting                                  ... on
Initializing property integral containers    ... done (  0.0 sec)

SHARK setup successfully completed in   3.3 seconds

Maximum memory used throughout the entire STARTUP-calculation: 32.9 MB


           ************************************************************
           *        Program running with 40 parallel MPI-processes    *
           *              working on a common directory               *
           ************************************************************
-------------------------------------------------------------------------------
                                 ORCA GUESS
                   Start orbitals & Density for SCF / CASSCF
-------------------------------------------------------------------------------

------------
SCF SETTINGS
------------
Hamiltonian:
 Density Functional     Method          .... DFT(GTOs)
 Exchange Functional    Exchange        .... WB97X-V
 Correlation Functional Correlation     .... WB97X-V
 Gradients option       PostSCFGGA      .... off
 Hybrid DFT is turned on
   Fraction HF Exchange ScalHFX         ....  0.167000
   Scaling of DF-GGA-X  ScalDFX         ....  0.000000
   Scaling of DF-GGA-C  ScalDFC         ....  1.000000
   Scaling of DF-LDA-C  ScalLDAC        ....  1.000000
   Perturbative correction              ....  0.000000
 Long-range corrected/Screened/Range-Separated Hybrid DFT is turned on
   Amount of maximum screened exact exchange              ....  0.833000
   Range separation parameter mu (erf(mu*r12)/r12)        ....  0.300000
   NL short-range parameter             ....  6.000000
   NL long-range parameter              ....  0.010000
 RI-approximation to the Coulomb term is turned on
   Number of AuxJ basis functions       .... 693
   RIJ-COSX (HFX calculated with COS-X)).... on


General Settings:
 Integral files         IntName         .... ./output/carvone/carvone
 Hartree-Fock type      HFTyp           .... RHF
 Total Charge           Charge          ....    0
 Multiplicity           Mult            ....    1
 Number of Electrons    NEL             ....   60
 Basis Dimension        Dim             ....  213
 Nuclear Repulsion      ENuc            ....    317.1514957232 Eh

Convergence Acceleration:
 AO-DIIS                CNVDIIS         .... on
   Start iteration      DIISMaxIt       ....    12
   Startup error        DIISStart       ....  0.200000
   # of expansion vecs  DIISMaxEq       ....     5
   Bias factor          DIISBfac        ....   1.050
   Max. coefficient     DIISMaxC        ....  10.000
 MO-DIIS                CNVKDIIS        .... off
 Trust-Rad. Augm. Hess. CNVTRAH         .... auto
   Auto Start mean grad. ratio tolernc. ....  1.125000
   Auto Start start iteration           ....    50
   Auto Start num. interpolation iter.  ....    10
   Max. Number of Micro iterations      ....    24
   Max. Number of Macro iterations      .... Maxiter - #DIIS iter
   Number of Davidson start vectors     ....     2
   Converg. threshold    (grad. norm)   ....   1.000e-05
   Grad. Scal. Fac. for Micro threshold ....   0.100
   Minimum threshold for Micro iter.    ....   1.000e-02
   NR start threshold (gradient norm)   ....   1.000e-04
   Initial trust radius                 ....   0.400
   Minimum AH scaling param. (alpha)    ....   1.000
   Maximum AH scaling param. (alpha)    .... 1000.000
   Quad. conv. algorithm                .... NR
   White noise on init. David. guess    .... on
   Maximum white noise                  ....   0.010
   Pseudo random numbers                .... off
   Inactive MOs                         .... canonical
   Orbital update algorithm             .... Taylor
   Preconditioner                       .... Diag
   Full preconditioner red. dimension   ....   250
 SOSCF                  CNVSOSCF        .... on
   Start iteration      SOSCFMaxIt      ....   150
   Startup grad/error   SOSCFStart      ....  0.003300
   Hessian update       SOSCFHessUp     .... L-BFGS
 Level Shifting         CNVShift        .... on
   Level shift para.    LevelShift      ....    0.2500
   Turn off err/grad.   ShiftErr        ....    0.0010
 Zerner damping         CNVZerner       .... off
 Static damping         CNVDamp         .... on
   Fraction old density DampFac         ....    0.7000
   Max. Damping (<1)    DampMax         ....    0.9800
   Min. Damping (>=0)   DampMin         ....    0.0000
   Turn off err/grad.   DampErr         ....    0.1000

SCF Procedure:
 Maximum # iterations   MaxIter         ....   125
 SCF integral mode      SCFMode         .... Direct
   Integral package                     .... SHARK and LIBINT hybrid scheme
 Reset frequency        DirectResetFreq ....    20
 Integral Threshold     Thresh          ....  2.500e-11 Eh
 Primitive CutOff       TCut            ....  2.500e-12 Eh

Convergence Tolerance:
 Convergence Check Mode ConvCheckMode   .... Total+1el-Energy
 Convergence forced     ConvForced      .... 0
 Energy Change          TolE            ....  1.000e-08 Eh
 1-El. energy change                    ....  1.000e-05 Eh
 Orbital Gradient       TolG            ....  1.000e-05
 Orbital Rotation angle TolX            ....  1.000e-05
 DIIS Error             TolErr          ....  5.000e-07

------------------------------
INITIAL GUESS: MODEL POTENTIAL
------------------------------
Loading Hartree-Fock densities                     ... done
Atomic calculation to generate a density for atom 0 (C  with ECP)
  Multiplicity assumed   :    1
  Atomic configuration   : 1s2 2s2 2p2 
  Number of open shells  : 1
  Command: /home/aspe232/Project/Software/ORCA/6_0_1/build/orca ./output/carvone/carvone_atom6.inp "" > ./output/carvone/carvone_atom6.out
Returned from the atomic calculation with res=0
Atomic calculation to generate a density for atom 7 (O  with ECP)
  Multiplicity assumed   :    3
  Atomic configuration   : 1s2 2s2 2p4 
  Number of open shells  : 1
  Command: /home/aspe232/Project/Software/ORCA/6_0_1/build/orca ./output/carvone/carvone_atom8.inp "" > ./output/carvone/carvone_atom8.out
Returned from the atomic calculation with res=0
Calculating cut-offs                               ... done
Initializing the effective Hamiltonian             ... done
Setting up the integral package (SHARK)            ... done
Starting the Coulomb interaction                   ... done (   0.0 sec)
Making the grid                                    ... done (   0.8 sec)
Mapping shells                                     ... done
Starting the XC term evaluation                    ... done (   0.1 sec)
  promolecular density results
     # of electrons  =     81.990564935
     EX              =    -42.335661085
     EC              =     -3.318173307
     EX+EC           =    -45.653834392
Transforming the Hamiltonian                       ... done (   0.0 sec)
Diagonalizing the Hamiltonian                      ... done (   0.0 sec)
Back transforming the eigenvectors                 ... done (   0.0 sec)
Now organizing SCF variables                       ... done
                      ------------------
                      INITIAL GUESS DONE (   1.9 sec)
                      ------------------
             **** ENERGY FILE WAS UPDATED (./output/carvone/carvone.en.tmp) ****
Finished Guess after   2.5 sec
Maximum memory used throughout the entire GUESS-calculation: 20.2 MB


           ************************************************************
           *        Program running with 40 parallel MPI-processes    *
           *              working on a common directory               *
           ************************************************************

-------------------------------------------------------------------------------------------
                                      ORCA LEAN-SCF
                              memory conserving SCF solver
-------------------------------------------------------------------------------------------

----------------------------------------D-I-I-S--------------------------------------------
Iteration    Energy (Eh)           Delta-E    RMSDP     MaxDP     DIISErr   Damp  Time(sec)
-------------------------------------------------------------------------------------------
               ***  Starting incremental Fock matrix formation  ***
    1    -80.9939197490654124     0.00e+00  4.05e-03  7.34e-02  1.71e-01  0.700   4.9
    2    -81.1550388118663477    -1.61e-01  2.98e-03  5.24e-02  1.07e-01  0.700   3.6
                               ***Turning on AO-DIIS***
    3    -81.2410771500698274    -8.60e-02  1.62e-03  2.81e-02  5.97e-02  0.700   3.0
    4    -81.2921957611920902    -5.11e-02  3.48e-03  6.12e-02  3.77e-02  0.000   3.4
    5    -81.4003468273492103    -1.08e-01  2.76e-04  7.24e-03  5.59e-03  0.000   3.0
    6    -81.4006507430914894    -3.04e-04  1.27e-04  5.95e-03  5.07e-03  0.000   3.4
                              *** Initializing SOSCF ***
---------------------------------------S-O-S-C-F--------------------------------------
Iteration    Energy (Eh)           Delta-E    RMSDP     MaxDP     MaxGrad    Time(sec)
--------------------------------------------------------------------------------------
    7    -81.4007428237904946    -9.21e-05  7.64e-05  1.90e-03  1.66e-03     3.0
               *** Restarting incremental Fock matrix formation ***
    8    -81.4008176246313724    -7.48e-05  4.11e-05  9.58e-04  5.66e-04     4.0
    9    -81.4008248214597643    -7.20e-06  3.95e-05  9.46e-04  2.15e-04     3.8
   10    -81.4008265136135947    -1.69e-06  1.21e-05  4.37e-04  1.19e-04     3.7
   11    -81.4008270425628666    -5.29e-07  5.29e-06  1.78e-04  3.70e-05     3.7
   12    -81.4008270693507825    -2.68e-08  2.48e-06  7.48e-05  2.16e-05     3.8
   13    -81.4008271067907003    -3.74e-08  6.51e-07  1.45e-05  7.63e-06     3.5
   14    -81.4008271076812662    -8.91e-10  3.71e-07  9.67e-06  3.27e-06     3.2
                 **** Energy Check signals convergence ****

               *****************************************************
               *                     SUCCESS                       *
               *           SCF CONVERGED AFTER  14 CYCLES          *
               *****************************************************

Recomputing exchange energy using gridx3       ... done (    3.545 sec)
Old exchange energy                            :    -11.529807067 Eh
New exchange energy                            :    -11.529797278 Eh
Exchange energy change after final integration :      0.000009789 Eh
Total energy after final integration           :    -81.400817319 Eh
             **** ENERGY FILE WAS UPDATED (./output/carvone/carvone.en.tmp) ****

----------------
TOTAL SCF ENERGY
----------------

Total Energy       :        -81.40081731878051 Eh           -2215.02885 eV

Components:
Nuclear Repulsion  :        317.15149572316818 Eh            8630.13095 eV
Electronic Energy  :       -398.55232283084945 Eh          -10845.16006 eV
One Electron Energy:       -751.50717100786130 Eh          -20449.54976 eV
Two Electron Energy:        352.95484817701185 Eh            9604.38970 eV

Virial components:
Potential Energy   :       -144.34189616154219 Eh           -3927.74268 eV
Kinetic Energy     :         62.94107884276169 Eh            1712.71383 eV
Virial Ratio       :          2.29328601948712

DFT components:
N(Alpha)           :       29.999843339112 electrons
N(Beta)            :       29.999843339112 electrons
N(Total)           :       59.999686678224 electrons
E(X)               :      -12.288925295576 Eh       
E(C)               :       -2.264494511389 Eh       
E(XC)              :      -14.553419806965 Eh       

---------------
SCF CONVERGENCE
---------------

  Last Energy change         ...    8.9057e-10  Tolerance :   1.0000e-08
  Last MAX-Density change    ...    9.6663e-06  Tolerance :   1.0000e-07
  Last RMS-Density change    ...    3.7084e-07  Tolerance :   5.0000e-09
  Last DIIS Error            ...    1.6618e-03  Tolerance :   5.0000e-07
  Last Orbital Gradient      ...    3.2685e-06  Tolerance :   1.0000e-05
  Last Orbital Rotation      ...    1.1609e-05  Tolerance :   1.0000e-05


----------------
ORBITAL ENERGIES
----------------

  NO   OCC          E(Eh)            E(eV) 
   0   2.0000      -1.140344       -31.0303 
   1   2.0000      -1.001347       -27.2480 
   2   2.0000      -0.954660       -25.9776 
   3   2.0000      -0.904629       -24.6162 
   4   2.0000      -0.873374       -23.7657 
   5   2.0000      -0.823905       -22.4196 
   6   2.0000      -0.813427       -22.1345 
   7   2.0000      -0.749409       -20.3925 
   8   2.0000      -0.735228       -20.0066 
   9   2.0000      -0.652766       -17.7627 
  10   2.0000      -0.630743       -17.1634 
  11   2.0000      -0.600333       -16.3359 
  12   2.0000      -0.585948       -15.9444 
  13   2.0000      -0.578070       -15.7301 
  14   2.0000      -0.553084       -15.0502 
  15   2.0000      -0.551558       -15.0086 
  16   2.0000      -0.542386       -14.7591 
  17   2.0000      -0.531178       -14.4541 
  18   2.0000      -0.524606       -14.2752 
  19   2.0000      -0.520626       -14.1670 
  20   2.0000      -0.492541       -13.4027 
  21   2.0000      -0.484551       -13.1853 
  22   2.0000      -0.478670       -13.0253 
  23   2.0000      -0.471766       -12.8374 
  24   2.0000      -0.450082       -12.2473 
  25   2.0000      -0.446490       -12.1496 
  26   2.0000      -0.434979       -11.8364 
  27   2.0000      -0.364354        -9.9146 
  28   2.0000      -0.357608        -9.7310 
  29   2.0000      -0.346677        -9.4336 
  30   0.0000       0.014860         0.4044 
  31   0.0000       0.075582         2.0567 
  32   0.0000       0.077507         2.1091 
  33   0.0000       0.091110         2.4792 
  34   0.0000       0.095080         2.5873 
  35   0.0000       0.102905         2.8002 
  36   0.0000       0.114404         3.1131 
  37   0.0000       0.122739         3.3399 
  38   0.0000       0.136605         3.7172 
  39   0.0000       0.140285         3.8173 
  40   0.0000       0.148273         4.0347 
*Only the first 10 virtual orbitals were printed.

                    ********************************
                    * MULLIKEN POPULATION ANALYSIS *
                    ********************************

-----------------------
MULLIKEN ATOMIC CHARGES
-----------------------
   0 C :   -0.080330
   1 C :   -0.065213
   2 C :    0.034523
   3 C :   -0.057754
   4 C :   -0.123466
   5 C :   -0.043021
   6 C :    0.173820
   7 O :   -0.355469
   8 C :   -0.099960
   9 C :   -0.020174
  10 C :   -0.086990
  11 H :    0.038823
  12 H :    0.060537
  13 H :    0.063999
  14 H :    0.026396
  15 H :    0.068242
  16 H :    0.060486
  17 H :    0.059284
  18 H :    0.074245
  19 H :    0.074624
  20 H :    0.025916
  21 H :    0.017543
  22 H :    0.057662
  23 H :    0.059581
  24 H :    0.036696
Sum of atomic charges:   -0.0000000

--------------------------------
MULLIKEN REDUCED ORBITAL CHARGES
--------------------------------
  0 C s       :     0.955294  s :     0.955294
      pz      :     1.059303  p :     3.052274
      px      :     0.952708
      py      :     1.040264
      dz2     :     0.008867  d :     0.072762
      dxz     :     0.018506
      dyz     :     0.013969
      dx2y2   :     0.018582
      dxy     :     0.012839

  1 C s       :     1.057053  s :     1.057053
      pz      :     0.979078  p :     2.894750
      px      :     0.938402
      py      :     0.977270
      dz2     :     0.015773  d :     0.113410
      dxz     :     0.028898
      dyz     :     0.013326
      dx2y2   :     0.026676
      dxy     :     0.028738

  2 C s       :     1.049367  s :     1.049367
      pz      :     0.930050  p :     2.820508
      px      :     0.935757
      py      :     0.954700
      dz2     :     0.014125  d :     0.095602
      dxz     :     0.023237
      dyz     :     0.011718
      dx2y2   :     0.024146
      dxy     :     0.022377

  3 C s       :     0.986839  s :     0.986839
      pz      :     1.057972  p :     2.971523
      px      :     0.942022
      py      :     0.971529
      dz2     :     0.012921  d :     0.099391
      dxz     :     0.019512
      dyz     :     0.023126
      dx2y2   :     0.024694
      dxy     :     0.019139

  4 C s       :     1.037871  s :     1.037871
      pz      :     1.004348  p :     2.961814
      px      :     0.977794
      py      :     0.979672
      dz2     :     0.020821  d :     0.123780
      dxz     :     0.022197
      dyz     :     0.029607
      dx2y2   :     0.028999
      dxy     :     0.022157

  5 C s       :     0.994619  s :     0.994619
      pz      :     0.976730  p :     2.957575
      px      :     0.911766
      py      :     1.069080
      dz2     :     0.018986  d :     0.090826
      dxz     :     0.016643
      dyz     :     0.018356
      dx2y2   :     0.025058
      dxy     :     0.011784

  6 C s       :     1.141278  s :     1.141278
      pz      :     0.801537  p :     2.485037
      px      :     0.882851
      py      :     0.800649
      dz2     :     0.037664  d :     0.199864
      dxz     :     0.034739
      dyz     :     0.028163
      dx2y2   :     0.060843
      dxy     :     0.038455

  7 O s       :     1.807131  s :     1.807131
      pz      :     1.431611  p :     4.514715
      px      :     1.658021
      py      :     1.425082
      dz2     :     0.006689  d :     0.033623
      dxz     :     0.006941
      dyz     :     0.005453
      dx2y2   :     0.006632
      dxy     :     0.007909

  8 C s       :     1.095712  s :     1.095712
      pz      :     0.980931  p :     2.885272
      px      :     0.937258
      py      :     0.967083
      dz2     :     0.026665  d :     0.118976
      dxz     :     0.027816
      dyz     :     0.014148
      dx2y2   :     0.025701
      dxy     :     0.024646

  9 C s       :     0.979379  s :     0.979379
      pz      :     0.990590  p :     2.976928
      px      :     0.989980
      py      :     0.996358
      dz2     :     0.014434  d :     0.063868
      dxz     :     0.014120
      dyz     :     0.008902
      dx2y2   :     0.015505
      dxy     :     0.010906

 10 C s       :     0.957216  s :     0.957216
      pz      :     1.020558  p :     3.057184
      px      :     1.018049
      py      :     1.018577
      dz2     :     0.007887  d :     0.072590
      dxz     :     0.018949
      dyz     :     0.019755
      dx2y2   :     0.007038
      dxy     :     0.018961

 11 H s       :     0.917106  s :     0.917106
      pz      :     0.012206  p :     0.044071
      px      :     0.011199
      py      :     0.020667

 12 H s       :     0.895680  s :     0.895680
      pz      :     0.016242  p :     0.043784
      px      :     0.010650
      py      :     0.016891

 13 H s       :     0.891397  s :     0.891397
      pz      :     0.020636  p :     0.044604
      px      :     0.013299
      py      :     0.010670

 14 H s       :     0.925607  s :     0.925607
      pz      :     0.018031  p :     0.047998
      px      :     0.012452
      py      :     0.017514

 15 H s       :     0.888526  s :     0.888526
      pz      :     0.016936  p :     0.043232
      px      :     0.010709
      py      :     0.015587

 16 H s       :     0.897437  s :     0.897437
      pz      :     0.019022  p :     0.042077
      px      :     0.012661
      py      :     0.010394

 17 H s       :     0.901450  s :     0.901450
      pz      :     0.016803  p :     0.039266
      px      :     0.008442
      py      :     0.014021

 18 H s       :     0.881256  s :     0.881256
      pz      :     0.019287  p :     0.044500
      px      :     0.011208
      py      :     0.014004

 19 H s       :     0.883407  s :     0.883407
      pz      :     0.009746  p :     0.041969
      px      :     0.009285
      py      :     0.022937

 20 H s       :     0.923920  s :     0.923920
      pz      :     0.012166  p :     0.050164
      px      :     0.025503
      py      :     0.012495

 21 H s       :     0.930648  s :     0.930648
      pz      :     0.017755  p :     0.051809
      px      :     0.015436
      py      :     0.018619

 22 H s       :     0.898280  s :     0.898280
      pz      :     0.013289  p :     0.044058
      px      :     0.016461
      py      :     0.014308

 23 H s       :     0.896365  s :     0.896365
      pz      :     0.014434  p :     0.044054
      px      :     0.013702
      py      :     0.015918

 24 H s       :     0.919121  s :     0.919121
      pz      :     0.016857  p :     0.044183
      px      :     0.013065
      py      :     0.014260



                     *******************************
                     * LOEWDIN POPULATION ANALYSIS *
                     *******************************

----------------------
LOEWDIN ATOMIC CHARGES
----------------------
   0 C :   -0.108343
   1 C :   -0.059944
   2 C :    0.002341
   3 C :   -0.078326
   4 C :   -0.067360
   5 C :   -0.062200
   6 C :    0.028114
   7 O :   -0.176997
   8 C :   -0.039069
   9 C :   -0.077880
  10 C :   -0.115599
  11 H :    0.053637
  12 H :    0.056853
  13 H :    0.060492
  14 H :    0.046456
  15 H :    0.057990
  16 H :    0.058593
  17 H :    0.055521
  18 H :    0.064755
  19 H :    0.070718
  20 H :    0.036850
  21 H :    0.028310
  22 H :    0.057436
  23 H :    0.058343
  24 H :    0.049307

-------------------------------
LOEWDIN REDUCED ORBITAL CHARGES
-------------------------------
  0 C s       :     0.775789  s :     0.775789
      pz      :     1.067665  p :     3.097170
      px      :     0.966083
      py      :     1.063422
      dz2     :     0.027320  d :     0.235383
      dxz     :     0.061995
      dyz     :     0.044544
      dx2y2   :     0.057831
      dxy     :     0.043693

  1 C s       :     0.797816  s :     0.797816
      pz      :     0.948457  p :     2.901726
      px      :     0.992831
      py      :     0.960438
      dz2     :     0.046988  d :     0.360402
      dxz     :     0.087481
      dyz     :     0.051978
      dx2y2   :     0.084208
      dxy     :     0.089747

  2 C s       :     0.812497  s :     0.812497
      pz      :     0.935603  p :     2.880001
      px      :     0.997520
      py      :     0.946878
      dz2     :     0.037862  d :     0.305161
      dxz     :     0.074637
      dyz     :     0.043140
      dx2y2   :     0.075257
      dxy     :     0.074266

  3 C s       :     0.763279  s :     0.763279
      pz      :     1.050404  p :     3.000553
      px      :     0.966528
      py      :     0.983620
      dz2     :     0.039938  d :     0.314495
      dxz     :     0.061939
      dyz     :     0.075802
      dx2y2   :     0.075483
      dxy     :     0.061333

  4 C s       :     0.754223  s :     0.754223
      pz      :     0.998394  p :     2.934541
      px      :     0.956006
      py      :     0.980141
      dz2     :     0.064209  d :     0.378596
      dxz     :     0.065674
      dyz     :     0.094579
      dx2y2   :     0.088182
      dxy     :     0.065952

  5 C s       :     0.768824  s :     0.768824
      pz      :     0.993407  p :     2.998976
      px      :     0.952262
      py      :     1.053308
      dz2     :     0.062402  d :     0.294400
      dxz     :     0.054303
      dyz     :     0.058555
      dx2y2   :     0.079341
      dxy     :     0.039799

  6 C s       :     0.800189  s :     0.800189
      pz      :     0.802543  p :     2.613311
      px      :     0.974950
      py      :     0.835817
      dz2     :     0.093294  d :     0.558386
      dxz     :     0.102515
      dyz     :     0.088680
      dx2y2   :     0.154375
      dxy     :     0.119522

  7 O s       :     1.557936  s :     1.557936
      pz      :     1.435255  p :     4.549153
      px      :     1.657191
      py      :     1.456708
      dz2     :     0.010527  d :     0.069908
      dxz     :     0.013178
      dyz     :     0.014016
      dx2y2   :     0.015011
      dxy     :     0.017175

  8 C s       :     0.800909  s :     0.800909
      pz      :     0.959343  p :     2.863939
      px      :     0.977683
      py      :     0.926913
      dz2     :     0.076142  d :     0.374221
      dxz     :     0.089824
      dyz     :     0.049386
      dx2y2   :     0.081788
      dxy     :     0.077081

  9 C s       :     0.825205  s :     0.825205
      pz      :     0.999513  p :     3.038448
      px      :     1.055564
      py      :     0.983371
      dz2     :     0.038880  d :     0.214226
      dxz     :     0.050374
      dyz     :     0.038498
      dx2y2   :     0.051559
      dxy     :     0.034915

 10 C s       :     0.777754  s :     0.777754
      pz      :     1.035892  p :     3.103098
      px      :     1.031654
      py      :     1.035552
      dz2     :     0.023547  d :     0.234746
      dxz     :     0.060715
      dyz     :     0.066329
      dx2y2   :     0.022450
      dxy     :     0.061706

 11 H s       :     0.803142  s :     0.803142
      pz      :     0.044901  p :     0.143221
      px      :     0.037979
      py      :     0.060341

 12 H s       :     0.796627  s :     0.796627
      pz      :     0.051665  p :     0.146520
      px      :     0.041129
      py      :     0.053725

 13 H s       :     0.792434  s :     0.792434
      pz      :     0.060620  p :     0.147073
      px      :     0.044319
      py      :     0.042135

 14 H s       :     0.804186  s :     0.804186
      pz      :     0.053341  p :     0.149358
      px      :     0.042651
      py      :     0.053365

 15 H s       :     0.793994  s :     0.793994
      pz      :     0.054474  p :     0.148016
      px      :     0.041093
      py      :     0.052449

 16 H s       :     0.797285  s :     0.797285
      pz      :     0.058783  p :     0.144123
      px      :     0.043859
      py      :     0.041480

 17 H s       :     0.798405  s :     0.798405
      pz      :     0.057991  p :     0.146074
      px      :     0.036550
      py      :     0.051533

 18 H s       :     0.788149  s :     0.788149
      pz      :     0.059426  p :     0.147096
      px      :     0.039737
      py      :     0.047933

 19 H s       :     0.788384  s :     0.788384
      pz      :     0.039525  p :     0.140897
      px      :     0.035247
      py      :     0.066125

 20 H s       :     0.811080  s :     0.811080
      pz      :     0.040806  p :     0.152070
      px      :     0.069207
      py      :     0.042057

 21 H s       :     0.816464  s :     0.816464
      pz      :     0.051492  p :     0.155226
      px      :     0.049942
      py      :     0.053792

 22 H s       :     0.795969  s :     0.795969
      pz      :     0.045743  p :     0.146595
      px      :     0.053301
      py      :     0.047551

 23 H s       :     0.795168  s :     0.795168
      pz      :     0.047813  p :     0.146488
      px      :     0.047913
      py      :     0.050763

 24 H s       :     0.804713  s :     0.804713
      pz      :     0.052752  p :     0.145980
      px      :     0.045560
      py      :     0.047668



                      *****************************
                      * MAYER POPULATION ANALYSIS *
                      *****************************

  NA   - Mulliken gross atomic population
  ZA   - Total nuclear charge
  QA   - Mulliken gross atomic charge
  VA   - Mayer's total valence
  BVA  - Mayer's bonded valence
  FA   - Mayer's free valence

  ATOM       NA         ZA         QA         VA         BVA        FA
  0 C      4.0803     4.0000    -0.0803     3.9838     3.9838    -0.0000
  1 C      4.0652     4.0000    -0.0652     4.0485     4.0485    -0.0000
  2 C      3.9655     4.0000     0.0345     3.9642     3.9642    -0.0000
  3 C      4.0578     4.0000    -0.0578     3.9765     3.9765    -0.0000
  4 C      4.1235     4.0000    -0.1235     3.9983     3.9983    -0.0000
  5 C      4.0430     4.0000    -0.0430     3.9316     3.9316    -0.0000
  6 C      3.8262     4.0000     0.1738     4.0439     4.0439    -0.0000
  7 O      6.3555     6.0000    -0.3555     1.9852     1.9852    -0.0000
  8 C      4.1000     4.0000    -0.1000     4.1231     4.1231    -0.0000
  9 C      4.0202     4.0000    -0.0202     3.9718     3.9718    -0.0000
 10 C      4.0870     4.0000    -0.0870     3.9653     3.9653     0.0000
 11 H      0.9612     1.0000     0.0388     1.0285     1.0285    -0.0000
 12 H      0.9395     1.0000     0.0605     1.0210     1.0210    -0.0000
 13 H      0.9360     1.0000     0.0640     1.0335     1.0335    -0.0000
 14 H      0.9736     1.0000     0.0264     1.0386     1.0386    -0.0000
 15 H      0.9318     1.0000     0.0682     1.0156     1.0156    -0.0000
 16 H      0.9395     1.0000     0.0605     1.0109     1.0109     0.0000
 17 H      0.9407     1.0000     0.0593     1.0032     1.0032    -0.0000
 18 H      0.9258     1.0000     0.0742     1.0241     1.0241    -0.0000
 19 H      0.9254     1.0000     0.0746     1.0272     1.0272    -0.0000
 20 H      0.9741     1.0000     0.0259     1.0411     1.0411    -0.0000
 21 H      0.9825     1.0000     0.0175     1.0407     1.0407     0.0000
 22 H      0.9423     1.0000     0.0577     1.0250     1.0250     0.0000
 23 H      0.9404     1.0000     0.0596     1.0250     1.0250     0.0000
 24 H      0.9633     1.0000     0.0367     1.0323     1.0323     0.0000

  Mayer bond orders larger than 0.100000
B(  0-C ,  1-C ) :   1.0311 B(  0-C , 11-H ) :   0.9931 B(  0-C , 12-H ) :   0.9766 
B(  0-C , 13-H ) :   0.9776 B(  1-C ,  2-C ) :   1.8094 B(  1-C ,  6-C ) :   1.0854 
B(  2-C ,  3-C ) :   1.0271 B(  2-C , 14-H ) :   0.9892 B(  3-C ,  4-C ) :   0.9701 
B(  3-C , 15-H ) :   0.9700 B(  3-C , 16-H ) :   0.9922 B(  4-C ,  5-C ) :   0.9671 
B(  4-C ,  8-C ) :   1.0303 B(  4-C , 17-H ) :   0.9888 B(  5-C ,  6-C ) :   1.0170 
B(  5-C , 18-H ) :   0.9650 B(  5-C , 19-H ) :   0.9842 B(  6-C ,  7-O ) :   1.8495 
B(  8-C ,  9-C ) :   1.9486 B(  8-C , 10-C ) :   1.0186 B(  9-C , 20-H ) :   0.9873 
B(  9-C , 21-H ) :   0.9918 B( 10-C , 22-H ) :   0.9824 B( 10-C , 23-H ) :   0.9825 
B( 10-C , 24-H ) :   0.9935 

-------
TIMINGS
-------

Total SCF time: 0 days 0 hours 0 min 58 sec 

Total time                  ....      58.018 sec
Sum of individual times     ....      55.811 sec  ( 96.2%)

SCF preparation             ....       2.352 sec  (  4.1%)
Fock matrix formation       ....      51.692 sec  ( 89.1%)
  Startup                   ....       0.284 sec  (  0.5% of F)
  Split-RI-J                ....       1.659 sec  (  3.2% of F)
  Chain of spheres X        ....      22.557 sec  ( 43.6% of F)
  XC integration            ....      26.456 sec  ( 51.2% of F)
    XC Preparation          ....       0.000 sec  (  0.0% of XC)
    Basis function eval.    ....       0.536 sec  (  2.0% of XC)
    Density eval.           ....       0.223 sec  (  0.8% of XC)
    XC-Functional eval.     ....       0.187 sec  (  0.7% of XC)
    XC-Potential eval.      ....       0.288 sec  (  1.1% of XC)
Diagonalization             ....       0.000 sec  (  0.0%)
Density matrix formation    ....       0.361 sec  (  0.6%)
Total Energy calculation    ....       0.308 sec  (  0.5%)
Population analysis         ....       0.187 sec  (  0.3%)
Orbital Transformation      ....       0.053 sec  (  0.1%)
Orbital Orthonormalization  ....       0.000 sec  (  0.0%)
DIIS solution               ....       0.579 sec  (  1.0%)
SOSCF solution              ....       0.279 sec  (  0.5%)
Finished LeanSCF after  58.1 sec

Maximum memory used throughout the entire LEANSCF-calculation: 37.9 MB


           ************************************************************
           *        Program running with 40 parallel MPI-processes    *
           *              working on a common directory               *
           ************************************************************

------------------------------------------------------------------------------
                         ORCA PROPERTY INTEGRAL CALCULATIONS
------------------------------------------------------------------------------

GBWName                                   ... ./output/carvone/carvone.gbw
Number of atoms                           ...     25
Number of basis functions                 ...    213
Max core memory                           ...   1024 MB

Dipole integrals                          ... YES
Quadrupole integrals                      ...  NO
Linear momentum integrals                 ...  NO
Angular momentum integrals                ...  NO
Higher moments length integrals           ...  NO
Higher moments velocity integrals         ...  NO
Kinetic energy integrals                  ...  NO
GIAO right hand sides                     ...  NO
GIAO dipole derivative integrals          ...  NO
SOC integrals                             ...  NO
EPR diamagnetic integrals (GIAO)          ...  NO
EPR gauge integrals                       ...  NO
Field gradient integrals                  ...  NO (   0 nuclei)
Spin-dipole/Fermi contact integrals       ...  NO (   0 nuclei)
Contact density integrals                 ...  NO (   0 nuclei)
Nucleus-orbit integrals                   ...  NO (   0 nuclei)
Geometric perturbations                   ...  NO (  25 nuclei)

Choice of electric origin   ... Center of mass
Position of electric origin ... (  0.5416, -0.3700, -0.3188) 
Choice of magnetic origin   ... GIAO
Position of magnetic origin ... (  0.0000,  0.0000,  0.0000) 

Calculating integrals                     ... Electric Dipole (Length)     done (  0.0 sec)

Property integrals calculated in   0.0 sec

Maximum memory used throughout the entire PROPINT-calculation: 16.4 MB


-------------------------------------------------------------------------------
                          DFT DISPERSION CORRECTION                            
                                                                               
                                DFTD4 V3.4.0                                   
-------------------------------------------------------------------------------
The wB97X-3c composite method is recognized
Using three-body term ABC
Active option DFTDOPT                   ...         5   

-------------------------   ----------------
Dispersion correction           -0.029829004
-------------------------   ----------------


-------------------------   --------------------
FINAL SINGLE POINT ENERGY       -81.430646322694
-------------------------   --------------------



           ************************************************************
           *        Program running with 40 parallel MPI-processes    *
           *              working on a common directory               *
           ************************************************************
------------------------------------------------------------------------------
                         ORCA SCF GRADIENT CALCULATION
------------------------------------------------------------------------------

Nuc. rep. gradient        (SHARK) ... done (  0.0 sec)
HCore & Overlap gradient  (SHARK) ... done (  0.0 sec)
ECP gradient              (SHARK) ... done (  0.4 sec)
Split-RIJ-J gradient      (SHARK) ... done (  0.4 sec)
COSX-gradient                     ... done (  5.7 sec)
XC gradient                       ... done (  1.7 sec)
Dispersion correction             ... done (  0.1 sec)

-------------------
DISPERSION GRADIENT
-------------------

   1   C   :    0.000625651    0.000109477    0.000170466
[...]
 15:    331.22   0.000214    1.08  0.000201  (-0.000192  0.007691 -0.011925)
 16:    349.17   0.000364    1.84  0.000325  ( 0.002549 -0.017089  0.005164)
 17:    411.69   0.001148    5.80  0.000870  (-0.025971 -0.006971 -0.012122)
 18:    493.06   0.000762    3.85  0.000482  (-0.015670 -0.013750  0.006890)
 19:    498.19   0.000405    2.05  0.000254  ( 0.007573 -0.010432 -0.009365)
 20:    557.15   0.001364    6.89  0.000764  ( 0.009062  0.024175  0.009860)
 21:    581.64   0.001253    6.33  0.000672  ( 0.021017 -0.005172  0.014278)
 22:    661.37   0.000057    0.29  0.000027  (-0.000882  0.004929 -0.001415)
 23:    702.70   0.000443    2.24  0.000197  (-0.002182  0.007160 -0.011855)
 24:    739.32   0.001159    5.86  0.000489  (-0.006277 -0.014700 -0.015295)
 25:    749.10   0.000263    1.33  0.000109  (-0.002517 -0.000801 -0.010122)
 26:    836.34   0.000757    3.83  0.000283  (-0.001813  0.015543 -0.006138)
 27:    908.29   0.000298    1.50  0.000102  (-0.003163 -0.007892 -0.005478)
 28:    937.28   0.000322    1.63  0.000107  ( 0.004907 -0.004134  0.008126)
 29:    944.84   0.004231   21.38  0.001397  ( 0.000845  0.037102 -0.004484)
 30:    948.08   0.006431   32.50  0.002117  ( 0.001303 -0.045776 -0.004429)
 31:   1004.49   0.001012    5.11  0.000314  ( 0.017091 -0.000185  0.004712)
 32:   1023.78   0.000082    0.41  0.000025  ( 0.003910 -0.002970 -0.000875)
 33:   1039.41   0.000607    3.07  0.000182  ( 0.007799  0.002176  0.010801)
 34:   1064.65   0.001438    7.27  0.000421  ( 0.017015 -0.011446 -0.000953)
 35:   1090.75   0.000320    1.62  0.000091  (-0.001372  0.005125 -0.007956)
 36:   1102.59   0.000740    3.74  0.000209  ( 0.013081  0.002110 -0.005811)
 37:   1112.67   0.002196   11.10  0.000616  ( 0.006638 -0.014108 -0.019309)
 38:   1166.56   0.004973   25.13  0.001330  ( 0.026966  0.006646  0.023644)
 39:   1182.25   0.001017    5.14  0.000268  ( 0.010905 -0.004719 -0.011279)
 40:   1199.47   0.001544    7.80  0.000402  (-0.017241 -0.001643  0.010092)
 41:   1267.21   0.000373    1.88  0.000092  ( 0.009438 -0.001400 -0.000872)
 42:   1299.28   0.001629    8.23  0.000391  ( 0.002112  0.007897  0.018013)
 43:   1317.03   0.000539    2.73  0.000128  (-0.006625 -0.004883 -0.007749)
 44:   1337.66   0.001643    8.30  0.000383  (-0.017516 -0.007625 -0.004276)
 45:   1361.81   0.000552    2.79  0.000126  ( 0.009578  0.005358  0.002453)
 46:   1415.32   0.000287    1.45  0.000063  ( 0.000561  0.005148  0.006035)
 47:   1429.25   0.006271   31.69  0.001369  ( 0.016223  0.016009  0.029151)
 48:   1443.53   0.003181   16.07  0.000688  ( 0.024892  0.005407 -0.006227)
 49:   1456.34   0.000539    2.72  0.000116  (-0.007226  0.007939 -0.000503)
 50:   1467.20   0.003839   19.40  0.000817  ( 0.005389  0.009550  0.026387)
 51:   1478.87   0.000553    2.79  0.000117  (-0.010439  0.002537 -0.001133)
 52:   1496.30   0.001110    5.61  0.000231  ( 0.004082  0.004501  0.013949)
 53:   1501.92   0.001930    9.75  0.000401  ( 0.002057  0.017578 -0.009369)
 54:   1512.90   0.003494   17.66  0.000721  (-0.014413  0.022591 -0.001586)
 55:   1517.06   0.001289    6.51  0.000265  (-0.009607 -0.012113 -0.005113)
 56:   1521.64   0.003613   18.26  0.000741  ( 0.000724  0.015014  0.022694)
 57:   1526.08   0.003781   19.11  0.000773  ( 0.024581 -0.001653  0.012893)
 58:   1774.29   0.005548   28.04  0.000976  ( 0.014854 -0.002838  0.027333)
 59:   1779.58   0.000091    0.46  0.000016  (-0.000405 -0.003556 -0.001788)
 60:   1838.17   0.064899  327.97  0.011018  (-0.064884  0.051700  0.064304)
 61:   3065.17   0.001932    9.76  0.000197  (-0.002151  0.010175 -0.009408)
 62:   3085.51   0.003562   18.00  0.000360  (-0.009184  0.016324  0.003064)
 63:   3099.82   0.001284    6.49  0.000129  ( 0.001269  0.006131 -0.009491)
 64:   3103.44   0.004618   23.34  0.000464  ( 0.008161  0.003949 -0.019549)
 65:   3116.42   0.004405   22.26  0.000441  ( 0.020210  0.002593  0.005090)
 66:   3158.73   0.002792   14.11  0.000276  (-0.006735 -0.004597  0.014468)
 67:   3184.03   0.001603    8.10  0.000157  (-0.003071  0.011956  0.002174)
 68:   3193.13   0.000896    4.53  0.000088  (-0.003675 -0.007765 -0.003704)
 69:   3204.25   0.000618    3.12  0.000060  (-0.000817 -0.006017  0.004830)
 70:   3211.26   0.001957    9.89  0.000190  (-0.013225 -0.001353 -0.003666)
 71:   3215.69   0.001814    9.17  0.000176  (-0.008105 -0.005921 -0.008676)
 72:   3219.48   0.001638    8.28  0.000159  (-0.010131  0.000268 -0.007489)
 73:   3220.52   0.002831   14.31  0.000274  ( 0.005831  0.008570  0.012918)
 74:   3313.50   0.000924    4.67  0.000087  (-0.008832 -0.000641  0.002927)

* The epsilon (eps) is given for a Dirac delta lineshape.
** The dipole moment derivative (T) already includes vibrational overlap.

The first frequency considered to be a vibration is 6
The total number of vibrations considered is 69


--------------------------
THERMOCHEMISTRY AT 298.15K
--------------------------

Temperature         ...   298.15 K
Pressure            ...     1.00 atm
Total Mass          ...   150.22 AMU
Quasi RRHO          ...     True
Cut-Off Frequency   ...     1.00 cm^-1

Throughout the following assumptions are being made:
  (1) The electronic state is orbitally nondegenerate
  (2) There are no thermally accessible electronically excited states
  (3) Hindered rotations indicated by low frequency modes are not
      treated as such but are treated as vibrations and this may
      cause some error
  (4) All equations used are the standard statistical mechanics
      equations for an ideal gas
  (5) All vibrations are strictly harmonic

freq.      47.34  E(vib)   ...       0.53 
freq.      77.44  E(vib)   ...       0.49 
freq.     113.85  E(vib)   ...       0.44 
freq.     166.15  E(vib)   ...       0.39 
freq.     168.97  E(vib)   ...       0.38 
freq.     197.67  E(vib)   ...       0.35 
freq.     258.23  E(vib)   ...       0.30 
freq.     304.45  E(vib)   ...       0.26 
freq.     313.32  E(vib)   ...       0.25 
freq.     331.22  E(vib)   ...       0.24 
freq.     349.17  E(vib)   ...       0.23 
freq.     411.69  E(vib)   ...       0.19 
freq.     493.06  E(vib)   ...       0.14 
freq.     498.19  E(vib)   ...       0.14 
freq.     557.15  E(vib)   ...       0.12 
freq.     581.64  E(vib)   ...       0.11 
freq.     661.37  E(vib)   ...       0.08 
freq.     702.70  E(vib)   ...       0.07 
freq.     739.32  E(vib)   ...       0.06 
freq.     749.10  E(vib)   ...       0.06 
freq.     836.34  E(vib)   ...       0.04 
freq.     908.29  E(vib)   ...       0.03 
freq.     937.28  E(vib)   ...       0.03 
freq.     944.84  E(vib)   ...       0.03 
freq.     948.08  E(vib)   ...       0.03 
freq.    1004.49  E(vib)   ...       0.02 
freq.    1023.78  E(vib)   ...       0.02 
freq.    1039.41  E(vib)   ...       0.02 
freq.    1064.65  E(vib)   ...       0.02 
freq.    1090.75  E(vib)   ...       0.02 
freq.    1102.59  E(vib)   ...       0.02 
freq.    1112.67  E(vib)   ...       0.01 
freq.    1166.56  E(vib)   ...       0.01 
freq.    1182.25  E(vib)   ...       0.01 
freq.    1199.47  E(vib)   ...       0.01 
freq.    1267.21  E(vib)   ...       0.01 
freq.    1299.28  E(vib)   ...       0.01 
freq.    1317.03  E(vib)   ...       0.01 
freq.    1337.66  E(vib)   ...       0.01 
freq.    1361.81  E(vib)   ...       0.01 
freq.    1415.32  E(vib)   ...       0.00 
freq.    1429.25  E(vib)   ...       0.00 
freq.    1443.53  E(vib)   ...       0.00 
freq.    1456.34  E(vib)   ...       0.00 
freq.    1467.20  E(vib)   ...       0.00 
freq.    1478.87  E(vib)   ...       0.00 
freq.    1496.30  E(vib)   ...       0.00 
freq.    1501.92  E(vib)   ...       0.00 
freq.    1512.90  E(vib)   ...       0.00 
freq.    1517.06  E(vib)   ...       0.00 
freq.    1521.64  E(vib)   ...       0.00 
freq.    1526.08  E(vib)   ...       0.00 
freq.    1774.29  E(vib)   ...       0.00 
freq.    1779.58  E(vib)   ...       0.00 
freq.    1838.17  E(vib)   ...       0.00 
freq.    3065.17  E(vib)   ...       0.00 
freq.    3085.51  E(vib)   ...       0.00 
freq.    3099.82  E(vib)   ...       0.00 
freq.    3103.44  E(vib)   ...       0.00 
freq.    3116.42  E(vib)   ...       0.00 
freq.    3158.73  E(vib)   ...       0.00 
freq.    3184.03  E(vib)   ...       0.00 
freq.    3193.13  E(vib)   ...       0.00 
freq.    3204.25  E(vib)   ...       0.00 
freq.    3211.26  E(vib)   ...       0.00 
freq.    3215.69  E(vib)   ...       0.00 
freq.    3219.48  E(vib)   ...       0.00 
freq.    3220.52  E(vib)   ...       0.00 
freq.    3313.50  E(vib)   ...       0.00 

------------
INNER ENERGY
------------

The inner energy is: U= E(el) + E(ZPE) + E(vib) + E(rot) + E(trans)
    E(el)   - is the total energy from the electronic structure calculation
              = E(kin-el) + E(nuc-el) + E(el-el) + E(nuc-nuc)
    E(ZPE)  - the the zero temperature vibrational energy from the frequency calculation
    E(vib)  - the the finite temperature correction to E(ZPE) due to population
              of excited vibrational states
    E(rot)  - is the rotational thermal energy
    E(trans)- is the translational thermal energy

Summary of contributions to the inner energy U:
Electronic energy                ...    -81.44906427 Eh
Zero point energy                ...      0.22192961 Eh     139.26 kcal/mol
Thermal vibrational correction   ...      0.00833690 Eh       5.23 kcal/mol
Thermal rotational correction    ...      0.00141627 Eh       0.89 kcal/mol
Thermal translational correction ...      0.00141627 Eh       0.89 kcal/mol
-----------------------------------------------------------------------
Total thermal energy                    -81.21596521 Eh


Summary of corrections to the electronic energy:
(perhaps to be used in another calculation)
Total thermal correction                  0.01116945 Eh       7.01 kcal/mol
Non-thermal (ZPE) correction              0.22192961 Eh     139.26 kcal/mol
-----------------------------------------------------------------------
Total correction                          0.23309906 Eh     146.27 kcal/mol


--------
ENTHALPY
--------

The enthalpy is H = U + kB*T
                kB is Boltzmann's constant
Total thermal energy              ...    -81.21596521 Eh 
Thermal Enthalpy correction       ...      0.00094421 Eh       0.59 kcal/mol
-----------------------------------------------------------------------
Total Enthalpy                    ...    -81.21502101 Eh


Note: Only C1 symmetry has been detected, increase convergence thresholds 
      if your molecule has a higher symmetry. Symmetry factor of 1.0 is   
      used for the rotational entropy correction. 
 

Note: Rotational entropy computed according to Herzberg 
Infrared and Raman Spectra, Chapter V,1, Van Nostrand Reinhold, 1945 
Point Group:  C1, Symmetry Number:   1  
Rotational constants in cm-1:     0.076525     0.022751     0.018643 

Vibrational entropy computed according to the QRRHO of S. Grimme
Chem.Eur.J. 2012 18 9955 using a reference frequency of 100.0 cm-1


-------
ENTROPY
-------

The entropy contributions are T*S = T*(S(el)+S(vib)+S(rot)+S(trans))
     S(el)   - electronic entropy
     S(vib)  - vibrational entropy
     S(rot)  - rotational entropy
     S(trans)- translational entropy
The entropies will be listed as multiplied by the temperature to get
units of energy

Electronic entropy                ...      0.00000000 Eh      0.00 kcal/mol
Vibrational entropy               ...      0.01424819 Eh      8.94 kcal/mol
Rotational entropy                ...      0.01439015 Eh      9.03 kcal/mol
Translational entropy             ...      0.01944758 Eh     12.20 kcal/mol
-----------------------------------------------------------------------
Final entropy term                ...      0.04808591 Eh     30.17 kcal/mol

In case the symmetry of your molecule has not been determined correctly
or in case you have a reason to use a different symmetry number we print 
out the resulting rotational entropy values for sn=1,12:

 non-linear molecules -----------------------------------
|  sn= 1 | S(rot)=       0.01439015 Eh      9.03 kcal/mol|
|  sn= 2 | S(rot)=       0.01373569 Eh      8.62 kcal/mol|
|  sn= 3 | S(rot)=       0.01335286 Eh      8.38 kcal/mol|
|  sn= 4 | S(rot)=       0.01308123 Eh      8.21 kcal/mol|
|  sn= 5 | S(rot)=       0.01287054 Eh      8.08 kcal/mol|
|  sn= 6 | S(rot)=       0.01269840 Eh      7.97 kcal/mol|
|  sn= 7 | S(rot)=       0.01255285 Eh      7.88 kcal/mol|
|  sn= 8 | S(rot)=       0.01242678 Eh      7.80 kcal/mol|
|  sn= 9 | S(rot)=       0.01231557 Eh      7.73 kcal/mol|
|  sn=10 | S(rot)=       0.01221609 Eh      7.67 kcal/mol|
|  sn=11 | S(rot)=       0.01212610 Eh      7.61 kcal/mol|
|  sn=12 | S(rot)=       0.01204394 Eh      7.56 kcal/mol|
 linear molecules ---------------------------------------
|  Dinfh | S(rot)=       0.00908583 Eh      5.70 kcal/mol|
|  Cinfv | S(rot)=       0.00974028 Eh      6.11 kcal/mol|
 --------------------------------------------------------


-------------------
GIBBS FREE ENERGY
-------------------

The Gibbs free energy is G = H - T*S

Total enthalpy                    ...    -81.21502101 Eh 
Total entropy correction          ...     -0.04808591 Eh    -30.17 kcal/mol
-----------------------------------------------------------------------
Final Gibbs free energy         ...    -81.26310692 Eh

For completeness - the Gibbs free energy minus the electronic energy
G-E(el)                           ...      0.18595735 Eh    116.69 kcal/mol


Maximum memory used throughout the entire PROP-calculation: 111.0 MB

--------------------------------
SUGGESTED CITATIONS FOR THIS RUN
--------------------------------

Below you find a list of papers that are relevant to this ORCA run
We neither can nor want to force you to cite these papers, but we appreciate if you do
You receive ORCA, which is the product of decades of hard work by many enthusiastic individuals, for free
The only thing we kindly ask in return is that you cite our papers,
We deeply appreciate it, if you show your appreciation for ORCA by not just citing the generic ORCA reference.

Please note that relegating all ORCA citations to the supporting information does *not* help us.
SI sections are not indexed - citations you put there will not count into any citation statistics
But we need these citations in order to attract the funding resources that allow us to do what we are doing

Therefore, if you are a happy ORCA user, please consider citing a few of the papers listed below in the main body of your paper

In addition to the list printed below, the program has created the file ./output/carvone/carvone.bibtex that contains the list in bibtex format
You can import this file easily into all common literature databanks and citation aid programs


List of essential papers. We consider these as the minimum necessary citations

  1. Neese,F.
     Software update: the ORCA program system, version 5.0
     WIRES Comput. Molec. Sci., 2022 12(1)e1606
     doi.org/10.1002/wcms.1606
  2. Mueller,M.; Hansen,A.; Grimme,S.
     wB97X-3c: A composite range-separated hybrid DFT method with a molecule-optimized polarized valence double-zeta basis set
     J. Chem. Phys., 2023 158 014103
     doi.org/10.1063/5.0133026

List of papers to cite with high priority. The work reported in these papers was absolutely
necessary for this run to complete.
Our perspective: the developers of density functionals and basis sets usually get cited in chemistry papers
Good! But without the algorithms to do something with them, the functionals or basis sets would not do anything.
Hence, in our opinion, the algorithm design and method developments papers are equally worthy of getting cited

  1. Neese,F.
     An improvement of the resolution of the identity approximation for the formation of the Coulomb matrix
     J. Comp. Chem., 2003 24(14)1740-1747
     doi.org/10.1002/jcc.10318
  2. Neese,F.; Wennmohs,F.; Hansen,A.; Becker,U.
     Efficient, approximate and parallel Hartree-Fock and hybrid DFT calculations. A 'chain-of-spheres' algorithm for the Hartree-Fock exchange
     Chem. Phys., 2009 356(1-3)98-109
     doi.org/10.1016/j.chemphys.2008.10.036
  3. Bykov,D.; Petrenko,T.; Izsak,R.; Kossmann,S.; Becker,U.; Valeev,E.; Neese,F.
     Efficient implementation of the analytic second derivatives of Hartree-Fock and hybrid DFT energies: a detailed analysis of different approximations
     Molec. Phys., 2015 113 1961-1977
     doi.org/10.1080/00268976.2015.1025114
  4. Helmich-Paris,B.; de Souza,B.; Neese,F.; Izsák,R.
     An improved chain of spheres for exchange algorithm
     J. Chem. Phys., 2021 155 104109
     doi.org/doi: 10.1063/5.0058766.
  5. Neese,F.
     The SHARK Integral Generation and Digestion System
     J. Comp. Chem., 2022  1-16
     doi.org/10.1002/jcc.26942
  6. Caldeweyher,E.; Bannwarth,C.; Grimme,S.
     Extension of the D3 dispersion coefficient model
     J. Chem. Phys., 2017 147 034112
     doi.org/10.1063/1.4993215
  7. Caldeweyher,E.; Ehlert,S.; Hansen,A.; Neugebauer,H.; Spicher,S.; Bannwarth,C.; Grimme,S.
     A generally applicable atomic-charge dependent London dispersion correction
     J. Chem. Phys., 2019 150 154122
     doi.org/10.1063/1.5090222
  8. Caldeweyher,E.; Mewes,J.; Ehlert,S.; Grimme,S.
     Extension and evaluation of the D4 London-dispersion model for periodic systems
     Phys. Chem. Chem. Phys., 2020 22(16)8499-8512
     doi.org/10.1039/D0CP00502A
  9. Wittmann,L.; Gordiy,I.; Friede,M.; Helmich-Paris,B.; Grimme,S.; Hansen,A.; Bursch,M.
     Extension of the D3 and D4 London Dispersion Corrections to the full Actinides Series
     Phys. Chem. Chem. Phys., 2024 26(32)21379-21394
     doi.org/https://doi.org/10.1039/D4CP01514B 

List of suggested additional citations. These are papers that are important in the 'surrounding' of 
of this run, or papers that preceded the highly important papers. If you like your results we are grateful for a citation.

  1. Izsak,R.; Neese,F.
     An overlap fitted chain of spheres exchange method
     J. Chem. Phys., 2011 135 144105
     doi.org/10.1063/1.3646921
  2. Izsak,R.; Hansen,A.; Neese,F.
     The resolution of identity and chain of spheres approximations for the LPNO-CCSD singles Fock term
     Molec. Phys., 2012 110 2413-2417
     doi.org/10.1080/00268976.2012.687466
  3. Neese,F.
     The ORCA program system
     WIRES Comput. Molec. Sci., 2012 2(1)73-78
     doi.org/10.1002/wcms.81
  4. Izsak,R.; Neese,F.; Klopper,W.
     Robust fitting techniques in the chain of spheres approximation to the Fock exchange: The role of the complementary space
     J. Chem. Phys., 2013 139 
     doi.org/10.1063/1.4819264
  5. Neese,F.
     Software update: the ORCA program system, version 4.0
     WIRES Comput. Molec. Sci., 2018 8(1)1-6
     doi.org/10.1002/wcms.1327
  6. Neese,F.; Wennmohs,F.; Becker,U.; Riplinger,C.
     The ORCA quantum chemistry program package
     J. Chem. Phys., 2020 152 Art. No. L224108
     doi.org/10.1063/5.0004608

List of optional additional citations

  1. Neese,F.
     Approximate second-order SCF convergence for spin unrestricted wavefunctions
     Chem. Phys. Lett., 2000 325(1-3)93-98
     doi.org/10.1016/s0009-2614(00)00662-x

Timings for individual modules:

Sum of individual times          ...     1623.133 sec (=  27.052 min)
Startup calculation              ...       95.108 sec (=   1.585 min)   5.9 %
SCF iterations                   ...     1131.275 sec (=  18.855 min)  69.7 %
Property integrals               ...       59.970 sec (=   0.999 min)   3.7 %
SCF Response                     ...       36.356 sec (=   0.606 min)   2.2 %
Property calculations            ...       75.235 sec (=   1.254 min)   4.6 %
SCF Gradient evaluation          ...      224.759 sec (=   3.746 min)  13.8 %
Geometry relaxation              ...        0.431 sec (=   0.007 min)   0.0 %
                             ****ORCA TERMINATED NORMALLY****
TOTAL RUN TIME: 0 days 0 hours 27 minutes 16 seconds 207 msec
