
                                 *****************
                                 * O   R   C   A *
                                 *****************

                                            #,                                       
                                            ###                                      
                                            ####                                     
                                            #####                                    
                                            ######                                   
                                           ########,                                 
                                     ,,################,,,,,                         
                               ,,#################################,,                 
                          ,,##########################################,,             
                       ,#########################################, ''#####,          
                    ,#############################################,,   '####,        
                  ,##################################################,,,,####,       
                ,###########''''           ''''###############################       
              ,#####''   ,,,,##########,,,,          '''####'''          '####       
            ,##' ,,,,###########################,,,                        '##       
           ' ,,###''''                  '''############,,,                           
         ,,##''                                '''############,,,,        ,,,,,,###''
      ,#''                                            '''#######################'''  
     '                                                          ''''####''''         
             ,#######,   #######,   ,#######,      ##                                
            ,#'     '#,  ##    ##  ,#'     '#,    #''#        ,####,   ,####,        
            ##       ##  ##   ,#'  ##            #'  '#       #'       #'  '#        
            ##       ##  #######   ##           ,######,      #####,   #    #        
            '#,     ,#'  ##    ##  '#,     ,#' ,#      #,     #,   #   #,  ,#        
             '#######'   ##     ##  '#######'  #'      '#     '####' # '####'        



                #########################################################
                #                        -***-                          #
                #          Department of theory and spectroscopy        #
                #                                                       #
                #                      Frank Neese                      #
                #                                                       #
                #     Directorship, Architecture, Infrastructure        #
                #                    SHARK, DRIVERS                     #
                #        Core code/Algorithms in most modules           #
                #                                                       #
                #        Max Planck Institute fuer Kohlenforschung      #
                #                Kaiser Wilhelm Platz 1                 #
                #                 D-45470 Muelheim/Ruhr                 #
                #                      Germany                          #
                #                                                       #
                #                  All rights reserved                  #
                #                        -***-                          #
                #########################################################


                         Program Version 6.0.1  -  RELEASE   -


 With contributions from (in alphabetic order):
[Max-Planck-Institut fuer Kohlenforschung]                               
  Daniel Aravena         : Magnetic Suceptibility                        
  Michael Atanasov       : Ab Initio Ligand Field Theory (pilot matlab implementation)
  Alexander A. Auer      : GIAO ZORA, VPT2 properties, NMR spectrum      
  Ute Becker             : All parallelization in ORCA, NUMFREQ, NUMCALC 
  Giovanni Bistoni       : ED, misc. LED, open-shell LED, HFLD           
  Martin Brehm           : Molecular dynamics                            
  Dmytro Bykov           : pre 5.0 version of the SCF Hessian            
  Marcos Casanova-Páez   : Triplet and SCS-CIS(D). UHF-(DLPNO)-IP/EA/STEOM-CCSD. UHF-CVS-IP/STEOM-CCSD   
  Vijay G. Chilkuri      : MRCI spin determinant printing, contributions to CSF-ICE 
  Pauline Colinet        : FMM embedding                                 
  Dipayan Datta          : RHF DLPNO-CCSD density                        
  Achintya Kumar Dutta   : EOM-CC, STEOM-CC                              
  Nicolas Foglia         : Exact transition moments, OPA infrastructure, MCD improvements    
  Dmitry Ganyushin       : Spin-Orbit,Spin-Spin,Magnetic field MRCI      
  Miquel Garcia-Rates    : C-PCM and meta-GGA Hessian, CCSD/C-PCM, Gaussian charge scheme 
  Tiago L. C. Gouveia    : GS-ROHF, GS-ROCIS                             
  Yang Guo               : DLPNO-NEVPT2, F12-NEVPT2, CIM, IAO-localization        
  Andreas Hansen         : Spin unrestricted coupled pair/coupled cluster methods 
  Ingolf Harden          : AUTO-CI MPn and infrastructure                
  Benjamin Helmich-Paris : MC-RPA, TRAH-(SCF,CASSCF), AVAS, COSX integrals, SCF dyn. polar. 
  Lee Huntington         : MR-EOM, pCC                                   
  Robert Izsak           : Overlap fitted RIJCOSX, COSX-SCS-MP3, EOM     
  Riya Kayal             : Wick's Theorem for AUTO-CI, AUTO-CI UHF-CCSDT 
  Emily Kempfer          : AUTO-CI, RHF CISDT and CCSDT                  
  Christian Kollmar      : KDIIS, OOCD, Brueckner-CCSD(T), CCSD density, CASPT2, CASPT2-K, improved NEVPT2 
  Axel Koslowski         : Symmetry handling                             
  Simone Kossmann        : meta-GGA functionals, TD-DFT gradient, OOMP2, (MP2 Hessian; deprecated post 5.0) 
  Lucas Lang             : DCDCAS                                        
  Marvin Lechner         : AUTO-CI (C++ implementation), FIC-MRCC        
  Spencer Leger          : CASSCF response                               
  Dagmar Lenk            : GEPOL surface, SMD, ORCA-2-JSON               
  Dimitrios Liakos       : Extrapolation schemes; Compound Job, initial MDCI parallelization 
  Dimitrios Manganas     : Further ROCIS development; embedding schemes. LFT, Crystal Embedding 
  Dimitrios Pantazis     : SARC Basis sets                               
  Anastasios Papadopoulos: AUTO-CI, single reference methods and gradients 
  Taras Petrenko         : pre 6.0 DFT Hessian and TD-DFT gradient, (ASA, deprecated), ECA, 1-Electron XAS/XES, NRVS 
  Peter Pinski           : DLPNO-MP2, DLPNO-MP2 Gradient                 
  Christoph Reimann      : Effective Core Potentials                     
  Marius Retegan         : Local ZFS, SOC                                
  Christoph Riplinger    : Optimizer, TS searches, QM/MM, DLPNO-CCSD(T), (RO)-DLPNO pert. Triples 
  Michael Roemelt        : Original ROCIS implementation                 
  Masaaki Saitow         : Open-shell DLPNO-CCSD energy and density      
  Barbara Sandhoefer     : DKH picture change effects                    
  Kantharuban Sivalingam : CASSCF convergence/infrastructure, NEVPT2 and variants, FIC-MRCI 
  Bernardo de Souza      : ESD, SOC TD-DFT                               
  Georgi L. Stoychev     : AutoAux, RI-MP2 NMR, DLPNO-MP2 response, X2C  
  Van Anh Tran           : RI-MP2 g-tensors                              
  Willem Van den Heuvel  : Paramagnetic NMR                              
  Zikuan Wang            : NOTCH, Electric field optimization            
  Frank Wennmohs         : Technical directorship and infrastructure     
  Hang Xu                : AUTO-CI-Response properties                   
                                                                         
[FACCTs GmbH]                                                            
  Markus Bursch, Miquel Garcia-Rates, Christoph Riplinger, Bernardo de Souza, Georgi L. Stoychev 
                                                                 
  APM, Basis sets (HGBS, AHGBS, def-TZVP (Ac-Lr), def2-XVPD (La-Lu)), CI-OPT, improved COSX, DLPNO-Multilevel,           
  DOCKER, DRACO, updates on ESD, GOAT, IRC, LR-CPCM, MBIS, meta-GGA TD-DFT gradient, ML-optimized integration grids, 
  MM, NACMEs, nearIR, NEB, NEB-TS, NL-DFT gradient (VV10), 2- and 3-layer-ONIOM, interface openCOSMO-RS, QMMM,   
  Crystal-QMMM, SF, symmetry and pop. for TD-DFT, r2SCAN hybrids, SOLVATOR                                   
                                                                         
[Other institutions]                                                     
  V. Asgeirsson          : NEB                                           
  Christoph Bannwarth    : sTDA-DFT, sTD-DFT, PBEh-3c, B97-3c, D3        
  Sebastian Ehlert       : rSCAN, r2SCAN, r2SCAN-3c, D4, dhf basis sets  
  Marvin Friede          : D4 for Fr, Ra, Ac-Lr                          
  Lars Goerigk           : TD-DFT with DH, B97 family of functionals     
  Stefan Grimme          : VdW corrections, initial TS optimization, DFT functionals, gCP, sTDA/sTD-DF 
  Waldemar Hujo          : DFT-NL                                        
  H. Jonsson             : NEB                                           
  Holger Kruse           : gCP                                           
  Marcel Mueller         : wB97X-3c, vDZP basis set                      
  Hagen Neugebauer       : wr2SCAN                                       
  Tobias Risthaus        : range-separated hybrid DFT                    
  Lukas Wittmann         : regularized MP2, r2SCAN double-hybrids, wr2SCAN        
                                                                         
We gratefully acknowledge several colleagues who have allowed us to      
interface, adapt or use parts of their codes:                            
  Ed Valeev, F. Pavosevic, A. Kumar             : LibInt (2-el integral package), F12 methods 
  Garnet Chan, S. Sharma, J. Yang, R. Olivares  : DMRG                   
  Ulf Ekstrom                                   : XCFun DFT Library      
  Mihaly Kallay                                 : mrcc  (arbitrary order and MRCC methods)
  Frank Weinhold                                : gennbo (NPA and NBO analysis)           
  Simon Mueller                                 : openCOSMO-RS                            
  Christopher J. Cramer and Donald G. Truhlar   : smd solvation model                     
  S Lehtola, MJT Oliveira, MAL Marques          : LibXC Library                           
  Liviu Ungur et al                             : ANISO software                          


 Your calculation uses the libint2 library for the computation of 2-el integrals
 For citations please refer to: http://libint.valeyev.net

 Your ORCA version has been built with support for libXC version: 6.2.2
 For citations please refer to: https://libxc.gitlab.io

 This ORCA versions uses:
   CBLAS   interface :  Fast vector & matrix operations
   LAPACKE interface :  Fast linear algebra routines
   SCALAPACK package :  Parallel linear algebra routines
   Shared memory     :  Shared parallel matrices
   BLAS/LAPACK       :  OpenBLAS 0.3.27  USE64BITINT DYNAMIC_ARCH NO_AFFINITY SkylakeX SINGLE_THREADED
        Core in use  :  SkylakeX
   Copyright (c) 2011-2014, The OpenBLAS Project


Your calculation utilizes the atom-pairwise dispersion correction
based on EEQ partial charges (D4)


================================================================================

cite the ECPs for C  [vDZP-ECP], S  [vDZP-ECP] as follows:
   B-Ne (ecp-2-mwb), Al-Ar (ecp-10-mwb), Ga-Kr (ecp-28-mwb), Y-Cd (ecp-28-mwb), In-Xe (ecp-46-mwb):
     A. Bergner, M. Dolg, W. Küchle, H. Stoll, and H. Preuß, Mol. Phys. 80, 1431 (1993)., T. Leininger, A. Berning, A. Nicklass, H. Stoll, H.-J. Werner, and H.-J.Flad, Chem. Phys. 217, 19 (1997).
   Na-Mg, K-Ca, Rb-Sr, Cs-Ba (CRENBL):
     L. Fernandez Pacios and P. A. Christiansen, J. Chem. Phys. 82, 2664 (1985)., M. M. Hurley, L. F. Pacios, P. A. Christiansen, R. B. Ross, and W. C. Ermler, J. Chem. Phys. 84, 6840 (1986)., L. A. LaJohn, P. A. Christiansen, R. B. Ross, T. Atashroo, and W. C. Ermler, J. Chem. Phys. 87, 2812 (1987)., R. B. Ross, J. M. Powers, T. Atashroo, W. C. Ermler, L. A. LaJohn, and P. A. Christiansen, J. Chem. Phys. 93, 6654 (1990). 
   Sc-Zn (ecp-10-mdf):
     M. Dolg, U. Wedig, H. Stoll, and H. Preuss, J. Chem. Phys. 86, 866 (1986). 
   Y-Cd (ecp-28-mwb), Hf-Hg (ecp-60-mwb):
     D. Andrae, U. Häußermann, M. Dolg, H. Stoll, and H. Preuß, Theor. Chim. Acta 77, 123 (1990). 
   La (ecp-46-mwb):
     M. Dolg, H. Stoll, and H. Preuss, J. Chem. Phys. 90, 1730 (1989)., M. Dolg, H. Stoll, and H. Preuss, Theor. Chim. Acta 85, 441 (1993).
   Ce-Lu (SBKJC-ecp):
     T. R. Cundari and W. J. Stevens, J. Chem. Phys. 98, 5555 (1993).
   Tl-Rn (ecp-78-mwb):
     W. Küchle, M. Dolg, H. Stoll, and H. Preuss, Mol. Phys. 74, 1245 (1991).

ECP parameters for C  [vDZP-ECP], S  [vDZP-ECP] have been obtained from:
MM, AH, SG, J. Chem. Phys. 158, 014103 (2023), 10.1063/5.0133026

----- Orbital basis set information -----
Your calculation utilizes the basis: vDZP
   Marcel Mueller, Andreas Hansen, Stefan Grimme 
   J. Chem. Phys. 158, 014103 (2023). DOI: 10.1063/5.0133026

----- AuxJ basis set information -----
Your calculation utilizes the auxiliary basis: def2/J
   F. Weigend, Phys. Chem. Chem. Phys. 8, 1057 (2006).

================================================================================
                                        WARNINGS
                       Please study these warnings very carefully!
================================================================================

WARNING: Frozen-Core approximation turned on, but there are no core electrons.
  ===> : Turning off frozen-core approximation


WARNING: Geometry Optimization
  ===> : Switching off AutoStart
         For restart on a previous wavefunction, please use MOREAD

================================================================================
                                       INPUT FILE
================================================================================
NAME = ./output/diallyl_trisulfide/diallyl_trisulfide.inp
|  1> ! wB97X-3c OPT FREQ TightSCF
|  2> %pal
|  3>   nprocs 40
|  4> end
|  5> * xyz 0 1
|  6> C     -3.423964    -1.544229    -1.042636
|  7> C     -3.105936    -0.466309    -0.320425
|  8> C     -2.074105     0.518994    -0.788516
|  9> S     -0.412290    -0.235194    -0.811665
| 10> S     -0.219870    -0.268305     1.314346
| 11> S      0.738080     1.639185     1.353971
| 12> C      2.423225     0.952276     1.459739
| 13> C      2.880153     0.483909     0.108450
| 14> C      3.188675    -0.793965    -0.129593
| 15> H     -2.934371    -1.745346    -1.990787
| 16> H     -4.181597    -2.233583    -0.684576
| 17> H     -3.622494    -0.284181     0.617255
| 18> H     -2.072972     1.407046    -0.121854
| 19> H     -2.328214     0.863906    -1.813082
| 20> H      2.457355     0.139879     2.217912
| 21> H      3.106052     1.758239     1.799429
| 22> H      2.952699     1.205720    -0.699663
| 23> H      3.119920    -1.544164     0.652180
| 24> H      3.509653    -1.098067    -1.120484
| 25> *
| 26> 
| 27>                          ****END OF INPUT****
================================================================================

                       *****************************
                       * Geometry Optimization Run *
                       *****************************

Geometry optimization settings:
Update method            Update   .... BFGS
Choice of coordinates    CoordSys .... (2022) Redundant Internals
Initial Hessian          InHess   .... Almloef's Model
Max. no of cycles        MaxIter  .... 57

Convergence Tolerances:
Energy Change            TolE     ....  5.0000e-06 Eh
Max. Gradient            TolMAXG  ....  3.0000e-04 Eh/bohr
RMS Gradient             TolRMSG  ....  1.0000e-04 Eh/bohr
Max. Displacement        TolMAXD  ....  4.0000e-03 bohr
RMS Displacement         TolRMSD  ....  2.0000e-03 bohr
Strict Convergence                .... False

------------------------------------------------------------------------------
                        ORCA OPTIMIZATION COORDINATE SETUP
------------------------------------------------------------------------------

The optimization will be done in redundant internal coordinates (2022)
Making redundant internal coordinates   ...  (2022 redundants) done
Evaluating the initial hessian          ...  (Almloef) done
Evaluating the coordinates              ...  done
Calculating the B-matrix                .... done
Calculating the G-matrix                .... done
Diagonalizing the G-matrix              .... done
Small eigenvalue found = 5.591e-03
Small eigenvalue found = 1.109e-02
Small eigenvalue found = 1.623e-02
Small eigenvalue found = 2.193e-02
The first mode is                       ....   20
The number of degrees of freedom        ....   51

    -----------------------------------------------------------------
                    Redundant Internal Coordinates


    -----------------------------------------------------------------
         Definition                    Initial Value    Approx d2E/dq
    -----------------------------------------------------------------
      1. B(C   1,C   0)                  1.3359         0.762156   
      2. B(C   2,C   1)                  1.5015         0.414755   
      3. B(S   3,C   2)                  1.8251         0.340677   
      4. B(S   4,S   3)                  2.1350         0.294267   
      5. B(S   5,S   4)                  2.1349         0.294340   
      6. B(C   6,S   5)                  1.8228         0.343509   
      7. B(C   7,C   6)                  1.5014         0.414996   
      8. B(C   8,C   7)                  1.3360         0.761977   
      9. B(H   9,C   0)                  1.0859         0.365589   
     10. B(H  10,C   0)                  1.0851         0.366652   
     11. B(H  11,C   1)                  1.0859         0.365523   
     12. B(H  12,C   2)                  1.1104         0.334051   
     13. B(H  13,C   2)                  1.1105         0.333943   
     14. B(H  14,C   6)                  1.1117         0.332451   
     15. B(H  15,C   6)                  1.1096         0.335080   
     16. B(H  16,C   7)                  1.0860         0.365477   
     17. B(H  17,C   8)                  1.0857         0.365864   
     18. B(H  18,C   8)                  1.0851         0.366686   
     19. A(C   1,C   0,H   9)          120.9409         0.366481   
     20. A(C   1,C   0,H  10)          120.0289         0.366663   
     21. A(H   9,C   0,H  10)          119.0302         0.292360   
     22. A(C   2,C   1,H  11)          119.0786         0.330771   
     23. A(C   0,C   1,C   2)          121.6369         0.419123   
     24. A(C   0,C   1,H  11)          119.2681         0.366469   
     25. A(S   3,C   2,H  12)          109.7040         0.331483   
     26. A(C   1,C   2,H  12)          109.7749         0.325894   
     27. A(H  12,C   2,H  13)          107.8025         0.284080   
     28. A(C   1,C   2,S   3)          111.0080         0.383436   
     29. A(S   3,C   2,H  13)          108.9649         0.331465   
     30. A(C   1,C   2,H  13)          109.5224         0.325877   
     31. A(C   2,S   3,S   4)           94.3497         0.398089   
     32. A(S   3,S   4,S   5)           92.5831         0.406011   
     33. A(S   4,S   5,C   6)           94.5425         0.398686   
     34. A(S   5,C   6,C   7)          110.2846         0.384027   
     35. A(H  14,C   6,H  15)          107.6444         0.284018   
     36. A(C   7,C   6,H  15)          108.3512         0.326090   
     37. A(S   5,C   6,H  15)          108.2367         0.332107   
     38. A(C   7,C   6,H  14)          112.1163         0.325668   
     39. A(S   5,C   6,H  14)          110.0792         0.331674   
     40. A(C   6,C   7,C   8)          121.9408         0.419148   
     41. A(C   8,C   7,H  16)          119.1928         0.366447   
     42. A(C   6,C   7,H  16)          118.8641         0.330796   
     43. A(H  17,C   8,H  18)          118.8590         0.292399   
     44. A(C   7,C   8,H  18)          119.9407         0.366654   
     45. A(C   7,C   8,H  17)          121.1995         0.366513   
     46. D(H  11,C   1,C   0,H  10)     -0.8066         0.041557   
     47. D(C   2,C   1,C   0,H  10)   -179.3204         0.041557   
     48. D(H  11,C   1,C   0,H   9)    179.1542         0.041557   
     49. D(C   2,C   1,C   0,H   9)      0.6405         0.041557   
     50. D(S   3,C   2,C   1,H  11)    114.5631         0.012730   
     51. D(H  12,C   2,C   1,C   0)    171.6221         0.012730   
     52. D(S   3,C   2,C   1,C   0)    -66.9204         0.012730   
     53. D(H  13,C   2,C   1,C   0)     53.4457         0.012730   
     54. D(H  12,C   2,C   1,H  11)     -6.8944         0.012730   
     55. D(S   4,S   3,C   2,H  13)    167.1889         0.003351   
     56. D(S   4,S   3,C   2,C   1)    -72.1151         0.003351   
     57. D(S   4,S   3,C   2,H  12)     49.3841         0.003351   
     58. D(S   5,S   4,S   3,C   2)    -92.0538         0.001863   
     59. D(C   6,S   5,S   4,S   3)    -98.2779         0.001863   
     60. D(C   7,C   6,S   5,S   4)     78.5053         0.003383   
     61. D(H  15,C   6,S   5,S   4)   -163.1229         0.003383   
     62. D(H  14,C   6,S   5,S   4)    -45.7208         0.003383   
     63. D(H  16,C   7,C   6,H  14)   -176.0351         0.012744   
     64. D(H  16,C   7,C   6,S   5)     60.9203         0.012744   
     65. D(C   8,C   7,C   6,H  15)    123.1667         0.012744   
     66. D(C   8,C   7,C   6,H  14)      4.5130         0.012744   
     67. D(C   8,C   7,C   6,S   5)   -118.5317         0.012744   
     68. D(H  18,C   8,C   7,H  16)      0.1694         0.041535   
     69. D(H  18,C   8,C   7,C   6)    179.6196         0.041535   
     70. D(H  17,C   8,C   7,H  16)   -179.4968         0.041535   
     71. D(H  17,C   8,C   7,C   6)     -0.0466         0.041535   
    -----------------------------------------------------------------

Number of atoms                         .... 19
Number of degrees of freedom            .... 71


         *************************************************************
         *                GEOMETRY OPTIMIZATION CYCLE   1            *
         *************************************************************
---------------------------------
CARTESIAN COORDINATES (ANGSTROEM)
---------------------------------
  C     -3.423964   -1.544229   -1.042636
  C     -3.105936   -0.466309   -0.320425
  C     -2.074105    0.518994   -0.788516
  S     -0.412290   -0.235194   -0.811665
  S     -0.219870   -0.268305    1.314346
  S      0.738080    1.639185    1.353971
  C      2.423225    0.952276    1.459739
  C      2.880153    0.483909    0.108450
  C      3.188675   -0.793965   -0.129593
  H     -2.934371   -1.745346   -1.990787
  H     -4.181597   -2.233583   -0.684576
  H     -3.622494   -0.284181    0.617255
  H     -2.072972    1.407046   -0.121854
  H     -2.328214    0.863906   -1.813082
  H      2.457355    0.139879    2.217912
  H      3.106052    1.758239    1.799429
  H      2.952699    1.205720   -0.699663
  H      3.119920   -1.544164    0.652180
  H      3.509653   -1.098067   -1.120484

----------------------------
CARTESIAN COORDINATES (A.U.)
----------------------------
  NO LB      ZA    FRAG     MASS         X           Y           Z
   0 C     4.0000*   0    12.011   -6.470354   -2.918170   -1.970296
   1 C     4.0000*   0    12.011   -5.869368   -0.881196   -0.605515
   2 C     4.0000*   0    12.011   -3.919490    0.980757   -1.490079
   3 S     6.0000*   0    32.060   -0.779115   -0.444452   -1.533825
   4 S     6.0000*   0    32.060   -0.415494   -0.507023    2.483754
   5 S     6.0000*   0    32.060    1.394769    3.097611    2.558634
   6 C     4.0000*   0    12.011    4.579232    1.799541    2.758507
   7 C     4.0000*   0    12.011    5.442700    0.914455    0.204941
   8 C     4.0000*   0    12.011    6.025722   -1.500376   -0.244895
   9 H     1.0000    0     1.008   -5.545158   -3.298226   -3.762042
  10 H     1.0000    0     1.008   -7.902073   -4.220860   -1.293661
  11 H     1.0000    0     1.008   -6.845522   -0.537024    1.166443
  12 H     1.0000    0     1.008   -3.917349    2.658932   -0.230271
  13 H     1.0000    0     1.008   -4.399687    1.632546   -3.426228
  14 H     1.0000    0     1.008    4.643728    0.264333    4.191246
  15 H     1.0000    0     1.008    5.869588    3.322590    3.400428
  16 H     1.0000    0     1.008    5.579792    2.278481   -1.322171
  17 H     1.0000    0     1.008    5.895794   -2.918047    1.232442
  18 H     1.0000    0     1.008    6.632283   -2.075046   -2.117408
* core charge reduced due to ECP

--------------------------------
INTERNAL COORDINATES (ANGSTROEM)
--------------------------------
 C      0   0   0     0.000000000000     0.00000000     0.00000000
 C      1   0   0     1.335904960581     0.00000000     0.00000000
 C      2   1   0     1.501534681135   121.63693595     0.00000000
 S      3   2   1     1.825093014005   111.00802535   293.07963648
 S      4   3   2     2.134957743573    94.34968054   287.88493185
 S      5   4   3     2.134890264914    92.58305046   267.94619843
 C      6   5   4     1.822839684429    94.54246351   261.72214032
 C      7   6   5     1.501376969783   110.28458497    78.50532979
 C      8   7   6     1.335968657645   121.94084115   241.46831940
 H      1   2   3     1.085881978918   120.94087719     0.64046630
 H      1   2   3     1.085091546186   120.02887230   180.67961838
 H      2   1   3     1.085931194021   119.26806569   178.51376032
 H      3   2   1     1.110439489858   109.77486260   171.62205615
 H      3   2   1     1.110527424236   109.52238227    53.44568605
 H      7   6   5     1.111746392141   110.07918882   314.27919584
 H      7   6   5     1.109602796228   108.23668872   196.87710004
 H      8   7   6     1.085965313721   118.86410186    60.92027515
 H      9   8   7     1.085677121964   121.19951725   359.95337167
 H      9   8   7     1.085066761434   119.94068146   179.61960091

---------------------------
INTERNAL COORDINATES (A.U.)
---------------------------
 C      0   0   0     0.000000000000     0.00000000     0.00000000
 C      1   0   0     2.524494516445     0.00000000     0.00000000
 C      2   1   0     2.837489327930   121.63693595     0.00000000
 S      3   2   1     3.448925965402   111.00802535   293.07963648
 S      4   3   2     4.034485442847    94.34968054   287.88493185
 S      5   4   3     4.034357926662    92.58305046   267.94619843
 C      6   5   4     3.444667789615    94.54246351   261.72214032
 C      7   6   5     2.837191296666   110.28458497    78.50532979
 C      8   7   6     2.524614886451   121.94084115   241.46831940
 H      1   2   3     2.052019553916   120.94087719     0.64046630
 H      1   2   3     2.050525852525   120.02887230   180.67961838
 H      2   1   3     2.052112556982   119.26806569   178.51376032
 H      3   2   1     2.098426524124   109.77486260   171.62205615
 H      3   2   1     2.098592696016   109.52238227    53.44568605
 H      7   6   5     2.100896211521   110.07918882   314.27919584
 H      7   6   5     2.096845402305   108.23668872   196.87710004
 H      8   7   6     2.052177033871   118.86410186    60.92027515
 H      9   8   7     2.051632430375   121.19951725   359.95337167
 H      9   8   7     2.050479016131   119.94068146   179.61960091

---------------------
BASIS SET INFORMATION
---------------------
There are 3 groups of distinct atoms

 Group   1 Type C   : 6s6p2d contracted to 2s2p1d pattern {42/42/2}
 Group   2 Type S   : 6s6p2d contracted to 2s2p1d pattern {42/42/2}
 Group   3 Type H   : 8s2p contracted to 2s1p pattern {53/2}

Atom   0C    basis set group =>   1
Atom   1C    basis set group =>   1
Atom   2C    basis set group =>   1
Atom   3S    basis set group =>   2
Atom   4S    basis set group =>   2
Atom   5S    basis set group =>   2
Atom   6C    basis set group =>   1
Atom   7C    basis set group =>   1
Atom   8C    basis set group =>   1
Atom   9H    basis set group =>   3
Atom  10H    basis set group =>   3
Atom  11H    basis set group =>   3
Atom  12H    basis set group =>   3
Atom  13H    basis set group =>   3
Atom  14H    basis set group =>   3
Atom  15H    basis set group =>   3
Atom  16H    basis set group =>   3
Atom  17H    basis set group =>   3
Atom  18H    basis set group =>   3
---------------------------------
AUXILIARY/J BASIS SET INFORMATION
---------------------------------
There are 3 groups of distinct atoms

 Group   1 Type C   : 12s5p4d2f1g contracted to 6s4p3d1f1g pattern {711111/2111/211/2/1}
 Group   2 Type S   : 14s5p5d2f1g contracted to 8s4p3d1f1g pattern {71111111/2111/311/2/1}
 Group   3 Type H   : 5s2p1d contracted to 3s1p1d pattern {311/2/1}

Atom   0C    basis set group =>   1
Atom   1C    basis set group =>   1
Atom   2C    basis set group =>   1
Atom   3S    basis set group =>   2
Atom   4S    basis set group =>   2
Atom   5S    basis set group =>   2
Atom   6C    basis set group =>   1
Atom   7C    basis set group =>   1
Atom   8C    basis set group =>   1
Atom   9H    basis set group =>   3
Atom  10H    basis set group =>   3
Atom  11H    basis set group =>   3
Atom  12H    basis set group =>   3
Atom  13H    basis set group =>   3
Atom  14H    basis set group =>   3
Atom  15H    basis set group =>   3
Atom  16H    basis set group =>   3
Atom  17H    basis set group =>   3
Atom  18H    basis set group =>   3
-------------------------
ECP PARAMETER INFORMATION
-------------------------

 Group 1, Type C  ECP vDZP-ECP (replacing 2 core electrons, lmax=3)
 Group 2, Type S  ECP vDZP-ECP (replacing 10 core electrons, lmax=3)

Atom   0C    ECP group =>   1
Atom   1C    ECP group =>   1
Atom   2C    ECP group =>   1
Atom   3S    ECP group =>   2
Atom   4S    ECP group =>   2
Atom   5S    ECP group =>   2
Atom   6C    ECP group =>   1
Atom   7C    ECP group =>   1
Atom   8C    ECP group =>   1



           ************************************************************
           *        Program running with 40 parallel MPI-processes    *
           *              working on a common directory               *
           ************************************************************
------------------------------------------------------------------------------
                             ORCA STARTUP CALCULATIONS
                           -- RI-GTO INTEGRALS CHOSEN --
------------------------------------------------------------------------------
------------------------------------------------------------------------------
                   ___                                                        
                  /   \      - P O W E R E D   B Y -                         
                 /     \                                                     
                 |  |  |   _    _      __       _____    __    __             
                 |  |  |  | |  | |    /  \     |  _  \  |  |  /  |          
                  \  \/   | |  | |   /    \    | | | |  |  | /  /          
                 / \  \   | |__| |  /  /\  \   | |_| |  |  |/  /          
                |  |  |   |  __  | /  /__\  \  |    /   |      \           
                |  |  |   | |  | | |   __   |  |    \   |  |\   \          
                \     /   | |  | | |  |  |  |  | |\  \  |  | \   \       
                 \___/    |_|  |_| |__|  |__|  |_| \__\ |__|  \__/        
                                                                              
                      - O R C A' S   B I G   F R I E N D -                    
                                      &                                       
                       - I N T E G R A L  F E E D E R -                       
                                                                              
 v1 FN, 2020, v2 2021, v3 2022-2024                                           
------------------------------------------------------------------------------


----------------------
SHARK INTEGRAL PACKAGE
----------------------

Number of atoms                             ...     19
Number of basis functions                   ...    167
Number of shells                            ...     75
Maximum angular momentum                    ...      2
Integral batch strategy                     ... SHARK/LIBINT Hybrid
RI-J (if used) integral strategy            ... SPLIT-RIJ (Revised 2003 algorithm where possible)
Printlevel                                  ...      1
Contraction scheme used                     ... SEGMENTED contraction
Prescreening option                         ... SCHWARTZ
   Thresh                                   ... 2.500e-11
   Tcut                                     ... 2.500e-12
   Tpresel                                  ... 2.500e-12 
Coulomb Range Separation                    ... NOT USED
Exchange Range Separation                   ... Long Range
   Mu parameter                             ... 3.000e-01
   Scaling (regular/separated)              ... 1.670e-01 8.330e-01
Multipole approximations                    ... NOT USED
Finite Nucleus Model                        ... NOT USED
CABS basis                                  ... NOT available
Auxiliary Coulomb fitting basis             ... AVAILABLE
   # of basis functions in Aux-J            ...    557
   # of shells in Aux-J                     ...    191
   Maximum angular momentum in Aux-J        ...      4
Auxiliary J/K fitting basis                 ... NOT available
Auxiliary Correlation fitting basis         ... NOT available
Auxiliary 'external' fitting basis          ... NOT available

Checking pre-screening integrals            ... done (  0.0 sec) Dimension = 75
Check shell pair data                       ... done (  0.0 sec)
Shell pair information
Shell pair cut-off parameter TPreSel        ...   2.5e-12
Total number of shell pairs                 ...      2850
Shell pairs after pre-screening             ...      2828
Total number of primitive shell pairs       ...     25926
Primitive shell pairs kept                  ...     19975
          la=0 lb=0:    739 shell pairs
          la=1 lb=0:   1054 shell pairs
          la=1 lb=1:    396 shell pairs
          la=2 lb=0:    342 shell pairs
          la=2 lb=1:    252 shell pairs
          la=2 lb=2:     45 shell pairs

Calculating one electron integrals          ... done (  0.0 sec)
Calculating ECP integrals                   ... done (  0.1 sec)
Calculating RI/J V-Matrix + Cholesky decomp.... done (  0.0 sec)
Calculating Nuclear repulsion               ... done (  0.0 sec) ENN=    218.479720228801 Eh

Diagonalization of the overlap matrix:
Smallest eigenvalue                        ... 1.897e-03
Time for diagonalization                   ...    0.004 sec
Threshold for overlap eigenvalues          ... 1.000e-07
Number of eigenvalues below threshold      ... 0
Time for construction of square roots      ...    0.004 sec
Total time needed                          ...    0.011 sec

-------------------
DFT GRID GENERATION
-------------------

General Integration Accuracy     IntAcc      ... 4.388
Radial Grid Type                 RadialGrid  ... OptM3 with GC (2021)
Angular Grid (max. ang.)         AngularGrid ... 4 (Lebedev-302)
Angular grid pruning method      GridPruning ... 4 (adaptive)
Weight generation scheme         WeightScheme... mBecke (2022)
Basis function cutoff            BFCut       ... 1.0000e-11
Integration weight cutoff        WCut        ... 1.0000e-14
Partially contracted basis set               ... off
Rotationally invariant grid construction     ... off
Angular grids for H and He will be reduced by one unit

Total number of grid points                  ...    90388
Total number of batches                      ...     1424
Average number of points per batch           ...       63
Average number of grid points per atom       ...     4757

--------------------
COSX GRID GENERATION
--------------------

GRIDX 1
-------
General Integration Accuracy     IntAcc      ... 3.816
Radial Grid Type                 RadialGrid  ... OptM3 with GC (2021)
Angular Grid (max. ang.)         AngularGrid ... 1 (Lebedev-50)
Angular grid pruning method      GridPruning ... 4 (adaptive)
Weight generation scheme         WeightScheme... mBecke (2022)
Basis function cutoff            BFCut       ... 1.0000e-11
Integration weight cutoff        WCut        ... 1.0000e-14
Partially contracted basis set               ... on
Rotationally invariant grid construction     ... off
Angular grids for H and He will be reduced by one unit

Total number of grid points                  ...    14603
Total number of batches                      ...      122
Average number of points per batch           ...      119
Average number of grid points per atom       ...      769
UseSFitting                                  ... on

GRIDX 2
-------
General Integration Accuracy     IntAcc      ... 4.020
Radial Grid Type                 RadialGrid  ... OptM3 with GC (2021)
Angular Grid (max. ang.)         AngularGrid ... 2 (Lebedev-110)
Angular grid pruning method      GridPruning ... 4 (adaptive)
Weight generation scheme         WeightScheme... mBecke (2022)
Basis function cutoff            BFCut       ... 1.0000e-11
Integration weight cutoff        WCut        ... 1.0000e-14
Partially contracted basis set               ... on
Rotationally invariant grid construction     ... off
Angular grids for H and He will be reduced by one unit

Total number of grid points                  ...    24342
Total number of batches                      ...      199
Average number of points per batch           ...      122
Average number of grid points per atom       ...     1281
UseSFitting                                  ... on

GRIDX 3
-------
General Integration Accuracy     IntAcc      ... 4.338
Radial Grid Type                 RadialGrid  ... OptM3 with GC (2021)
Angular Grid (max. ang.)         AngularGrid ... 3 (Lebedev-194)
Angular grid pruning method      GridPruning ... 4 (adaptive)
Weight generation scheme         WeightScheme... mBecke (2022)
Basis function cutoff            BFCut       ... 1.0000e-11
Integration weight cutoff        WCut        ... 1.0000e-14
Partially contracted basis set               ... on
Rotationally invariant grid construction     ... off
Angular grids for H and He will be reduced by one unit

Total number of grid points                  ...    54996
Total number of batches                      ...      439
Average number of points per batch           ...      125
Average number of grid points per atom       ...     2895
UseSFitting                                  ... on
Initializing property integral containers    ... done (  0.0 sec)

SHARK setup successfully completed in   2.9 seconds

Maximum memory used throughout the entire STARTUP-calculation: 25.3 MB


           ************************************************************
           *        Program running with 40 parallel MPI-processes    *
           *              working on a common directory               *
           ************************************************************
-------------------------------------------------------------------------------
                                 ORCA GUESS
                   Start orbitals & Density for SCF / CASSCF
-------------------------------------------------------------------------------

------------
SCF SETTINGS
------------
Hamiltonian:
 Density Functional     Method          .... DFT(GTOs)
 Exchange Functional    Exchange        .... WB97X-V
 Correlation Functional Correlation     .... WB97X-V
 Gradients option       PostSCFGGA      .... off
 Hybrid DFT is turned on
   Fraction HF Exchange ScalHFX         ....  0.167000
   Scaling of DF-GGA-X  ScalDFX         ....  0.000000
   Scaling of DF-GGA-C  ScalDFC         ....  1.000000
   Scaling of DF-LDA-C  ScalLDAC        ....  1.000000
   Perturbative correction              ....  0.000000
 Long-range corrected/Screened/Range-Separated Hybrid DFT is turned on
   Amount of maximum screened exact exchange              ....  0.833000
   Range separation parameter mu (erf(mu*r12)/r12)        ....  0.300000
   NL short-range parameter             ....  6.000000
   NL long-range parameter              ....  0.010000
 RI-approximation to the Coulomb term is turned on
   Number of AuxJ basis functions       .... 557
   RIJ-COSX (HFX calculated with COS-X)).... on


General Settings:
 Integral files         IntName         .... ./output/diallyl_trisulfide/diallyl_trisulfide
 Hartree-Fock type      HFTyp           .... RHF
 Total Charge           Charge          ....    0
 Multiplicity           Mult            ....    1
 Number of Electrons    NEL             ....   52
 Basis Dimension        Dim             ....  167
 Nuclear Repulsion      ENuc            ....    218.4797202288 Eh

Convergence Acceleration:
 AO-DIIS                CNVDIIS         .... on
   Start iteration      DIISMaxIt       ....    12
   Startup error        DIISStart       ....  0.200000
   # of expansion vecs  DIISMaxEq       ....     5
   Bias factor          DIISBfac        ....   1.050
   Max. coefficient     DIISMaxC        ....  10.000
 MO-DIIS                CNVKDIIS        .... off
 Trust-Rad. Augm. Hess. CNVTRAH         .... auto
   Auto Start mean grad. ratio tolernc. ....  1.125000
   Auto Start start iteration           ....    50
   Auto Start num. interpolation iter.  ....    10
   Max. Number of Micro iterations      ....    24
   Max. Number of Macro iterations      .... Maxiter - #DIIS iter
   Number of Davidson start vectors     ....     2
   Converg. threshold    (grad. norm)   ....   1.000e-05
   Grad. Scal. Fac. for Micro threshold ....   0.100
   Minimum threshold for Micro iter.    ....   1.000e-02
   NR start threshold (gradient norm)   ....   1.000e-04
   Initial trust radius                 ....   0.400
   Minimum AH scaling param. (alpha)    ....   1.000
   Maximum AH scaling param. (alpha)    .... 1000.000
   Quad. conv. algorithm                .... NR
   White noise on init. David. guess    .... on
   Maximum white noise                  ....   0.010
   Pseudo random numbers                .... off
   Inactive MOs                         .... canonical
   Orbital update algorithm             .... Taylor
   Preconditioner                       .... Diag
   Full preconditioner red. dimension   ....   250
 SOSCF                  CNVSOSCF        .... on
   Start iteration      SOSCFMaxIt      ....   150
   Startup grad/error   SOSCFStart      ....  0.003300
   Hessian update       SOSCFHessUp     .... L-BFGS
 Level Shifting         CNVShift        .... on
   Level shift para.    LevelShift      ....    0.2500
   Turn off err/grad.   ShiftErr        ....    0.0010
 Zerner damping         CNVZerner       .... off
 Static damping         CNVDamp         .... on
   Fraction old density DampFac         ....    0.7000
   Max. Damping (<1)    DampMax         ....    0.9800
   Min. Damping (>=0)   DampMin         ....    0.0000
   Turn off err/grad.   DampErr         ....    0.1000

SCF Procedure:
 Maximum # iterations   MaxIter         ....   125
 SCF integral mode      SCFMode         .... Direct
   Integral package                     .... SHARK and LIBINT hybrid scheme
 Reset frequency        DirectResetFreq ....    20
 Integral Threshold     Thresh          ....  2.500e-11 Eh
 Primitive CutOff       TCut            ....  2.500e-12 Eh

Convergence Tolerance:
 Convergence Check Mode ConvCheckMode   .... Total+1el-Energy
 Convergence forced     ConvForced      .... 0
 Energy Change          TolE            ....  1.000e-08 Eh
 1-El. energy change                    ....  1.000e-05 Eh
 Orbital Gradient       TolG            ....  1.000e-05
 Orbital Rotation angle TolX            ....  1.000e-05
 DIIS Error             TolErr          ....  5.000e-07

------------------------------
INITIAL GUESS: MODEL POTENTIAL
------------------------------
Loading Hartree-Fock densities                     ... done
Atomic calculation to generate a density for atom 0 (C  with ECP)
  Multiplicity assumed   :    1
  Atomic configuration   : 1s2 2s2 2p2 
  Number of open shells  : 1
  Command: /home/aspe232/Project/Software/ORCA/6_0_1/build/orca ./output/diallyl_trisulfide/diallyl_trisulfide_atom6.inp "" > ./output/diallyl_trisulfide/diallyl_trisulfide_atom6.out
Returned from the atomic calculation with res=0
Atomic calculation to generate a density for atom 3 (S  with ECP)
  Multiplicity assumed   :    3
  Atomic configuration   : 1s2 2s2 2p6 3s2 3p4 
  Number of open shells  : 1
  Command: /home/aspe232/Project/Software/ORCA/6_0_1/build/orca ./output/diallyl_trisulfide/diallyl_trisulfide_atom16.inp "" > ./output/diallyl_trisulfide/diallyl_trisulfide_atom16.out
Returned from the atomic calculation with res=0
Calculating cut-offs                               ... done
Initializing the effective Hamiltonian             ... done
Setting up the integral package (SHARK)            ... done
Starting the Coulomb interaction                   ... done (   0.0 sec)
Making the grid                                    ... done (   0.6 sec)
Mapping shells                                     ... done
Starting the XC term evaluation                    ... done (   0.1 sec)
  promolecular density results
     # of electrons  =     93.998228688
     EX              =    -77.792365613
     EC              =     -4.318510883
     EX+EC           =    -82.110876496
Transforming the Hamiltonian                       ... done (   0.0 sec)
Diagonalizing the Hamiltonian                      ... done (   0.0 sec)
Back transforming the eigenvectors                 ... done (   0.0 sec)
Now organizing SCF variables                       ... done
                      ------------------
                      INITIAL GUESS DONE (   2.0 sec)
                      ------------------
             **** ENERGY FILE WAS UPDATED (./output/diallyl_trisulfide/diallyl_trisulfide.en.tmp) ****
Finished Guess after   2.4 sec
Maximum memory used throughout the entire GUESS-calculation: 14.3 MB


           ************************************************************
           *        Program running with 40 parallel MPI-processes    *
           *              working on a common directory               *
           ************************************************************

-------------------------------------------------------------------------------------------
                                      ORCA LEAN-SCF
                              memory conserving SCF solver
-------------------------------------------------------------------------------------------

----------------------------------------D-I-I-S--------------------------------------------
Iteration    Energy (Eh)           Delta-E    RMSDP     MaxDP     DIISErr   Damp  Time(sec)
-------------------------------------------------------------------------------------------
               ***  Starting incremental Fock matrix formation  ***
    1    -70.4088292455968769     0.00e+00  4.06e-03  7.46e-02  1.73e-01  0.700   3.2
    2    -70.5570110587462693    -1.48e-01  3.09e-03  5.99e-02  1.06e-01  0.700   2.3
                               ***Turning on AO-DIIS***
    3    -70.6353195910044462    -7.83e-02  1.71e-03  3.75e-02  5.60e-02  0.700   2.4
    4    -70.6817183954163113    -4.64e-02  3.84e-03  9.52e-02  3.39e-02  0.000   2.3
    5    -70.7806974008965142    -9.90e-02  4.48e-04  9.09e-03  5.30e-03  0.000   2.3
                              *** Initializing SOSCF ***
---------------------------------------S-O-S-C-F--------------------------------------
Iteration    Energy (Eh)           Delta-E    RMSDP     MaxDP     MaxGrad    Time(sec)
--------------------------------------------------------------------------------------
    6    -70.7814226108496598    -7.25e-04  2.56e-04  3.75e-03  1.91e-03     2.3
               *** Restarting incremental Fock matrix formation ***
    7    -70.7816358432023378    -2.13e-04  1.83e-04  2.97e-03  1.38e-03     2.5
    8    -70.7817074271228819    -7.16e-05  1.72e-04  3.12e-03  7.77e-04     2.3
    9    -70.7817244977271400    -1.71e-05  4.04e-05  7.53e-04  3.16e-04     2.5
   10    -70.7817286901622822    -4.19e-06  1.13e-05  2.10e-04  8.46e-05     2.3
   11    -70.7817288914013432    -2.01e-07  6.90e-06  1.72e-04  5.64e-05     2.6
   12    -70.7817289574330459    -6.60e-08  2.27e-06  6.13e-05  1.37e-05     2.2
   13    -70.7817289666638487    -9.23e-09  6.00e-07  1.34e-05  2.52e-06     2.5
                 **** Energy Check signals convergence ****

               *****************************************************
               *                     SUCCESS                       *
               *           SCF CONVERGED AFTER  13 CYCLES          *
               *****************************************************

Recomputing exchange energy using gridx3       ... done (    1.750 sec)
Old exchange energy                            :     -9.601497147 Eh
New exchange energy                            :     -9.601472529 Eh
Exchange energy change after final integration :      0.000024618 Eh
Total energy after final integration           :    -70.781704348 Eh
             **** ENERGY FILE WAS UPDATED (./output/diallyl_trisulfide/diallyl_trisulfide.en.tmp) ****

----------------
TOTAL SCF ENERGY
----------------

Total Energy       :        -70.78170434833132 Eh           -1926.06809 eV

Components:
Nuclear Repulsion  :        218.47972022880057 Eh            5945.13543 eV
Electronic Energy  :       -289.26144919546437 Eh           -7871.20420 eV
One Electron Energy:       -541.31687139005680 Eh          -14729.98093 eV
Two Electron Energy:        252.05542219459241 Eh            6858.77673 eV

Virial components:
Potential Energy   :       -113.53935888869330 Eh           -3089.56303 eV
Kinetic Energy     :         42.75765454036198 Eh            1163.49493 eV
Virial Ratio       :          2.65541597426761

DFT components:
N(Alpha)           :       26.000002867553 electrons
N(Beta)            :       26.000002867553 electrons
N(Total)           :       52.000005735106 electrons
E(X)               :       -9.335939646581 Eh       
E(C)               :       -1.879553068972 Eh       
E(XC)              :      -11.215492715553 Eh       

---------------
SCF CONVERGENCE
---------------

  Last Energy change         ...    9.2308e-09  Tolerance :   1.0000e-08
  Last MAX-Density change    ...    1.3359e-05  Tolerance :   1.0000e-07
  Last RMS-Density change    ...    5.9998e-07  Tolerance :   5.0000e-09
  Last DIIS Error            ...    1.9063e-03  Tolerance :   5.0000e-07
  Last Orbital Gradient      ...    2.5219e-06  Tolerance :   1.0000e-05
  Last Orbital Rotation      ...    1.0079e-05  Tolerance :   1.0000e-05


----------------
ORBITAL ENERGIES
----------------

  NO   OCC          E(Eh)            E(eV) 
   0   2.0000      -0.985919       -26.8282 
   1   2.0000      -0.959523       -26.1099 
   2   2.0000      -0.917838       -24.9756 
   3   2.0000      -0.879113       -23.9219 
   4   2.0000      -0.832076       -22.6419 
   5   2.0000      -0.776289       -21.1239 
   6   2.0000      -0.733017       -19.9464 
   7   2.0000      -0.687829       -18.7168 
   8   2.0000      -0.674720       -18.3601 
   9   2.0000      -0.601357       -16.3638 
  10   2.0000      -0.596717       -16.2375 
  11   2.0000      -0.561271       -15.2730 
  12   2.0000      -0.554036       -15.0761 
  13   2.0000      -0.535993       -14.5851 
  14   2.0000      -0.514370       -13.9967 
  15   2.0000      -0.507097       -13.7988 
  16   2.0000      -0.500184       -13.6107 
  17   2.0000      -0.474873       -12.9219 
  18   2.0000      -0.471660       -12.8345 
  19   2.0000      -0.443519       -12.0688 
  20   2.0000      -0.435788       -11.8584 
  21   2.0000      -0.377797       -10.2804 
  22   2.0000      -0.373918       -10.1748 
  23   2.0000      -0.362457        -9.8629 
  24   2.0000      -0.343215        -9.3393 
  25   2.0000      -0.317288        -8.6338 
  26   0.0000       0.024601         0.6694 
  27   0.0000       0.033002         0.8980 
  28   0.0000       0.066202         1.8015 
  29   0.0000       0.076468         2.0808 
  30   0.0000       0.096826         2.6348 
  31   0.0000       0.097208         2.6452 
  32   0.0000       0.105647         2.8748 
  33   0.0000       0.108820         2.9612 
  34   0.0000       0.114138         3.1058 
  35   0.0000       0.115331         3.1383 
  36   0.0000       0.136377         3.7110 
*Only the first 10 virtual orbitals were printed.

                    ********************************
                    * MULLIKEN POPULATION ANALYSIS *
                    ********************************

-----------------------
MULLIKEN ATOMIC CHARGES
-----------------------
   0 C :   -0.022875
   1 C :   -0.032184
   2 C :   -0.160277
   3 S :    0.013477
   4 S :   -0.051696
   5 S :   -0.013684
   6 C :   -0.144243
   7 C :   -0.029787
   8 C :   -0.034828
   9 H :    0.027388
  10 H :    0.033854
  11 H :    0.024248
  12 H :    0.071526
  13 H :    0.078666
  14 H :    0.071088
  15 H :    0.076540
  16 H :    0.028517
  17 H :    0.029702
  18 H :    0.034567
Sum of atomic charges:   -0.0000000

--------------------------------
MULLIKEN REDUCED ORBITAL CHARGES
--------------------------------
  0 C s       :     1.014500  s :     1.014500
      pz      :     0.993220  p :     2.943228
      px      :     0.972780
      py      :     0.977228
      dz2     :     0.017326  d :     0.065148
      dxz     :     0.011266
      dyz     :     0.011436
      dx2y2   :     0.008865
      dxy     :     0.016255

  1 C s       :     1.055165  s :     1.055165
      pz      :     0.977952  p :     2.883172
      px      :     0.947444
      py      :     0.957775
      dz2     :     0.020648  d :     0.093847
      dxz     :     0.016726
      dyz     :     0.016881
      dx2y2   :     0.020121
      dxy     :     0.019471

  2 C s       :     1.057361  s :     1.057361
      pz      :     1.116325  p :     3.002204
      px      :     0.875015
      py      :     1.010864
      dz2     :     0.017460  d :     0.100712
      dxz     :     0.012773
      dyz     :     0.020357
      dx2y2   :     0.027230
      dxy     :     0.022893

  3 S s       :     1.859439  s :     1.859439
      pz      :     0.995492  p :     3.997909
      px      :     1.235952
      py      :     1.766465
      dz2     :     0.049240  d :     0.129174
      dxz     :     0.022867
      dyz     :     0.012010
      dx2y2   :     0.020358
      dxy     :     0.024699

  4 S s       :     1.913327  s :     1.913327
      pz      :     1.058195  p :     4.013134
      px      :     1.762025
      py      :     1.192914
      dz2     :     0.047291  d :     0.125234
      dxz     :     0.013083
      dyz     :     0.029893
      dx2y2   :     0.015560
      dxy     :     0.019407

  5 S s       :     1.858859  s :     1.858859
      pz      :     1.915601  p :     4.027315
      px      :     0.999815
      py      :     1.111899
      dz2     :     0.018163  d :     0.127510
      dxz     :     0.010827
      dyz     :     0.008993
      dx2y2   :     0.044927
      dxy     :     0.044599

  6 C s       :     1.058952  s :     1.058952
      pz      :     1.023066  p :     2.982322
      px      :     0.885470
      py      :     1.073785
      dz2     :     0.019313  d :     0.102970
      dxz     :     0.024200
      dyz     :     0.024815
      dx2y2   :     0.012915
      dxy     :     0.021727

  7 C s       :     1.059554  s :     1.059554
      pz      :     0.928064  p :     2.874305
      px      :     0.960537
      py      :     0.985704
      dz2     :     0.018277  d :     0.095928
      dxz     :     0.009180
      dyz     :     0.036968
      dx2y2   :     0.012680
      dxy     :     0.018824

  8 C s       :     1.018173  s :     1.018173
      pz      :     1.000465  p :     2.951246
      px      :     0.969078
      py      :     0.981703
      dz2     :     0.011867  d :     0.065409
      dxz     :     0.003396
      dyz     :     0.027567
      dx2y2   :     0.008954
      dxy     :     0.013625

  9 H s       :     0.922737  s :     0.922737
      pz      :     0.023003  p :     0.049875
      px      :     0.015434
      py      :     0.011438

 10 H s       :     0.915862  s :     0.915862
      pz      :     0.012587  p :     0.050284
      px      :     0.020148
      py      :     0.017548

 11 H s       :     0.928102  s :     0.928102
      pz      :     0.022222  p :     0.047650
      px      :     0.014513
      py      :     0.010915

 12 H s       :     0.884140  s :     0.884140
      pz      :     0.014683  p :     0.044334
      px      :     0.010772
      py      :     0.018880

 13 H s       :     0.876700  s :     0.876700
      pz      :     0.022090  p :     0.044634
      px      :     0.011450
      py      :     0.011093

 14 H s       :     0.884875  s :     0.884875
      pz      :     0.016052  p :     0.044037
      px      :     0.010276
      py      :     0.017708

 15 H s       :     0.878687  s :     0.878687
      pz      :     0.011120  p :     0.044773
      px      :     0.016272
      py      :     0.017380

 16 H s       :     0.924800  s :     0.924800
      pz      :     0.018596  p :     0.046682
      px      :     0.011504
      py      :     0.016582

 17 H s       :     0.920345  s :     0.920345
      pz      :     0.018930  p :     0.049953
      px      :     0.013405
      py      :     0.017618

 18 H s       :     0.915985  s :     0.915985
      pz      :     0.023426  p :     0.049447
      px      :     0.014958
      py      :     0.011063



                     *******************************
                     * LOEWDIN POPULATION ANALYSIS *
                     *******************************

----------------------
LOEWDIN ATOMIC CHARGES
----------------------
   0 C :   -0.062752
   1 C :   -0.082286
   2 C :   -0.265737
   3 S :    0.199293
   4 S :    0.031749
   5 S :    0.189205
   6 C :   -0.263435
   7 C :   -0.078742
   8 C :   -0.066244
   9 H :    0.036230
  10 H :    0.038070
  11 H :    0.039375
  12 H :    0.036407
  13 H :    0.047403
  14 H :    0.043541
  15 H :    0.045364
  16 H :    0.041413
  17 H :    0.033826
  18 H :    0.037321

-------------------------------
LOEWDIN REDUCED ORBITAL CHARGES
-------------------------------
  0 C s       :     0.834144  s :     0.834144
      pz      :     1.021696  p :     3.011384
      px      :     0.975641
      py      :     1.014048
      dz2     :     0.058109  d :     0.217224
      dxz     :     0.032209
      dyz     :     0.044875
      dx2y2   :     0.025420
      dxy     :     0.056611

  1 C s       :     0.817810  s :     0.817810
      pz      :     1.020813  p :     2.954137
      px      :     0.946330
      py      :     0.986994
      dz2     :     0.068148  d :     0.310339
      dxz     :     0.052150
      dyz     :     0.060134
      dx2y2   :     0.064422
      dxy     :     0.065485

  2 C s       :     0.822476  s :     0.822476
      pz      :     1.102413  p :     3.113468
      px      :     0.966145
      py      :     1.044909
      dz2     :     0.059470  d :     0.329794
      dxz     :     0.041892
      dyz     :     0.064669
      dx2y2   :     0.087666
      dxy     :     0.076097

  3 S s       :     1.573282  s :     1.573282
      pz      :     1.084967  p :     4.063770
      px      :     1.261003
      py      :     1.717799
      dz2     :     0.065429  d :     0.163656
      dxz     :     0.029179
      dyz     :     0.014817
      dx2y2   :     0.025309
      dxy     :     0.028922

  4 S s       :     1.685946  s :     1.685946
      pz      :     1.141398  p :     4.119995
      px      :     1.711499
      py      :     1.267098
      dz2     :     0.064418  d :     0.162311
      dxz     :     0.015356
      dyz     :     0.035847
      dx2y2   :     0.021214
      dxy     :     0.025475

  5 S s       :     1.569580  s :     1.569580
      pz      :     1.836762  p :     4.079940
      px      :     1.035212
      py      :     1.207966
      dz2     :     0.023820  d :     0.161275
      dxz     :     0.014191
      dyz     :     0.010682
      dx2y2   :     0.055112
      dxy     :     0.057471

  6 C s       :     0.824121  s :     0.824121
      pz      :     1.046319  p :     3.104570
      px      :     0.977844
      py      :     1.080406
      dz2     :     0.062988  d :     0.334744
      dxz     :     0.070539
      dyz     :     0.080294
      dx2y2   :     0.045788
      dxy     :     0.075136

  7 C s       :     0.817458  s :     0.817458
      pz      :     0.992999  p :     2.947157
      px      :     0.885447
      py      :     1.068712
      dz2     :     0.059075  d :     0.314127
      dxz     :     0.033129
      dyz     :     0.128030
      dx2y2   :     0.044873
      dxy     :     0.049020

  8 C s       :     0.833485  s :     0.833485
      pz      :     1.053544  p :     3.015724
      px      :     0.908875
      py      :     1.053305
      dz2     :     0.038607  d :     0.217036
      dxz     :     0.011881
      dyz     :     0.098023
      dx2y2   :     0.034505
      dxy     :     0.034021

  9 H s       :     0.814967  s :     0.814967
      pz      :     0.063401  p :     0.148803
      px      :     0.047163
      py      :     0.038239

 10 H s       :     0.809785  s :     0.809785
      pz      :     0.042814  p :     0.152145
      px      :     0.057644
      py      :     0.051687

 11 H s       :     0.808567  s :     0.808567
      pz      :     0.065398  p :     0.152057
      px      :     0.048950
      py      :     0.037709

 12 H s       :     0.810821  s :     0.810821
      pz      :     0.051951  p :     0.152772
      px      :     0.037830
      py      :     0.062990

 13 H s       :     0.799686  s :     0.799686
      pz      :     0.068333  p :     0.152910
      px      :     0.041382
      py      :     0.043196

 14 H s       :     0.808085  s :     0.808085
      pz      :     0.052505  p :     0.148374
      px      :     0.036801
      py      :     0.059068

 15 H s       :     0.799833  s :     0.799833
      pz      :     0.044398  p :     0.154803
      px      :     0.054018
      py      :     0.056386

 16 H s       :     0.808805  s :     0.808805
      pz      :     0.057971  p :     0.149781
      px      :     0.041067
      py      :     0.050743

 17 H s       :     0.814888  s :     0.814888
      pz      :     0.056645  p :     0.151286
      px      :     0.043948
      py      :     0.050693

 18 H s       :     0.810792  s :     0.810792
      pz      :     0.066263  p :     0.151887
      px      :     0.047248
      py      :     0.038376



                      *****************************
                      * MAYER POPULATION ANALYSIS *
                      *****************************

  NA   - Mulliken gross atomic population
  ZA   - Total nuclear charge
  QA   - Mulliken gross atomic charge
  VA   - Mayer's total valence
  BVA  - Mayer's bonded valence
  FA   - Mayer's free valence

  ATOM       NA         ZA         QA         VA         BVA        FA
  0 C      4.0229     4.0000    -0.0229     3.9847     3.9847    -0.0000
  1 C      4.0322     4.0000    -0.0322     4.0007     4.0007    -0.0000
  2 C      4.1603     4.0000    -0.1603     3.9943     3.9943    -0.0000
  3 S      5.9865     6.0000     0.0135     1.9387     1.9387    -0.0000
  4 S      6.0517     6.0000    -0.0517     1.9706     1.9706     0.0000
  5 S      6.0137     6.0000    -0.0137     1.9629     1.9629     0.0000
  6 C      4.1442     4.0000    -0.1442     3.9965     3.9965     0.0000
  7 C      4.0298     4.0000    -0.0298     4.0056     4.0056     0.0000
  8 C      4.0348     4.0000    -0.0348     3.9837     3.9837     0.0000
  9 H      0.9726     1.0000     0.0274     1.0451     1.0451    -0.0000
 10 H      0.9661     1.0000     0.0339     1.0404     1.0404    -0.0000
 11 H      0.9758     1.0000     0.0242     1.0454     1.0454    -0.0000
 12 H      0.9285     1.0000     0.0715     1.0210     1.0210     0.0000
 13 H      0.9213     1.0000     0.0787     1.0306     1.0306    -0.0000
 14 H      0.9289     1.0000     0.0711     1.0262     1.0262     0.0000
 15 H      0.9235     1.0000     0.0765     1.0238     1.0238    -0.0000
 16 H      0.9715     1.0000     0.0285     1.0445     1.0445     0.0000
 17 H      0.9703     1.0000     0.0297     1.0444     1.0444    -0.0000
 18 H      0.9654     1.0000     0.0346     1.0383     1.0383    -0.0000

  Mayer bond orders larger than 0.100000
B(  0-C ,  1-C ) :   1.9403 B(  0-C ,  9-H ) :   0.9991 B(  0-C , 10-H ) :   0.9999 
B(  1-C ,  2-C ) :   1.0117 B(  1-C , 11-H ) :   1.0066 B(  2-C ,  3-S ) :   0.9647 
B(  2-C , 12-H ) :   0.9992 B(  2-C , 13-H ) :   0.9881 B(  3-S ,  4-S ) :   0.9652 
B(  4-S ,  5-S ) :   0.9757 B(  5-S ,  6-C ) :   0.9636 B(  6-C ,  7-C ) :   1.0225 
B(  6-C , 14-H ) :   0.9952 B(  6-C , 15-H ) :   0.9905 B(  7-C ,  8-C ) :   1.9248 
B(  7-C , 16-H ) :   1.0018 B(  8-C , 17-H ) :   0.9986 B(  8-C , 18-H ) :   0.9992 


-------
TIMINGS
-------

Total SCF time: 0 days 0 hours 0 min 36 sec 

Total time                  ....      36.827 sec
Sum of individual times     ....      35.321 sec  ( 95.9%)

SCF preparation             ....       1.703 sec  (  4.6%)
Fock matrix formation       ....      32.487 sec  ( 88.2%)
  Startup                   ....       0.445 sec  (  1.4% of F)
  Split-RI-J                ....       0.983 sec  (  3.0% of F)
  Chain of spheres X        ....      12.375 sec  ( 38.1% of F)
  XC integration            ....      18.119 sec  ( 55.8% of F)
    XC Preparation          ....       0.000 sec  (  0.0% of XC)
    Basis function eval.    ....       0.326 sec  (  1.8% of XC)
    Density eval.           ....       0.100 sec  (  0.6% of XC)
    XC-Functional eval.     ....       0.157 sec  (  0.9% of XC)
    XC-Potential eval.      ....       0.145 sec  (  0.8% of XC)
Diagonalization             ....       0.000 sec  (  0.0%)
Density matrix formation    ....       0.198 sec  (  0.5%)
Total Energy calculation    ....       0.244 sec  (  0.7%)
Population analysis         ....       0.049 sec  (  0.1%)
Orbital Transformation      ....       0.062 sec  (  0.2%)
Orbital Orthonormalization  ....       0.000 sec  (  0.0%)
DIIS solution               ....       0.359 sec  (  1.0%)
SOSCF solution              ....       0.219 sec  (  0.6%)
Finished LeanSCF after  36.9 sec

Maximum memory used throughout the entire LEANSCF-calculation: 25.4 MB


           ************************************************************
           *        Program running with 40 parallel MPI-processes    *
           *              working on a common directory               *
           ************************************************************

------------------------------------------------------------------------------
                         ORCA PROPERTY INTEGRAL CALCULATIONS
------------------------------------------------------------------------------

GBWName                                   ... ./output/diallyl_trisulfide/diallyl_trisulfide.gbw
Number of atoms                           ...     19
Number of basis functions                 ...    167
Max core memory                           ...   1024 MB

Dipole integrals                          ... YES
Quadrupole integrals                      ...  NO
Linear momentum integrals                 ...  NO
Angular momentum integrals                ...  NO
Higher moments length integrals           ...  NO
Higher moments velocity integrals         ...  NO
Kinetic energy integrals                  ...  NO
GIAO right hand sides                     ...  NO
GIAO dipole derivative integrals          ...  NO
SOC integrals                             ...  NO
EPR diamagnetic integrals (GIAO)          ...  NO
EPR gauge integrals                       ...  NO
Field gradient integrals                  ...  NO (   0 nuclei)
Spin-dipole/Fermi contact integrals       ...  NO (   0 nuclei)
Contact density integrals                 ...  NO (   0 nuclei)
Nucleus-orbit integrals                   ...  NO (   0 nuclei)
Geometric perturbations                   ...  NO (  19 nuclei)

Choice of electric origin   ... Center of mass
Position of electric origin ... (  0.0218,  0.2614,  0.5278) 
Choice of magnetic origin   ... GIAO
Position of magnetic origin ... (  0.0000,  0.0000,  0.0000) 

Calculating integrals                     ... Electric Dipole (Length)     done (  0.0 sec)

Property integrals calculated in   0.0 sec

Maximum memory used throughout the entire PROPINT-calculation: 11.9 MB


-------------------------------------------------------------------------------
                          DFT DISPERSION CORRECTION                            
                                                                               
                                DFTD4 V3.4.0                                   
-------------------------------------------------------------------------------
The wB97X-3c composite method is recognized
Using three-body term ABC
Active option DFTDOPT                   ...         5   

-------------------------   ----------------
Dispersion correction           -0.026491447
-------------------------   ----------------


-------------------------   --------------------
FINAL SINGLE POINT ENERGY       -70.808195795707
-------------------------   --------------------



           ************************************************************
           *        Program running with 40 parallel MPI-processes    *
           *              working on a common directory               *
           ************************************************************
------------------------------------------------------------------------------
                         ORCA SCF GRADIENT CALCULATION
------------------------------------------------------------------------------

Nuc. rep. gradient        (SHARK) ... done (  0.0 sec)
HCore & Overlap gradient  (SHARK) ... done (  0.0 sec)
ECP gradient              (SHARK) ... done (  0.3 sec)
Split-RIJ-J gradient      (SHARK) ... done (  0.3 sec)
COSX-gradient                     ... done (  2.9 sec)
XC gradient                       ... done (  1.1 sec)
Dispersion correction             ... done (  0.1 sec)

-------------------
DISPERSION GRADIENT
-------------------

   1   C   :   -0.000503485   -0.000391002   -0.000174291
   2   C   :   -0.000623590   -0.000058874   -0.000053349
   3   C   :   -0.000299825    0.000283329   -0.000310658
   4   S   :   -0.000134692   -0.000297288   -0.000843195
   5   S   :   -0.000284845   -0.000403492    0.000900918
   6   S   :   -0.000013628    0.000971024    0.000814909
   7   C   :    0.000406353    0.000265629    0.000319987
   8   C   :    0.000739778    0.000059366   -0.000193857
   9   C   :    0.000670888   -0.000405238   -0.000264444
  10   H   :   -0.000100583   -0.000118853   -0.000073577
  11   H   :   -0.000068063   -0.000085155   -0.000004091
  12   H   :   -0.000169984   -0.000013856    0.000065367
  13   H   :   -0.000128776    0.000133330   -0.000056630
  14   H   :   -0.000038402    0.000103614   -0.000114993
  15   H   :    0.000102067    0.000011942    0.000134951
  16   H   :    0.000093200    0.000103551    0.000075904
  17   H   :    0.000146310    0.000058005   -0.000121690
  18   H   :    0.000128553   -0.000143493   -0.000033433
  19   H   :    0.000078724   -0.000072538   -0.000067831

Difference to translation invariance:
           :    0.0000000000    0.0000000000   -0.0000000000

Difference to rotation invariance:
           :    0.0000000000    0.0000000000   -0.0000000000

Norm of the Dispersion gradient    ...    0.0025446574
RMS gradient                       ...    0.0003370481
MAX gradient                       ...    0.0009710236

------------------
CARTESIAN GRADIENT
------------------

   1   C   :    0.001696467   -0.012120534   -0.011897823
   2   C   :    0.007638883    0.012651790    0.014536165
   3   C   :    0.008838195   -0.008917046   -0.000399024
   4   S   :    0.008735781    0.003678639   -0.020750379
   5   S   :   -0.010520518   -0.029268203    0.032862812
   6   S   :    0.004257448    0.024616839   -0.022648264
   7   C   :   -0.017145668   -0.005673680    0.003268986
   8   C   :   -0.004655742    0.021764136   -0.007027439
   9   C   :    0.002667079   -0.014763303    0.001102050
  10   H   :    0.001403225    0.001782713   -0.002217232
  11   H   :   -0.002425869   -0.000015656    0.003157137
  12   H   :   -0.003409578   -0.000866657    0.000907181
  13   H   :   -0.004262524    0.009741669    0.011309048
  14   H   :   -0.007855244    0.004642749   -0.010673712
  15   H   :    0.001839329   -0.012353755    0.011625747
  16   H   :    0.011209969    0.005354258    0.001026352
  17   H   :    0.002001355   -0.001430608   -0.003804153
  18   H   :   -0.000205565   -0.000716059    0.002672293
  19   H   :    0.000192976    0.001892708   -0.003049747

Difference to translation invariance:
           :    0.0000000000   -0.0000000000    0.0000000000

Difference to rotation invariance:
           :    0.0000544533   -0.0000042721   -0.0000360011

Norm of the Cartesian gradient     ...    0.0815869342
RMS gradient                       ...    0.0108064534
MAX gradient                       ...    0.0328628121

-------
TIMINGS
-------

Total SCF gradient time     ....        4.647 sec

Densities                   ....       0.001 sec  (  0.0%)
One electron gradient       ....       0.032 sec  (  0.7%)
RI-J Coulomb gradient       ....       0.267 sec  (  5.7%)
COSX gradient               ....       2.903 sec  ( 62.5%)
XC gradient                 ....       1.124 sec  ( 24.2%)

Maximum memory used throughout the entire SCFGRAD-calculation: 31.8 MB
------------------------------------------------------------------------------
                         ORCA GEOMETRY RELAXATION STEP
------------------------------------------------------------------------------

Reading the OPT-File                    .... done
Getting information on internals        .... done
Copying old internal coords+grads       .... done
Making the new internal coordinates     .... (2022 redundants) done
Validating the new internal coordinates .... (2022 redundants) done
Calculating the B-matrix                .... done
Calculating the G,G- and P matrices     .... done
Transforming gradient to internals      .... done
Projecting the internal gradient        .... done
Number of atoms                         ....  19
Number of internal coordinates          ....  71
Current Energy                          ....   -70.808195796 Eh
Current gradient norm                   ....     0.081586934 Eh/bohr
Maximum allowed component of the step   ....  0.300
Current trust radius                    ....  0.300
Evaluating the initial hessian          ....  (Almloef) done
Projecting the Hessian                  .... done
Forming the augmented Hessian           .... done
Diagonalizing the augmented Hessian     .... done
Last element of RFO vector              ....  0.950894466
Lowest eigenvalues of augmented Hessian:
 -0.021581541  0.001862930  0.002241476  0.003365665  0.004188627
Length of the computed step             ....  0.325499098
Warning: the length of the step is outside the trust region - taking restricted step instead
The input lambda is                     ....     0.000863
   iter:   5  x=   -0.007039  g=  228.992403 f(x)=     0.700814
   iter:  10  x=   -0.025782  g=    3.219921 f(x)=     0.002081
The output lambda is                    ....    -0.025804 (14 iterations)
The final length of the internal step   ....  0.300000000
Converting the step to Cartesian space:
 Initial RMS(Int)=    0.0356034497
Transforming coordinates:
 Iter   0:  RMS(Cart)=    0.2377934762 RMS(Int)=    0.7444113009
 Iter   5:  RMS(Cart)=    0.0000221031 RMS(Int)=    0.0000069038
done
Storing new coordinates                 .... done

                                .--------------------.
          ----------------------|Geometry convergence|-------------------------
          Item                value                   Tolerance       Converged
          ---------------------------------------------------------------------
          RMS gradient        0.0107805620            0.0001000000      NO
          MAX gradient        0.0622097798            0.0003000000      NO
          RMS step            0.0356034497            0.0020000000      NO
          MAX step            0.1440659890            0.0040000000      NO
          ........................................................
          Max(Bonds)      0.0272      Max(Angles)    8.25
          Max(Dihed)        6.53      Max(Improp)    0.00
          ---------------------------------------------------------------------

The optimization has not yet converged - more geometry cycles are needed


    ---------------------------------------------------------------------------
                         Redundant Internal Coordinates
                            (Angstroem and degrees)

        Definition                    Value    dE/dq     Step     New-Value
    ----------------------------------------------------------------------------
     1. B(C   1,C   0)                1.3359  0.014118 -0.0095    1.3264   
     2. B(C   2,C   1)                1.5015 -0.002909  0.0035    1.5050   
     3. B(S   3,C   2)                1.8251  0.001431 -0.0021    1.8230   
     4. B(S   4,S   3)                2.1350  0.015191 -0.0251    2.1098   
     5. B(S   5,S   4)                2.1349  0.016463 -0.0272    2.1077   
     6. B(C   6,S   5)                1.8228 -0.001217  0.0017    1.8246   
     7. B(C   7,C   6)                1.5014  0.006991 -0.0084    1.4930   
     8. B(C   8,C   7)                1.3360  0.013480 -0.0091    1.3269   
     9. B(H   9,C   0)                1.0859  0.002238 -0.0030    1.0829   
    10. B(H  10,C   0)                1.0851  0.002746 -0.0037    1.0814   
    11. B(H  11,C   1)                1.0859  0.002260 -0.0031    1.0829   
    12. B(H  12,C   2)                1.1104  0.014575 -0.0214    1.0890   
    13. B(H  13,C   2)                1.1105  0.013087 -0.0193    1.0913   
    14. B(H  14,C   6)                1.1117  0.017011 -0.0251    1.0866   
    15. B(H  15,C   6)                1.1096  0.011102 -0.0163    1.0933   
    16. B(H  16,C   7)                1.0860  0.002014 -0.0027    1.0832   
    17. B(H  17,C   8)                1.0857  0.002432 -0.0033    1.0824   
    18. B(H  18,C   8)                1.0851  0.002311 -0.0031    1.0820   
    19. A(C   1,C   0,H   9)          120.94 -0.000783    0.15    121.09   
    20. A(C   1,C   0,H  10)          120.03 -0.002559    0.41    120.44   
    21. A(H   9,C   0,H  10)          119.03  0.003341   -0.56    118.47   
    22. A(C   2,C   1,H  11)          119.08  0.007144   -1.05    118.03   
    23. A(C   0,C   1,C   2)          121.64 -0.009345    1.28    122.92   
    24. A(C   0,C   1,H  11)          119.27  0.002184   -0.23    119.04   
    25. A(S   3,C   2,H  12)          109.70  0.007864   -1.22    108.48   
    26. A(C   1,C   2,H  12)          109.77 -0.000846    0.60    110.37   
[...]
     30       0.028320   0.579400  -0.000329
     31       0.019480   0.396255  -0.000231
     32      -0.016741  -0.322144   0.000180
     33      -0.020247  -0.003287  -0.000008
     34       0.154209   0.018560  -0.000061
     35      -0.945481  -0.116390   0.000340
     36      -0.009001  -0.000834  -0.000018
     37      -0.070667  -0.004012   0.000096
     38      -0.028204  -0.002059  -0.000008
     39      -0.005713   0.001400   0.000080
     40       0.009372   0.002286  -0.000011
     41      -0.082076  -0.008811   0.000023
     42      -0.002747  -0.000004   0.001522
     43       0.007210   0.000007  -0.005083
     44      -0.007780   0.000001   0.008743
     45       0.002941  -0.000004  -0.001212
     46       0.006782  -0.000020  -0.004369
     47       0.002192   0.000001  -0.001145
     48      -0.012619   0.000013   0.017812
     49       0.051300  -0.000024  -0.070549
     50      -0.059471   0.000032   0.080484
     51       0.003248   0.000060   0.098599
     52      -0.014162  -0.000246  -0.427778
     53       0.015665   0.000260   0.459647
     54       0.001662  -0.000125  -0.208824
     55      -0.001569   0.000126   0.201452
     56      -0.005752   0.000442   0.699986


-----------
IR SPECTRUM
-----------

 Mode   freq       eps      Int      T**2         TX        TY        TZ
       cm**-1   L/(mol*cm) km/mol    a.u.
----------------------------------------------------------------------------
  6:     34.57   0.000103    0.52  0.000929  ( 0.011951  0.027550 -0.005193)
  7:     46.77   0.000065    0.33  0.000431  (-0.004648 -0.003200  0.019986)
  8:     67.90   0.000061    0.31  0.000280  (-0.002116 -0.007371 -0.014875)
  9:     71.61   0.000025    0.13  0.000111  ( 0.001064 -0.010387  0.001419)
 10:     91.04   0.000040    0.20  0.000139  (-0.005037  0.000627  0.010627)
 11:    117.33   0.000039    0.20  0.000105  ( 0.000784 -0.003678 -0.009535)
 12:    163.56   0.000236    1.19  0.000450  (-0.010378  0.007058 -0.017110)
 13:    236.43   0.000099    0.50  0.000130  ( 0.006339 -0.001919 -0.009282)
 14:    251.77   0.000434    2.19  0.000538  ( 0.021277  0.003772 -0.008443)
 15:    322.65   0.000152    0.77  0.000147  ( 0.003610  0.003980  0.010882)
 16:    331.67   0.000615    3.11  0.000579  (-0.021729 -0.007856  0.006720)
 17:    420.51   0.000336    1.70  0.000250  (-0.010941 -0.008384 -0.007722)
 18:    420.61   0.000192    0.97  0.000143  ( 0.011633 -0.000869  0.002560)
 19:    525.87   0.001353    6.84  0.000803  (-0.014444 -0.018904 -0.015388)
 20:    526.68   0.001607    8.12  0.000952  ( 0.012240  0.016191  0.023245)
 21:    615.17   0.001638    8.28  0.000831  (-0.022172 -0.018380 -0.001152)
 22:    626.67   0.001738    8.78  0.000865  ( 0.009319 -0.027044 -0.006868)
 23:    770.78   0.002141   10.82  0.000867  (-0.021656  0.016623  0.011030)
 24:    775.87   0.002033   10.27  0.000818  ( 0.027436  0.007696 -0.002395)
 25:    897.14   0.000408    2.06  0.000142  (-0.000612 -0.009560 -0.007092)
 26:    900.37   0.001845    9.33  0.000640  ( 0.021202 -0.009420  0.010068)
 27:    969.42   0.009746   49.25  0.003137  ( 0.032814 -0.044893 -0.006723)
 28:    972.82   0.010578   53.46  0.003393  ( 0.053934  0.020481  0.008052)
 29:    974.61   0.000421    2.13  0.000135  ( 0.010451  0.000833 -0.004981)
 30:    983.49   0.000268    1.35  0.000085  (-0.003308 -0.006197  0.005972)
 31:   1039.87   0.002537   12.82  0.000761  ( 0.024647  0.011940  0.003345)
 32:   1049.71   0.002438   12.32  0.000725  ( 0.014742 -0.022242 -0.003559)
 33:   1124.85   0.001040    5.25  0.000288  ( 0.016255  0.004539  0.001902)
 34:   1135.56   0.000832    4.21  0.000229  (-0.014124  0.005220  0.001426)
 35:   1257.93   0.000616    3.11  0.000153  (-0.009379  0.000307 -0.008040)
 36:   1260.47   0.000061    0.31  0.000015  (-0.003527  0.001395 -0.000816)
 37:   1290.72   0.003049   15.41  0.000737  ( 0.026695  0.003079  0.003877)
 38:   1294.95   0.004969   25.11  0.001197  ( 0.028495  0.003820  0.019259)
 39:   1349.64   0.000380    1.92  0.000088  ( 0.007628  0.003457 -0.004198)
 40:   1350.09   0.000137    0.69  0.000032  (-0.002344 -0.004732  0.001960)
 41:   1465.74   0.001203    6.08  0.000256  (-0.001288 -0.012610 -0.009769)
 42:   1469.02   0.000894    4.52  0.000190  ( 0.005041  0.012734  0.001519)
 43:   1498.25   0.002456   12.41  0.000511  ( 0.011589 -0.008896  0.017263)
 44:   1499.45   0.003051   15.42  0.000635  ( 0.016037 -0.010584  0.016299)
 45:   1768.01   0.001369    6.92  0.000242  (-0.008708  0.011591  0.005615)
 46:   1768.64   0.002566   12.97  0.000453  ( 0.018265  0.007451  0.007975)
 47:   3122.84   0.001416    7.16  0.000142  ( 0.006503  0.004274  0.008997)
 48:   3124.57   0.001255    6.34  0.000125  ( 0.001270 -0.009219  0.006227)
 49:   3191.21   0.000063    0.32  0.000006  (-0.002222  0.000618  0.000904)
 50:   3199.50   0.000440    2.22  0.000043  (-0.005559 -0.000945 -0.003329)
 51:   3208.74   0.001171    5.92  0.000114  ( 0.006735  0.001978  0.008039)
 52:   3211.31   0.000782    3.95  0.000076  ( 0.005029 -0.006774  0.002194)
 53:   3236.51   0.000524    2.65  0.000050  (-0.001513 -0.004650  0.005155)
 54:   3236.85   0.000395    2.00  0.000038  (-0.004405 -0.001005  0.004202)
 55:   3309.00   0.000576    2.91  0.000054  (-0.003512 -0.002906  0.005793)
 56:   3312.29   0.000372    1.88  0.000035  ( 0.000862  0.001623 -0.005630)

* The epsilon (eps) is given for a Dirac delta lineshape.
** The dipole moment derivative (T) already includes vibrational overlap.

The first frequency considered to be a vibration is 6
The total number of vibrations considered is 51


--------------------------
THERMOCHEMISTRY AT 298.15K
--------------------------

Temperature         ...   298.15 K
Pressure            ...     1.00 atm
Total Mass          ...   178.33 AMU
Quasi RRHO          ...     True
Cut-Off Frequency   ...     1.00 cm^-1

Throughout the following assumptions are being made:
  (1) The electronic state is orbitally nondegenerate
  (2) There are no thermally accessible electronically excited states
  (3) Hindered rotations indicated by low frequency modes are not
      treated as such but are treated as vibrations and this may
      cause some error
  (4) All equations used are the standard statistical mechanics
      equations for an ideal gas
  (5) All vibrations are strictly harmonic

freq.      34.57  E(vib)   ...       0.54 
freq.      46.77  E(vib)   ...       0.53 
freq.      67.90  E(vib)   ...       0.50 
freq.      71.61  E(vib)   ...       0.50 
freq.      91.04  E(vib)   ...       0.47 
freq.     117.33  E(vib)   ...       0.44 
freq.     163.56  E(vib)   ...       0.39 
freq.     236.43  E(vib)   ...       0.32 
freq.     251.77  E(vib)   ...       0.30 
freq.     322.65  E(vib)   ...       0.25 
freq.     331.67  E(vib)   ...       0.24 
freq.     420.51  E(vib)   ...       0.18 
freq.     420.61  E(vib)   ...       0.18 
freq.     525.87  E(vib)   ...       0.13 
freq.     526.68  E(vib)   ...       0.13 
freq.     615.17  E(vib)   ...       0.10 
freq.     626.67  E(vib)   ...       0.09 
freq.     770.78  E(vib)   ...       0.05 
freq.     775.87  E(vib)   ...       0.05 
freq.     897.14  E(vib)   ...       0.03 
freq.     900.37  E(vib)   ...       0.03 
freq.     969.42  E(vib)   ...       0.03 
freq.     972.82  E(vib)   ...       0.03 
freq.     974.61  E(vib)   ...       0.03 
freq.     983.49  E(vib)   ...       0.02 
freq.    1039.87  E(vib)   ...       0.02 
freq.    1049.71  E(vib)   ...       0.02 
freq.    1124.85  E(vib)   ...       0.01 
freq.    1135.56  E(vib)   ...       0.01 
freq.    1257.93  E(vib)   ...       0.01 
freq.    1260.47  E(vib)   ...       0.01 
freq.    1290.72  E(vib)   ...       0.01 
freq.    1294.95  E(vib)   ...       0.01 
freq.    1349.64  E(vib)   ...       0.01 
freq.    1350.09  E(vib)   ...       0.01 
freq.    1465.74  E(vib)   ...       0.00 
freq.    1469.02  E(vib)   ...       0.00 
freq.    1498.25  E(vib)   ...       0.00 
freq.    1499.45  E(vib)   ...       0.00 
freq.    1768.01  E(vib)   ...       0.00 
freq.    1768.64  E(vib)   ...       0.00 
freq.    3122.84  E(vib)   ...       0.00 
freq.    3124.57  E(vib)   ...       0.00 
freq.    3191.21  E(vib)   ...       0.00 
freq.    3199.50  E(vib)   ...       0.00 
freq.    3208.74  E(vib)   ...       0.00 
freq.    3211.31  E(vib)   ...       0.00 
freq.    3236.51  E(vib)   ...       0.00 
freq.    3236.85  E(vib)   ...       0.00 
freq.    3309.00  E(vib)   ...       0.00 
freq.    3312.29  E(vib)   ...       0.00 

------------
INNER ENERGY
------------

The inner energy is: U= E(el) + E(ZPE) + E(vib) + E(rot) + E(trans)
    E(el)   - is the total energy from the electronic structure calculation
              = E(kin-el) + E(nuc-el) + E(el-el) + E(nuc-nuc)
    E(ZPE)  - the the zero temperature vibrational energy from the frequency calculation
    E(vib)  - the the finite temperature correction to E(ZPE) due to population
              of excited vibrational states
    E(rot)  - is the rotational thermal energy
    E(trans)- is the translational thermal energy

Summary of contributions to the inner energy U:
Electronic energy                ...    -70.83122590 Eh
Zero point energy                ...      0.15011075 Eh      94.20 kcal/mol
Thermal vibrational correction   ...      0.00906658 Eh       5.69 kcal/mol
Thermal rotational correction    ...      0.00141627 Eh       0.89 kcal/mol
Thermal translational correction ...      0.00141627 Eh       0.89 kcal/mol
-----------------------------------------------------------------------
Total thermal energy                    -70.66921603 Eh


Summary of corrections to the electronic energy:
(perhaps to be used in another calculation)
Total thermal correction                  0.01189912 Eh       7.47 kcal/mol
Non-thermal (ZPE) correction              0.15011075 Eh      94.20 kcal/mol
-----------------------------------------------------------------------
Total correction                          0.16200987 Eh     101.66 kcal/mol


--------
ENTHALPY
--------

The enthalpy is H = U + kB*T
                kB is Boltzmann's constant
Total thermal energy              ...    -70.66921603 Eh 
Thermal Enthalpy correction       ...      0.00094421 Eh       0.59 kcal/mol
-----------------------------------------------------------------------
Total Enthalpy                    ...    -70.66827182 Eh


Note: Only C1 symmetry has been detected, increase convergence thresholds 
      if your molecule has a higher symmetry. Symmetry factor of 1.0 is   
      used for the rotational entropy correction. 
 

Note: Rotational entropy computed according to Herzberg 
Infrared and Raman Spectra, Chapter V,1, Van Nostrand Reinhold, 1945 
Point Group:  C1, Symmetry Number:   1  
Rotational constants in cm-1:     0.068509     0.017107     0.015181 

Vibrational entropy computed according to the QRRHO of S. Grimme
Chem.Eur.J. 2012 18 9955 using a reference frequency of 100.0 cm-1


-------
ENTROPY
-------

The entropy contributions are T*S = T*(S(el)+S(vib)+S(rot)+S(trans))
     S(el)   - electronic entropy
     S(vib)  - vibrational entropy
     S(rot)  - rotational entropy
     S(trans)- translational entropy
The entropies will be listed as multiplied by the temperature to get
units of energy

Electronic entropy                ...      0.00000000 Eh      0.00 kcal/mol
Vibrational entropy               ...      0.01647247 Eh     10.34 kcal/mol
Rotational entropy                ...      0.01467395 Eh      9.21 kcal/mol
Translational entropy             ...      0.01969047 Eh     12.36 kcal/mol
-----------------------------------------------------------------------
Final entropy term                ...      0.05083690 Eh     31.90 kcal/mol

In case the symmetry of your molecule has not been determined correctly
or in case you have a reason to use a different symmetry number we print 
out the resulting rotational entropy values for sn=1,12:

 non-linear molecules -----------------------------------
|  sn= 1 | S(rot)=       0.01467395 Eh      9.21 kcal/mol|
|  sn= 2 | S(rot)=       0.01401949 Eh      8.80 kcal/mol|
|  sn= 3 | S(rot)=       0.01363666 Eh      8.56 kcal/mol|
|  sn= 4 | S(rot)=       0.01336504 Eh      8.39 kcal/mol|
|  sn= 5 | S(rot)=       0.01315435 Eh      8.25 kcal/mol|
|  sn= 6 | S(rot)=       0.01298221 Eh      8.15 kcal/mol|
|  sn= 7 | S(rot)=       0.01283666 Eh      8.06 kcal/mol|
|  sn= 8 | S(rot)=       0.01271058 Eh      7.98 kcal/mol|
|  sn= 9 | S(rot)=       0.01259937 Eh      7.91 kcal/mol|
|  sn=10 | S(rot)=       0.01249989 Eh      7.84 kcal/mol|
|  sn=11 | S(rot)=       0.01240990 Eh      7.79 kcal/mol|
|  sn=12 | S(rot)=       0.01232775 Eh      7.74 kcal/mol|
 linear molecules ---------------------------------------
|  Dinfh | S(rot)=       0.00927978 Eh      5.82 kcal/mol|
|  Cinfv | S(rot)=       0.00993423 Eh      6.23 kcal/mol|
 --------------------------------------------------------


-------------------
GIBBS FREE ENERGY
-------------------

The Gibbs free energy is G = H - T*S

Total enthalpy                    ...    -70.66827182 Eh 
Total entropy correction          ...     -0.05083690 Eh    -31.90 kcal/mol
-----------------------------------------------------------------------
Final Gibbs free energy         ...    -70.71910872 Eh

For completeness - the Gibbs free energy minus the electronic energy
G-E(el)                           ...      0.11211718 Eh     70.35 kcal/mol


Maximum memory used throughout the entire PROP-calculation: 70.9 MB

--------------------------------
SUGGESTED CITATIONS FOR THIS RUN
--------------------------------

Below you find a list of papers that are relevant to this ORCA run
We neither can nor want to force you to cite these papers, but we appreciate if you do
You receive ORCA, which is the product of decades of hard work by many enthusiastic individuals, for free
The only thing we kindly ask in return is that you cite our papers,
We deeply appreciate it, if you show your appreciation for ORCA by not just citing the generic ORCA reference.

Please note that relegating all ORCA citations to the supporting information does *not* help us.
SI sections are not indexed - citations you put there will not count into any citation statistics
But we need these citations in order to attract the funding resources that allow us to do what we are doing

Therefore, if you are a happy ORCA user, please consider citing a few of the papers listed below in the main body of your paper

In addition to the list printed below, the program has created the file ./output/diallyl_trisulfide/diallyl_trisulfide.bibtex that contains the list in bibtex format
You can import this file easily into all common literature databanks and citation aid programs


List of essential papers. We consider these as the minimum necessary citations

  1. Neese,F.
     Software update: the ORCA program system, version 5.0
     WIRES Comput. Molec. Sci., 2022 12(1)e1606
     doi.org/10.1002/wcms.1606
  2. Mueller,M.; Hansen,A.; Grimme,S.
     wB97X-3c: A composite range-separated hybrid DFT method with a molecule-optimized polarized valence double-zeta basis set
     J. Chem. Phys., 2023 158 014103
     doi.org/10.1063/5.0133026

List of papers to cite with high priority. The work reported in these papers was absolutely
necessary for this run to complete.
Our perspective: the developers of density functionals and basis sets usually get cited in chemistry papers
Good! But without the algorithms to do something with them, the functionals or basis sets would not do anything.
Hence, in our opinion, the algorithm design and method developments papers are equally worthy of getting cited

  1. Neese,F.
     An improvement of the resolution of the identity approximation for the formation of the Coulomb matrix
     J. Comp. Chem., 2003 24(14)1740-1747
     doi.org/10.1002/jcc.10318
  2. Neese,F.; Wennmohs,F.; Hansen,A.; Becker,U.
     Efficient, approximate and parallel Hartree-Fock and hybrid DFT calculations. A 'chain-of-spheres' algorithm for the Hartree-Fock exchange
     Chem. Phys., 2009 356(1-3)98-109
     doi.org/10.1016/j.chemphys.2008.10.036
  3. Bykov,D.; Petrenko,T.; Izsak,R.; Kossmann,S.; Becker,U.; Valeev,E.; Neese,F.
     Efficient implementation of the analytic second derivatives of Hartree-Fock and hybrid DFT energies: a detailed analysis of different approximations
     Molec. Phys., 2015 113 1961-1977
     doi.org/10.1080/00268976.2015.1025114
  4. Helmich-Paris,B.; de Souza,B.; Neese,F.; Izsák,R.
     An improved chain of spheres for exchange algorithm
     J. Chem. Phys., 2021 155 104109
     doi.org/doi: 10.1063/5.0058766.
  5. Neese,F.
     The SHARK Integral Generation and Digestion System
     J. Comp. Chem., 2022  1-16
     doi.org/10.1002/jcc.26942
  6. Caldeweyher,E.; Bannwarth,C.; Grimme,S.
     Extension of the D3 dispersion coefficient model
     J. Chem. Phys., 2017 147 034112
     doi.org/10.1063/1.4993215
  7. Caldeweyher,E.; Ehlert,S.; Hansen,A.; Neugebauer,H.; Spicher,S.; Bannwarth,C.; Grimme,S.
     A generally applicable atomic-charge dependent London dispersion correction
     J. Chem. Phys., 2019 150 154122
     doi.org/10.1063/1.5090222
  8. Caldeweyher,E.; Mewes,J.; Ehlert,S.; Grimme,S.
     Extension and evaluation of the D4 London-dispersion model for periodic systems
     Phys. Chem. Chem. Phys., 2020 22(16)8499-8512
     doi.org/10.1039/D0CP00502A
  9. Wittmann,L.; Gordiy,I.; Friede,M.; Helmich-Paris,B.; Grimme,S.; Hansen,A.; Bursch,M.
     Extension of the D3 and D4 London Dispersion Corrections to the full Actinides Series
     Phys. Chem. Chem. Phys., 2024 26(32)21379-21394
     doi.org/https://doi.org/10.1039/D4CP01514B 

List of suggested additional citations. These are papers that are important in the 'surrounding' of 
of this run, or papers that preceded the highly important papers. If you like your results we are grateful for a citation.

  1. Izsak,R.; Neese,F.
     An overlap fitted chain of spheres exchange method
     J. Chem. Phys., 2011 135 144105
     doi.org/10.1063/1.3646921
  2. Izsak,R.; Hansen,A.; Neese,F.
     The resolution of identity and chain of spheres approximations for the LPNO-CCSD singles Fock term
     Molec. Phys., 2012 110 2413-2417
     doi.org/10.1080/00268976.2012.687466
  3. Neese,F.
     The ORCA program system
     WIRES Comput. Molec. Sci., 2012 2(1)73-78
     doi.org/10.1002/wcms.81
  4. Izsak,R.; Neese,F.; Klopper,W.
     Robust fitting techniques in the chain of spheres approximation to the Fock exchange: The role of the complementary space
     J. Chem. Phys., 2013 139 
     doi.org/10.1063/1.4819264
  5. Neese,F.
     Software update: the ORCA program system, version 4.0
     WIRES Comput. Molec. Sci., 2018 8(1)1-6
     doi.org/10.1002/wcms.1327
  6. Neese,F.; Wennmohs,F.; Becker,U.; Riplinger,C.
     The ORCA quantum chemistry program package
     J. Chem. Phys., 2020 152 Art. No. L224108
     doi.org/10.1063/5.0004608

List of optional additional citations

  1. Neese,F.
     Approximate second-order SCF convergence for spin unrestricted wavefunctions
     Chem. Phys. Lett., 2000 325(1-3)93-98
     doi.org/10.1016/s0009-2614(00)00662-x

Timings for individual modules:

Sum of individual times          ...      694.825 sec (=  11.580 min)
Startup calculation              ...       46.813 sec (=   0.780 min)   6.7 %
SCF iterations                   ...      487.068 sec (=   8.118 min)  70.1 %
Property integrals               ...       29.196 sec (=   0.487 min)   4.2 %
SCF Response                     ...       23.159 sec (=   0.386 min)   3.3 %
Property calculations            ...       36.474 sec (=   0.608 min)   5.2 %
SCF Gradient evaluation          ...       71.931 sec (=   1.199 min)  10.4 %
Geometry relaxation              ...        0.184 sec (=   0.003 min)   0.0 %
                             ****ORCA TERMINATED NORMALLY****
TOTAL RUN TIME: 0 days 0 hours 11 minutes 42 seconds 153 msec
