
                                 *****************
                                 * O   R   C   A *
                                 *****************

                                            #,                                       
                                            ###                                      
                                            ####                                     
                                            #####                                    
                                            ######                                   
                                           ########,                                 
                                     ,,################,,,,,                         
                               ,,#################################,,                 
                          ,,##########################################,,             
                       ,#########################################, ''#####,          
                    ,#############################################,,   '####,        
                  ,##################################################,,,,####,       
                ,###########''''           ''''###############################       
              ,#####''   ,,,,##########,,,,          '''####'''          '####       
            ,##' ,,,,###########################,,,                        '##       
           ' ,,###''''                  '''############,,,                           
         ,,##''                                '''############,,,,        ,,,,,,###''
      ,#''                                            '''#######################'''  
     '                                                          ''''####''''         
             ,#######,   #######,   ,#######,      ##                                
            ,#'     '#,  ##    ##  ,#'     '#,    #''#        ,####,   ,####,        
            ##       ##  ##   ,#'  ##            #'  '#       #'       #'  '#        
            ##       ##  #######   ##           ,######,      #####,   #    #        
            '#,     ,#'  ##    ##  '#,     ,#' ,#      #,     #,   #   #,  ,#        
             '#######'   ##     ##  '#######'  #'      '#     '####' # '####'        



                #########################################################
                #                        -***-                          #
                #          Department of theory and spectroscopy        #
                #                                                       #
                #                      Frank Neese                      #
                #                                                       #
                #     Directorship, Architecture, Infrastructure        #
                #                    SHARK, DRIVERS                     #
                #        Core code/Algorithms in most modules           #
                #                                                       #
                #        Max Planck Institute fuer Kohlenforschung      #
                #                Kaiser Wilhelm Platz 1                 #
                #                 D-45470 Muelheim/Ruhr                 #
                #                      Germany                          #
                #                                                       #
                #                  All rights reserved                  #
                #                        -***-                          #
                #########################################################


                         Program Version 6.0.1  -  RELEASE   -


 With contributions from (in alphabetic order):
[Max-Planck-Institut fuer Kohlenforschung]                               
  Daniel Aravena         : Magnetic Suceptibility                        
  Michael Atanasov       : Ab Initio Ligand Field Theory (pilot matlab implementation)
  Alexander A. Auer      : GIAO ZORA, VPT2 properties, NMR spectrum      
  Ute Becker             : All parallelization in ORCA, NUMFREQ, NUMCALC 
  Giovanni Bistoni       : ED, misc. LED, open-shell LED, HFLD           
  Martin Brehm           : Molecular dynamics                            
  Dmytro Bykov           : pre 5.0 version of the SCF Hessian            
  Marcos Casanova-Páez   : Triplet and SCS-CIS(D). UHF-(DLPNO)-IP/EA/STEOM-CCSD. UHF-CVS-IP/STEOM-CCSD   
  Vijay G. Chilkuri      : MRCI spin determinant printing, contributions to CSF-ICE 
  Pauline Colinet        : FMM embedding                                 
  Dipayan Datta          : RHF DLPNO-CCSD density                        
  Achintya Kumar Dutta   : EOM-CC, STEOM-CC                              
  Nicolas Foglia         : Exact transition moments, OPA infrastructure, MCD improvements    
  Dmitry Ganyushin       : Spin-Orbit,Spin-Spin,Magnetic field MRCI      
  Miquel Garcia-Rates    : C-PCM and meta-GGA Hessian, CCSD/C-PCM, Gaussian charge scheme 
  Tiago L. C. Gouveia    : GS-ROHF, GS-ROCIS                             
  Yang Guo               : DLPNO-NEVPT2, F12-NEVPT2, CIM, IAO-localization        
  Andreas Hansen         : Spin unrestricted coupled pair/coupled cluster methods 
  Ingolf Harden          : AUTO-CI MPn and infrastructure                
  Benjamin Helmich-Paris : MC-RPA, TRAH-(SCF,CASSCF), AVAS, COSX integrals, SCF dyn. polar. 
  Lee Huntington         : MR-EOM, pCC                                   
  Robert Izsak           : Overlap fitted RIJCOSX, COSX-SCS-MP3, EOM     
  Riya Kayal             : Wick's Theorem for AUTO-CI, AUTO-CI UHF-CCSDT 
  Emily Kempfer          : AUTO-CI, RHF CISDT and CCSDT                  
  Christian Kollmar      : KDIIS, OOCD, Brueckner-CCSD(T), CCSD density, CASPT2, CASPT2-K, improved NEVPT2 
  Axel Koslowski         : Symmetry handling                             
  Simone Kossmann        : meta-GGA functionals, TD-DFT gradient, OOMP2, (MP2 Hessian; deprecated post 5.0) 
  Lucas Lang             : DCDCAS                                        
  Marvin Lechner         : AUTO-CI (C++ implementation), FIC-MRCC        
  Spencer Leger          : CASSCF response                               
  Dagmar Lenk            : GEPOL surface, SMD, ORCA-2-JSON               
  Dimitrios Liakos       : Extrapolation schemes; Compound Job, initial MDCI parallelization 
  Dimitrios Manganas     : Further ROCIS development; embedding schemes. LFT, Crystal Embedding 
  Dimitrios Pantazis     : SARC Basis sets                               
  Anastasios Papadopoulos: AUTO-CI, single reference methods and gradients 
  Taras Petrenko         : pre 6.0 DFT Hessian and TD-DFT gradient, (ASA, deprecated), ECA, 1-Electron XAS/XES, NRVS 
  Peter Pinski           : DLPNO-MP2, DLPNO-MP2 Gradient                 
  Christoph Reimann      : Effective Core Potentials                     
  Marius Retegan         : Local ZFS, SOC                                
  Christoph Riplinger    : Optimizer, TS searches, QM/MM, DLPNO-CCSD(T), (RO)-DLPNO pert. Triples 
  Michael Roemelt        : Original ROCIS implementation                 
  Masaaki Saitow         : Open-shell DLPNO-CCSD energy and density      
  Barbara Sandhoefer     : DKH picture change effects                    
  Kantharuban Sivalingam : CASSCF convergence/infrastructure, NEVPT2 and variants, FIC-MRCI 
  Bernardo de Souza      : ESD, SOC TD-DFT                               
  Georgi L. Stoychev     : AutoAux, RI-MP2 NMR, DLPNO-MP2 response, X2C  
  Van Anh Tran           : RI-MP2 g-tensors                              
  Willem Van den Heuvel  : Paramagnetic NMR                              
  Zikuan Wang            : NOTCH, Electric field optimization            
  Frank Wennmohs         : Technical directorship and infrastructure     
  Hang Xu                : AUTO-CI-Response properties                   
                                                                         
[FACCTs GmbH]                                                            
  Markus Bursch, Miquel Garcia-Rates, Christoph Riplinger, Bernardo de Souza, Georgi L. Stoychev 
                                                                 
  APM, Basis sets (HGBS, AHGBS, def-TZVP (Ac-Lr), def2-XVPD (La-Lu)), CI-OPT, improved COSX, DLPNO-Multilevel,           
  DOCKER, DRACO, updates on ESD, GOAT, IRC, LR-CPCM, MBIS, meta-GGA TD-DFT gradient, ML-optimized integration grids, 
  MM, NACMEs, nearIR, NEB, NEB-TS, NL-DFT gradient (VV10), 2- and 3-layer-ONIOM, interface openCOSMO-RS, QMMM,   
  Crystal-QMMM, SF, symmetry and pop. for TD-DFT, r2SCAN hybrids, SOLVATOR                                   
                                                                         
[Other institutions]                                                     
  V. Asgeirsson          : NEB                                           
  Christoph Bannwarth    : sTDA-DFT, sTD-DFT, PBEh-3c, B97-3c, D3        
  Sebastian Ehlert       : rSCAN, r2SCAN, r2SCAN-3c, D4, dhf basis sets  
  Marvin Friede          : D4 for Fr, Ra, Ac-Lr                          
  Lars Goerigk           : TD-DFT with DH, B97 family of functionals     
  Stefan Grimme          : VdW corrections, initial TS optimization, DFT functionals, gCP, sTDA/sTD-DF 
  Waldemar Hujo          : DFT-NL                                        
  H. Jonsson             : NEB                                           
  Holger Kruse           : gCP                                           
  Marcel Mueller         : wB97X-3c, vDZP basis set                      
  Hagen Neugebauer       : wr2SCAN                                       
  Tobias Risthaus        : range-separated hybrid DFT                    
  Lukas Wittmann         : regularized MP2, r2SCAN double-hybrids, wr2SCAN        
                                                                         
We gratefully acknowledge several colleagues who have allowed us to      
interface, adapt or use parts of their codes:                            
  Ed Valeev, F. Pavosevic, A. Kumar             : LibInt (2-el integral package), F12 methods 
  Garnet Chan, S. Sharma, J. Yang, R. Olivares  : DMRG                   
  Ulf Ekstrom                                   : XCFun DFT Library      
  Mihaly Kallay                                 : mrcc  (arbitrary order and MRCC methods)
  Frank Weinhold                                : gennbo (NPA and NBO analysis)           
  Simon Mueller                                 : openCOSMO-RS                            
  Christopher J. Cramer and Donald G. Truhlar   : smd solvation model                     
  S Lehtola, MJT Oliveira, MAL Marques          : LibXC Library                           
  Liviu Ungur et al                             : ANISO software                          


 Your calculation uses the libint2 library for the computation of 2-el integrals
 For citations please refer to: http://libint.valeyev.net

 Your ORCA version has been built with support for libXC version: 6.2.2
 For citations please refer to: https://libxc.gitlab.io

 This ORCA versions uses:
   CBLAS   interface :  Fast vector & matrix operations
   LAPACKE interface :  Fast linear algebra routines
   SCALAPACK package :  Parallel linear algebra routines
   Shared memory     :  Shared parallel matrices
   BLAS/LAPACK       :  OpenBLAS 0.3.27  USE64BITINT DYNAMIC_ARCH NO_AFFINITY SkylakeX SINGLE_THREADED
        Core in use  :  SkylakeX
   Copyright (c) 2011-2014, The OpenBLAS Project


Your calculation utilizes the atom-pairwise dispersion correction
based on EEQ partial charges (D4)


================================================================================

cite the ECPs for C  [vDZP-ECP], O  [vDZP-ECP] as follows:
   B-Ne (ecp-2-mwb), Al-Ar (ecp-10-mwb), Ga-Kr (ecp-28-mwb), Y-Cd (ecp-28-mwb), In-Xe (ecp-46-mwb):
     A. Bergner, M. Dolg, W. Küchle, H. Stoll, and H. Preuß, Mol. Phys. 80, 1431 (1993)., T. Leininger, A. Berning, A. Nicklass, H. Stoll, H.-J. Werner, and H.-J.Flad, Chem. Phys. 217, 19 (1997).
   Na-Mg, K-Ca, Rb-Sr, Cs-Ba (CRENBL):
     L. Fernandez Pacios and P. A. Christiansen, J. Chem. Phys. 82, 2664 (1985)., M. M. Hurley, L. F. Pacios, P. A. Christiansen, R. B. Ross, and W. C. Ermler, J. Chem. Phys. 84, 6840 (1986)., L. A. LaJohn, P. A. Christiansen, R. B. Ross, T. Atashroo, and W. C. Ermler, J. Chem. Phys. 87, 2812 (1987)., R. B. Ross, J. M. Powers, T. Atashroo, W. C. Ermler, L. A. LaJohn, and P. A. Christiansen, J. Chem. Phys. 93, 6654 (1990). 
   Sc-Zn (ecp-10-mdf):
     M. Dolg, U. Wedig, H. Stoll, and H. Preuss, J. Chem. Phys. 86, 866 (1986). 
   Y-Cd (ecp-28-mwb), Hf-Hg (ecp-60-mwb):
     D. Andrae, U. Häußermann, M. Dolg, H. Stoll, and H. Preuß, Theor. Chim. Acta 77, 123 (1990). 
   La (ecp-46-mwb):
     M. Dolg, H. Stoll, and H. Preuss, J. Chem. Phys. 90, 1730 (1989)., M. Dolg, H. Stoll, and H. Preuss, Theor. Chim. Acta 85, 441 (1993).
   Ce-Lu (SBKJC-ecp):
     T. R. Cundari and W. J. Stevens, J. Chem. Phys. 98, 5555 (1993).
   Tl-Rn (ecp-78-mwb):
     W. Küchle, M. Dolg, H. Stoll, and H. Preuss, Mol. Phys. 74, 1245 (1991).

ECP parameters for C  [vDZP-ECP], O  [vDZP-ECP] have been obtained from:
MM, AH, SG, J. Chem. Phys. 158, 014103 (2023), 10.1063/5.0133026

----- Orbital basis set information -----
Your calculation utilizes the basis: vDZP
   Marcel Mueller, Andreas Hansen, Stefan Grimme 
   J. Chem. Phys. 158, 014103 (2023). DOI: 10.1063/5.0133026

----- AuxJ basis set information -----
Your calculation utilizes the auxiliary basis: def2/J
   F. Weigend, Phys. Chem. Chem. Phys. 8, 1057 (2006).

================================================================================
                                        WARNINGS
                       Please study these warnings very carefully!
================================================================================

WARNING: Frozen-Core approximation turned on, but there are no core electrons.
  ===> : Turning off frozen-core approximation


WARNING: Geometry Optimization
  ===> : Switching off AutoStart
         For restart on a previous wavefunction, please use MOREAD

================================================================================
                                       INPUT FILE
================================================================================
NAME = ./output/_e_verbenol/_e_verbenol.inp
|  1> ! wB97X-3c OPT FREQ TightSCF
|  2> %pal
|  3>   nprocs 40
|  4> end
|  5> * xyz 0 1
|  6> C     -2.045884    -1.847903     1.095046
|  7> C     -1.304403    -0.739842     0.410209
|  8> C     -1.676298     0.565432     0.563319
|  9> C     -0.867931     1.661228    -0.160670
| 10> C      0.307671     1.004336    -0.973796
| 11> C     -0.339422    -0.157688    -1.756413
| 12> C     -0.097824    -1.015303    -0.499631
| 13> C      1.058789    -0.055997    -0.117619
| 14> C      2.406844    -0.473104    -0.759160
| 15> C      1.308107     0.227709     1.390335
| 16> O     -0.377661     2.586826     0.771057
| 17> H     -2.002350    -1.702787     2.194904
| 18> H     -1.595466    -2.831827     0.847998
| 19> H     -3.106369    -1.848337     0.766484
| 20> H     -2.525985     0.835044     1.183394
| 21> H     -1.553867     2.181488    -0.867657
| 22> H      0.932363     1.697023    -1.578478
| 23> H     -1.404875    -0.017668    -2.054531
| 24> H      0.267698    -0.485807    -2.627601
| 25> H      0.167397    -2.079554    -0.680022
| 26> H      2.330330    -0.681098    -1.845218
| 27> H      3.154652     0.337644    -0.626440
| 28> H      2.791614    -1.392542    -0.268548
| 29> H      0.407171     0.453235     1.988103
| 30> H      1.781845    -0.659466     1.861696
| 31> H      2.001717     1.088757     1.494859
| 32> H     -0.017866     3.350202     0.248382
| 33> *
| 34> 
| 35>                          ****END OF INPUT****
================================================================================

                       *****************************
                       * Geometry Optimization Run *
                       *****************************

Geometry optimization settings:
Update method            Update   .... BFGS
Choice of coordinates    CoordSys .... (2022) Redundant Internals
Initial Hessian          InHess   .... Almloef's Model
Max. no of cycles        MaxIter  .... 81

Convergence Tolerances:
Energy Change            TolE     ....  5.0000e-06 Eh
Max. Gradient            TolMAXG  ....  3.0000e-04 Eh/bohr
RMS Gradient             TolRMSG  ....  1.0000e-04 Eh/bohr
Max. Displacement        TolMAXD  ....  4.0000e-03 bohr
RMS Displacement         TolRMSD  ....  2.0000e-03 bohr
Strict Convergence                .... False

------------------------------------------------------------------------------
                        ORCA OPTIMIZATION COORDINATE SETUP
------------------------------------------------------------------------------

The optimization will be done in redundant internal coordinates (2022)
Making redundant internal coordinates   ...  (2022 redundants) done
Evaluating the initial hessian          ...  (Almloef) done
Evaluating the coordinates              ...  done
Calculating the B-matrix                .... done
Calculating the G-matrix                .... done
Diagonalizing the G-matrix              .... done
The first mode is                       ....   72
The number of degrees of freedom        ....   75

    -----------------------------------------------------------------
                    Redundant Internal Coordinates


    -----------------------------------------------------------------
         Definition                    Initial Value    Approx d2E/dq
    -----------------------------------------------------------------
      1. B(C   1,C   0)                  1.4989         0.418844   
      2. B(C   2,C   1)                  1.3658         0.682813   
      3. B(C   3,C   2)                  1.5422         0.357199   
      4. B(C   4,C   3)                  1.5731         0.318842   
      5. B(C   5,C   4)                  1.5432         0.355869   
      6. B(C   6,C   1)                  1.5361         0.365332   
      7. B(C   6,C   5)                  1.5406         0.359339   
      8. B(C   7,C   6)                  1.5505         0.346513   
      9. B(C   7,C   4)                  1.5561         0.339389   
     10. B(C   8,C   7)                  1.5501         0.346986   
     11. B(C   9,C   7)                  1.5545         0.341378   
     12. B(O  10,C   3)                  1.4019         0.535739   
     13. B(H  11,C   0)                  1.1102         0.334291   
     14. B(H  12,C   0)                  1.1100         0.334638   
     15. B(H  13,C   0)                  1.1102         0.334325   
     16. B(H  14,C   2)                  1.0859         0.365582   
     17. B(H  15,C   3)                  1.1140         0.329703   
     18. B(H  16,C   4)                  1.1116         0.332608   
     19. B(H  17,C   5)                  1.1152         0.328261   
     20. B(H  18,C   5)                  1.1114         0.332866   
     21. B(H  19,C   6)                  1.1115         0.332708   
     22. B(H  20,C   8)                  1.1084         0.336515   
     23. B(H  21,C   8)                  1.1109         0.333462   
     24. B(H  22,C   8)                  1.1109         0.333478   
     25. B(H  23,C   9)                  1.1045         0.341446   
     26. B(H  24,C   9)                  1.1107         0.333713   
     27. B(H  25,C   9)                  1.1106         0.333859   
     28. B(H  26,O  10)                  0.9927         0.461160   
     29. A(H  12,C   0,H  13)          108.7478         0.284208   
     30. A(C   1,C   0,H  11)          109.6702         0.326460   
     31. A(C   1,C   0,H  12)          110.6637         0.326515   
     32. A(H  11,C   0,H  13)          109.3101         0.284162   
     33. A(H  11,C   0,H  12)          108.6898         0.284203   
     34. A(C   1,C   0,H  13)          109.7311         0.326465   
     35. A(C   2,C   1,C   6)          116.8499         0.401894   
     36. A(C   0,C   1,C   2)          121.3707         0.411726   
     37. A(C   0,C   1,C   6)          121.7788         0.369129   
     38. A(C   1,C   2,H  14)          120.9540         0.359661   
     39. A(C   1,C   2,C   3)          118.9267         0.400304   
     40. A(C   3,C   2,H  14)          120.1193         0.322741   
     41. A(C   4,C   3,H  15)          109.0942         0.311544   
     42. A(C   2,C   3,H  15)          107.8795         0.317340   
     43. A(C   2,C   3,C   4)          109.7345         0.351016   
     44. A(C   2,C   3,O  10)          109.9040         0.381248   
     45. A(C   4,C   3,O  10)          110.9710         0.373830   
     46. A(O  10,C   3,H  15)          109.1952         0.337221   
     47. A(C   3,C   4,C   5)          105.2601         0.350795   
     48. A(C   3,C   4,C   7)          111.1526         0.348001   
     49. A(C   7,C   4,H  16)          116.9129         0.315160   
     50. A(C   5,C   4,C   7)           88.1857         0.354522   
     51. A(C   5,C   4,H  16)          115.4035         0.317601   
     52. A(C   3,C   4,H  16)          116.1629         0.311986   
     53. A(C   4,C   5,C   6)           86.5433         0.357977   
     54. A(H  17,C   5,H  18)          110.4518         0.283167   
     55. A(C   6,C   5,H  18)          112.9201         0.318143   
     56. A(C   4,C   5,H  18)          113.0024         0.317641   
     57. A(C   6,C   5,H  17)          115.9637         0.317422   
     58. A(C   4,C   5,H  17)          116.2083         0.316921   
     59. A(C   5,C   6,C   7)           88.4845         0.356360   
     60. A(C   1,C   6,C   7)          109.2123         0.357363   
     61. A(C   7,C   6,H  19)          117.0256         0.316242   
     62. A(C   5,C   6,H  19)          115.9781         0.318119   
     63. A(C   1,C   6,H  19)          117.0811         0.318978   
     64. A(C   1,C   6,C   5)          105.0814         0.359580   
     65. A(C   6,C   7,C   8)          112.3513         0.354252   
     66. A(C   4,C   7,C   8)          112.0498         0.353007   
     67. A(C   4,C   7,C   6)           85.7539         0.352926   
     68. A(C   8,C   7,C   9)          108.1256         0.353357   
     69. A(C   6,C   7,C   9)          118.1356         0.353275   
     70. A(C   4,C   7,C   9)          119.1285         0.352036   
     71. A(H  21,C   8,H  22)          108.5485         0.283940   
     72. A(H  20,C   8,H  22)          107.5368         0.284343   
     73. A(C   7,C   8,H  22)          109.9463         0.316431   
     74. A(H  20,C   8,H  21)          107.4856         0.284341   
     75. A(C   7,C   8,H  21)          109.8514         0.316428   
     76. A(C   7,C   8,H  20)          113.3268         0.316898   
     77. A(H  24,C   9,H  25)          108.2371         0.284024   
     78. A(H  23,C   9,H  25)          107.4693         0.285038   
     79. A(C   7,C   9,H  25)          109.4482         0.315652   
     80. A(H  23,C   9,H  24)          106.3396         0.285018   
     81. A(C   7,C   9,H  24)          109.5296         0.315630   
     82. A(C   7,C   9,H  23)          115.5593         0.316808   
     83. A(C   3,O  10,H  26)          106.5325         0.353686   
     84. D(C   2,C   1,C   0,H  12)    179.9763         0.012974   
     85. D(C   6,C   1,C   0,H  11)    120.1574         0.012974   
     86. D(C   6,C   1,C   0,H  12)      0.2556         0.012974   
     87. D(C   2,C   1,C   0,H  13)     59.9634         0.012974   
     88. D(C   2,C   1,C   0,H  11)    -60.1219         0.012974   
     89. D(C   3,C   2,C   1,C   6)     -0.6396         0.032703   
     90. D(C   3,C   2,C   1,C   0)    179.6265         0.032703   
     91. D(H  14,C   2,C   1,C   6)    179.3827         0.032703   
     92. D(H  14,C   2,C   1,C   0)     -0.3512         0.032703   
     93. D(H  15,C   3,C   2,C   1)    118.2550         0.009607   
     94. D(O  10,C   3,C   2,C   1)   -122.7834         0.009607   
     95. D(C   4,C   3,C   2,H  14)    179.4890         0.009607   
     96. D(O  10,C   3,C   2,H  14)     57.1946         0.009607   
     97. D(C   4,C   3,C   2,C   1)     -0.4890         0.009607   
     98. D(C   5,C   4,C   3,C   2)     48.1702         0.008340   
     99. D(C   7,C   4,C   3,H  15)   -163.8569         0.008340   
    100. D(C   7,C   4,C   3,O  10)     75.7923         0.008340   
    101. D(C   7,C   4,C   3,C   2)    -45.8651         0.008340   
    102. D(C   5,C   4,C   3,H  15)    -69.8216         0.008340   
    103. D(C   5,C   4,C   3,O  10)    169.8277         0.008340   
    104. D(H  17,C   5,C   4,H  16)    -98.7858         0.010177   
    105. D(H  17,C   5,C   4,C   7)    142.1169         0.010177   
    106. D(H  17,C   5,C   4,C   3)     30.6732         0.010177   
    107. D(C   6,C   5,C   4,C   7)     24.7864         0.010177   
    108. D(C   6,C   5,C   4,C   3)    -86.6573         0.010177   
    109. D(C   6,C   5,C   4,H  16)    143.8836         0.010177   
    110. D(C   7,C   6,C   1,C   2)     47.9385         0.010013   
    111. D(C   7,C   6,C   1,C   0)   -132.3288         0.010013   
    112. D(C   5,C   6,C   1,C   2)    -45.7825         0.010013   
    113. D(H  19,C   6,C   1,C   0)      3.6120         0.010013   
    114. D(C   5,C   6,C   1,C   0)    133.9502         0.010013   
    115. D(C   7,C   6,C   5,H  18)     88.6680         0.010362   
    116. D(C   7,C   6,C   5,H  17)   -142.4400         0.010362   
    117. D(C   7,C   6,C   5,C   4)    -24.8789         0.010362   
    118. D(C   1,C   6,C   5,H  18)   -161.8326         0.010362   
    119. D(C   1,C   6,C   5,H  17)    -32.9406         0.010362   
    120. D(C   1,C   6,C   5,C   4)     84.6206         0.010362   
    121. D(C   8,C   7,C   6,H  19)     31.1471         0.009690   
    122. D(C   8,C   7,C   6,C   5)    -87.4338         0.009690   
    123. D(C   4,C   7,C   6,H  19)    143.2640         0.009690   
    124. D(C   4,C   7,C   6,C   5)     24.6831         0.009690   
    125. D(C   4,C   7,C   6,C   1)    -80.7678         0.009690   
    126. D(C   8,C   7,C   4,H  16)    -29.9514         0.009329   
    127. D(C   8,C   7,C   4,C   5)     87.7754         0.009329   
    128. D(C   8,C   7,C   4,C   3)   -166.5543         0.009329   
    129. D(C   8,C   7,C   6,C   1)    167.1153         0.009690   
    130. D(C   6,C   7,C   4,H  16)   -142.3688         0.009329   
    131. D(C   6,C   7,C   4,C   5)    -24.6420         0.009329   
    132. D(C   6,C   7,C   4,C   3)     81.0283         0.009329   
    133. D(H  21,C   8,C   7,C   6)    169.0204         0.009714   
    134. D(H  21,C   8,C   7,C   4)     74.4221         0.009714   
    135. D(H  20,C   8,C   7,C   9)   -179.0652         0.009714   
    136. D(H  20,C   8,C   7,C   6)     48.7838         0.009714   
    137. D(H  21,C   8,C   7,C   9)    -58.8287         0.009714   
    138. D(H  20,C   8,C   7,C   4)    -45.8145         0.009714   
    139. D(H  24,C   9,C   7,C   8)    -54.9640         0.009429   
    140. D(H  24,C   9,C   7,C   6)     73.9983         0.009429   
    141. D(H  24,C   9,C   7,C   4)    175.6446         0.009429   
    142. D(H  23,C   9,C   7,C   8)   -174.9982         0.009429   
    143. D(H  23,C   9,C   7,C   6)    -46.0359         0.009429   
    144. D(H  23,C   9,C   7,C   4)     55.6103         0.009429   
    145. D(H  26,O  10,C   3,C   4)     68.7977         0.022815   
    146. D(H  26,O  10,C   3,C   2)   -169.6441         0.022815   
    147. D(H  26,O  10,C   3,H  15)    -51.4931         0.022815   
    -----------------------------------------------------------------

Number of atoms                         .... 27
Number of degrees of freedom            .... 147


         *************************************************************
         *                GEOMETRY OPTIMIZATION CYCLE   1            *
         *************************************************************
---------------------------------
CARTESIAN COORDINATES (ANGSTROEM)
---------------------------------
  C     -2.045884   -1.847903    1.095046
  C     -1.304403   -0.739842    0.410209
  C     -1.676298    0.565432    0.563319
  C     -0.867931    1.661228   -0.160670
  C      0.307671    1.004336   -0.973796
  C     -0.339422   -0.157688   -1.756413
  C     -0.097824   -1.015303   -0.499631
  C      1.058789   -0.055997   -0.117619
  C      2.406844   -0.473104   -0.759160
  C      1.308107    0.227709    1.390335
  O     -0.377661    2.586826    0.771057
  H     -2.002350   -1.702787    2.194904
  H     -1.595466   -2.831827    0.847998
  H     -3.106369   -1.848337    0.766484
  H     -2.525985    0.835044    1.183394
  H     -1.553867    2.181488   -0.867657
  H      0.932363    1.697023   -1.578478
  H     -1.404875   -0.017668   -2.054531
  H      0.267698   -0.485807   -2.627601
  H      0.167397   -2.079554   -0.680022
  H      2.330330   -0.681098   -1.845218
  H      3.154652    0.337644   -0.626440
  H      2.791614   -1.392542   -0.268548
  H      0.407171    0.453235    1.988103
  H      1.781845   -0.659466    1.861696
  H      2.001717    1.088757    1.494859
  H     -0.017866    3.350202    0.248382

----------------------------
CARTESIAN COORDINATES (A.U.)
----------------------------
  NO LB      ZA    FRAG     MASS         X           Y           Z
   0 C     4.0000*   0    12.011   -3.866160   -3.492031    2.069337
   1 C     4.0000*   0    12.011   -2.464964   -1.398099    0.775183
   2 C     4.0000*   0    12.011   -3.167744    1.068512    1.064519
   3 C     4.0000*   0    12.011   -1.640152    3.139266   -0.303622
   4 C     4.0000*   0    12.011    0.581414    1.897920   -1.840208
   5 C     4.0000*   0    12.011   -0.641415   -0.297987   -3.319140
   6 C     4.0000*   0    12.011   -0.184861   -1.918645   -0.944166
   7 C     4.0000*   0    12.011    2.000821   -0.105819   -0.222268
   8 C     4.0000*   0    12.011    4.548276   -0.894037   -1.434604
   9 C     4.0000*   0    12.011    2.471964    0.430308    2.627352
  10 O     6.0000*   0    15.999   -0.713676    4.888393    1.457087
  11 H     1.0000    0     1.008   -3.783893   -3.217801    4.147767
  12 H     1.0000    0     1.008   -3.014994   -5.351377    1.602484
  13 H     1.0000    0     1.008   -5.870187   -3.492851    1.448445
  14 H     1.0000    0     1.008   -4.773420    1.578004    2.236291
  15 H     1.0000    0     1.008   -2.936383    4.122415   -1.639634
  16 H     1.0000    0     1.008    1.761911    3.206909   -2.982891
  17 H     1.0000    0     1.008   -2.654829   -0.033388   -3.882501
  18 H     1.0000    0     1.008    0.505876   -0.918042   -4.965446
  19 H     1.0000    0     1.008    0.316334   -3.929788   -1.285055
  20 H     1.0000    0     1.008    4.403686   -1.287089   -3.486957
  21 H     1.0000    0     1.008    5.961428    0.638055   -1.183800
  22 H     1.0000    0     1.008    5.275386   -2.631523   -0.507482
  23 H     1.0000    0     1.008    0.769442    0.856490    3.756970
  24 H     1.0000    0     1.008    3.367199   -1.246210    3.518096
  25 H     1.0000    0     1.008    3.782697    2.057453    2.824874
  26 H     1.0000    0     1.008   -0.033762    6.330964    0.469374
* core charge reduced due to ECP

--------------------------------
INTERNAL COORDINATES (ANGSTROEM)
--------------------------------
 C      0   0   0     0.000000000000     0.00000000     0.00000000
 C      1   0   0     1.498864560142     0.00000000     0.00000000
 C      2   1   0     1.365828971065   121.37074521     0.00000000
 C      3   2   1     1.542201722352   118.92666952   179.62652252
 C      4   3   2     1.573124614881   109.73446958   359.51104483
 C      5   4   3     1.543216930932   105.26010371    48.17022123
 C      2   1   3     1.536073068367   121.77877594   180.27927978
 C      7   2   1     1.550469219801   109.21232436   227.67121882
 C      8   7   2     1.550098508855   112.35131043   167.11529271
 C      8   7   2     1.554533314431   118.13564730    40.15046371
 O      4   3   2     1.401860026191   109.90396524   237.21663511
 H      1   2   3     1.110243884368   109.67017789   299.87811670
 H      1   2   3     1.109961948359   110.66369859   179.97627535
 H      1   2   3     1.110216920888   109.73111130    59.96337661
 H      3   2   1     1.085887486869   120.95402965   359.64877619
 H      4   3   2     1.114005961324   107.87954141   118.25497839
 H      5   4   3     1.111618502885   116.16289139   177.17998581
 H      6   5   4     1.115199550544   116.20829326    30.67317769
 H      6   5   4     1.111406902941   113.00240393   159.87596246
 H      7   2   1     1.111536451369   117.08110681     3.61199542
 H      9   8   7     1.108439387425   113.32683351    48.78378791
 H      9   8   7     1.110920214402   109.85140845   169.02036821
 H      9   8   7     1.110906982284   109.94631418   288.41418501
 H     10   8   7     1.104479168928   115.55932869   313.96407993
 H     10   8   7     1.110715249553   109.52956160    73.99828793
 H     10   8   7     1.110596126853   109.44816978   192.51344042
 H     11   4   3     0.992665359034   106.53247133   190.35587961

---------------------------
INTERNAL COORDINATES (A.U.)
---------------------------
 C      0   0   0     0.000000000000     0.00000000     0.00000000
 C      1   0   0     2.832443530510     0.00000000     0.00000000
 C      2   1   0     2.581042701089   121.37074521     0.00000000
 C      3   2   1     2.914338898507   118.92666952   179.62652252
 C      4   3   2     2.972774696655   109.73446958   359.51104483
 C      5   4   3     2.916257364691   105.26010371    48.17022123
 C      2   1   3     2.902757420905   121.77877594   180.27927978
 C      7   2   1     2.929962204498   109.21232436   227.67121882
 C      8   7   2     2.929261662336   112.35131043   167.11529271
 C      8   7   2     2.937642230332   118.13564730    40.15046371
 O      4   3   2     2.649131527593   109.90396524   237.21663511
 H      1   2   3     2.098056883316   109.67017789   299.87811670
 H      1   2   3     2.097524101471   110.66369859   179.97627535
 H      1   2   3     2.098005929723   109.73111130    59.96337661
 H      3   2   1     2.052029962434   120.95402965   359.64877619
 H      4   3   2     2.105166178458   107.87954141   118.25497839
 H      5   4   3     2.100654535853   116.16289139   177.17998581
 H      6   5   4     2.107421735200   116.20829326    30.67317769
 H      6   5   4     2.100254669908   113.00240393   159.87596246
 H      7   2   1     2.100499480959   117.08110681     3.61199542
 H      9   8   7     2.094646878285   113.32683351    48.78378791
 H      9   8   7     2.099334961858   109.85140845   169.02036821
 H      9   8   7     2.099309956778   109.94631418   288.41418501
 H     10   8   7     2.087163149895   115.55932869   313.96407993
 H     10   8   7     2.098947634426   109.52956160    73.99828793
 H     10   8   7     2.098722525145   109.44816978   192.51344042
 H     11   4   3     1.875865671205   106.53247133   190.35587961

---------------------
BASIS SET INFORMATION
---------------------
There are 3 groups of distinct atoms

 Group   1 Type C   : 6s6p2d contracted to 2s2p1d pattern {42/42/2}
 Group   2 Type O   : 6s6p2d contracted to 2s2p1d pattern {42/42/2}
 Group   3 Type H   : 8s2p contracted to 2s1p pattern {53/2}

Atom   0C    basis set group =>   1
Atom   1C    basis set group =>   1
Atom   2C    basis set group =>   1
Atom   3C    basis set group =>   1
Atom   4C    basis set group =>   1
Atom   5C    basis set group =>   1
Atom   6C    basis set group =>   1
Atom   7C    basis set group =>   1
Atom   8C    basis set group =>   1
Atom   9C    basis set group =>   1
Atom  10O    basis set group =>   2
Atom  11H    basis set group =>   3
Atom  12H    basis set group =>   3
Atom  13H    basis set group =>   3
Atom  14H    basis set group =>   3
Atom  15H    basis set group =>   3
Atom  16H    basis set group =>   3
Atom  17H    basis set group =>   3
Atom  18H    basis set group =>   3
Atom  19H    basis set group =>   3
Atom  20H    basis set group =>   3
Atom  21H    basis set group =>   3
Atom  22H    basis set group =>   3
Atom  23H    basis set group =>   3
Atom  24H    basis set group =>   3
Atom  25H    basis set group =>   3
Atom  26H    basis set group =>   3
---------------------------------
AUXILIARY/J BASIS SET INFORMATION
---------------------------------
There are 3 groups of distinct atoms

 Group   1 Type C   : 12s5p4d2f1g contracted to 6s4p3d1f1g pattern {711111/2111/211/2/1}
 Group   2 Type O   : 12s5p4d2f1g contracted to 6s4p3d1f1g pattern {711111/2111/211/2/1}
 Group   3 Type H   : 5s2p1d contracted to 3s1p1d pattern {311/2/1}

Atom   0C    basis set group =>   1
Atom   1C    basis set group =>   1
Atom   2C    basis set group =>   1
Atom   3C    basis set group =>   1
Atom   4C    basis set group =>   1
Atom   5C    basis set group =>   1
Atom   6C    basis set group =>   1
Atom   7C    basis set group =>   1
Atom   8C    basis set group =>   1
Atom   9C    basis set group =>   1
Atom  10O    basis set group =>   2
Atom  11H    basis set group =>   3
Atom  12H    basis set group =>   3
Atom  13H    basis set group =>   3
Atom  14H    basis set group =>   3
Atom  15H    basis set group =>   3
Atom  16H    basis set group =>   3
Atom  17H    basis set group =>   3
Atom  18H    basis set group =>   3
Atom  19H    basis set group =>   3
Atom  20H    basis set group =>   3
Atom  21H    basis set group =>   3
Atom  22H    basis set group =>   3
Atom  23H    basis set group =>   3
Atom  24H    basis set group =>   3
Atom  25H    basis set group =>   3
Atom  26H    basis set group =>   3
-------------------------
ECP PARAMETER INFORMATION
-------------------------

 Group 1, Type C  ECP vDZP-ECP (replacing 2 core electrons, lmax=3)
 Group 2, Type O  ECP vDZP-ECP (replacing 2 core electrons, lmax=3)

Atom   0C    ECP group =>   1
Atom   1C    ECP group =>   1
Atom   2C    ECP group =>   1
Atom   3C    ECP group =>   1
Atom   4C    ECP group =>   1
Atom   5C    ECP group =>   1
Atom   6C    ECP group =>   1
Atom   7C    ECP group =>   1
Atom   8C    ECP group =>   1
Atom   9C    ECP group =>   1
Atom  10O    ECP group =>   2



           ************************************************************
           *        Program running with 40 parallel MPI-processes    *
           *              working on a common directory               *
           ************************************************************
------------------------------------------------------------------------------
                             ORCA STARTUP CALCULATIONS
                           -- RI-GTO INTEGRALS CHOSEN --
------------------------------------------------------------------------------
------------------------------------------------------------------------------
                   ___                                                        
                  /   \      - P O W E R E D   B Y -                         
                 /     \                                                     
                 |  |  |   _    _      __       _____    __    __             
                 |  |  |  | |  | |    /  \     |  _  \  |  |  /  |          
                  \  \/   | |  | |   /    \    | | | |  |  | /  /          
                 / \  \   | |__| |  /  /\  \   | |_| |  |  |/  /          
                |  |  |   |  __  | /  /__\  \  |    /   |      \           
                |  |  |   | |  | | |   __   |  |    \   |  |\   \          
                \     /   | |  | | |  |  |  |  | |\  \  |  | \   \       
                 \___/    |_|  |_| |__|  |__|  |_| \__\ |__|  \__/        
                                                                              
                      - O R C A' S   B I G   F R I E N D -                    
                                      &                                       
                       - I N T E G R A L  F E E D E R -                       
                                                                              
 v1 FN, 2020, v2 2021, v3 2022-2024                                           
------------------------------------------------------------------------------


----------------------
SHARK INTEGRAL PACKAGE
----------------------

Number of atoms                             ...     27
Number of basis functions                   ...    223
Number of shells                            ...    103
Maximum angular momentum                    ...      2
Integral batch strategy                     ... SHARK/LIBINT Hybrid
RI-J (if used) integral strategy            ... SPLIT-RIJ (Revised 2003 algorithm where possible)
Printlevel                                  ...      1
Contraction scheme used                     ... SEGMENTED contraction
Prescreening option                         ... SCHWARTZ
   Thresh                                   ... 2.500e-11
   Tcut                                     ... 2.500e-12
   Tpresel                                  ... 2.500e-12 
Coulomb Range Separation                    ... NOT USED
Exchange Range Separation                   ... Long Range
   Mu parameter                             ... 3.000e-01
   Scaling (regular/separated)              ... 1.670e-01 8.330e-01
Multipole approximations                    ... NOT USED
Finite Nucleus Model                        ... NOT USED
CABS basis                                  ... NOT available
Auxiliary Coulomb fitting basis             ... AVAILABLE
   # of basis functions in Aux-J            ...    715
   # of shells in Aux-J                     ...    245
   Maximum angular momentum in Aux-J        ...      4
Auxiliary J/K fitting basis                 ... NOT available
Auxiliary Correlation fitting basis         ... NOT available
Auxiliary 'external' fitting basis          ... NOT available

Checking pre-screening integrals            ... done (  0.0 sec) Dimension = 103
Check shell pair data                       ... done (  0.0 sec)
Shell pair information
Shell pair cut-off parameter TPreSel        ...   2.5e-12
Total number of shell pairs                 ...      5356
Shell pairs after pre-screening             ...      5356
Total number of primitive shell pairs       ...     49844
Primitive shell pairs kept                  ...     41747
          la=0 lb=0:   1485 shell pairs
          la=1 lb=0:   2052 shell pairs
          la=1 lb=1:    741 shell pairs
          la=2 lb=0:    594 shell pairs
          la=2 lb=1:    418 shell pairs
          la=2 lb=2:     66 shell pairs

Calculating one electron integrals          ... done (  0.0 sec)
Calculating ECP integrals                   ... done (  0.1 sec)
Calculating RI/J V-Matrix + Cholesky decomp.... done (  0.0 sec)
Calculating Nuclear repulsion               ... done (  0.0 sec) ENN=    359.800204290384 Eh

Diagonalization of the overlap matrix:
Smallest eigenvalue                        ... 1.019e-03
Time for diagonalization                   ...    0.007 sec
Threshold for overlap eigenvalues          ... 1.000e-07
Number of eigenvalues below threshold      ... 0
Time for construction of square roots      ...    0.004 sec
Total time needed                          ...    0.015 sec

-------------------
DFT GRID GENERATION
-------------------

General Integration Accuracy     IntAcc      ... 4.388
Radial Grid Type                 RadialGrid  ... OptM3 with GC (2021)
Angular Grid (max. ang.)         AngularGrid ... 4 (Lebedev-302)
Angular grid pruning method      GridPruning ... 4 (adaptive)
Weight generation scheme         WeightScheme... mBecke (2022)
Basis function cutoff            BFCut       ... 1.0000e-11
Integration weight cutoff        WCut        ... 1.0000e-14
Partially contracted basis set               ... off
Rotationally invariant grid construction     ... off
Angular grids for H and He will be reduced by one unit

Total number of grid points                  ...   116362
Total number of batches                      ...     1834
Average number of points per batch           ...       63
Average number of grid points per atom       ...     4310

--------------------
COSX GRID GENERATION
--------------------

GRIDX 1
-------
General Integration Accuracy     IntAcc      ... 3.816
Radial Grid Type                 RadialGrid  ... OptM3 with GC (2021)
Angular Grid (max. ang.)         AngularGrid ... 1 (Lebedev-50)
Angular grid pruning method      GridPruning ... 4 (adaptive)
Weight generation scheme         WeightScheme... mBecke (2022)
Basis function cutoff            BFCut       ... 1.0000e-11
Integration weight cutoff        WCut        ... 1.0000e-14
Partially contracted basis set               ... on
Rotationally invariant grid construction     ... off
Angular grids for H and He will be reduced by one unit

Total number of grid points                  ...    14875
Total number of batches                      ...      134
Average number of points per batch           ...      111
Average number of grid points per atom       ...      551
UseSFitting                                  ... on

GRIDX 2
-------
General Integration Accuracy     IntAcc      ... 4.020
Radial Grid Type                 RadialGrid  ... OptM3 with GC (2021)
Angular Grid (max. ang.)         AngularGrid ... 2 (Lebedev-110)
Angular grid pruning method      GridPruning ... 4 (adaptive)
Weight generation scheme         WeightScheme... mBecke (2022)
Basis function cutoff            BFCut       ... 1.0000e-11
Integration weight cutoff        WCut        ... 1.0000e-14
Partially contracted basis set               ... on
Rotationally invariant grid construction     ... off
Angular grids for H and He will be reduced by one unit

Total number of grid points                  ...    31082
Total number of batches                      ...      255
Average number of points per batch           ...      121
Average number of grid points per atom       ...     1151
UseSFitting                                  ... on

GRIDX 3
-------
General Integration Accuracy     IntAcc      ... 4.338
Radial Grid Type                 RadialGrid  ... OptM3 with GC (2021)
Angular Grid (max. ang.)         AngularGrid ... 3 (Lebedev-194)
Angular grid pruning method      GridPruning ... 4 (adaptive)
Weight generation scheme         WeightScheme... mBecke (2022)
Basis function cutoff            BFCut       ... 1.0000e-11
Integration weight cutoff        WCut        ... 1.0000e-14
Partially contracted basis set               ... on
Rotationally invariant grid construction     ... off
Angular grids for H and He will be reduced by one unit

Total number of grid points                  ...    67729
Total number of batches                      ...      543
Average number of points per batch           ...      124
Average number of grid points per atom       ...     2508
UseSFitting                                  ... on
Initializing property integral containers    ... done (  0.0 sec)

SHARK setup successfully completed in   3.6 seconds

Maximum memory used throughout the entire STARTUP-calculation: 34.5 MB


           ************************************************************
           *        Program running with 40 parallel MPI-processes    *
           *              working on a common directory               *
           ************************************************************
-------------------------------------------------------------------------------
                                 ORCA GUESS
                   Start orbitals & Density for SCF / CASSCF
-------------------------------------------------------------------------------

------------
SCF SETTINGS
------------
Hamiltonian:
 Density Functional     Method          .... DFT(GTOs)
 Exchange Functional    Exchange        .... WB97X-V
 Correlation Functional Correlation     .... WB97X-V
 Gradients option       PostSCFGGA      .... off
 Hybrid DFT is turned on
   Fraction HF Exchange ScalHFX         ....  0.167000
   Scaling of DF-GGA-X  ScalDFX         ....  0.000000
   Scaling of DF-GGA-C  ScalDFC         ....  1.000000
   Scaling of DF-LDA-C  ScalLDAC        ....  1.000000
   Perturbative correction              ....  0.000000
 Long-range corrected/Screened/Range-Separated Hybrid DFT is turned on
   Amount of maximum screened exact exchange              ....  0.833000
   Range separation parameter mu (erf(mu*r12)/r12)        ....  0.300000
   NL short-range parameter             ....  6.000000
   NL long-range parameter              ....  0.010000
 RI-approximation to the Coulomb term is turned on
   Number of AuxJ basis functions       .... 715
   RIJ-COSX (HFX calculated with COS-X)).... on


General Settings:
 Integral files         IntName         .... ./output/_e_verbenol/_e_verbenol
 Hartree-Fock type      HFTyp           .... RHF
 Total Charge           Charge          ....    0
 Multiplicity           Mult            ....    1
 Number of Electrons    NEL             ....   62
 Basis Dimension        Dim             ....  223
 Nuclear Repulsion      ENuc            ....    359.8002042904 Eh

Convergence Acceleration:
 AO-DIIS                CNVDIIS         .... on
   Start iteration      DIISMaxIt       ....    12
   Startup error        DIISStart       ....  0.200000
   # of expansion vecs  DIISMaxEq       ....     5
   Bias factor          DIISBfac        ....   1.050
   Max. coefficient     DIISMaxC        ....  10.000
 MO-DIIS                CNVKDIIS        .... off
 Trust-Rad. Augm. Hess. CNVTRAH         .... auto
   Auto Start mean grad. ratio tolernc. ....  1.125000
   Auto Start start iteration           ....    50
   Auto Start num. interpolation iter.  ....    10
   Max. Number of Micro iterations      ....    24
   Max. Number of Macro iterations      .... Maxiter - #DIIS iter
   Number of Davidson start vectors     ....     2
   Converg. threshold    (grad. norm)   ....   1.000e-05
   Grad. Scal. Fac. for Micro threshold ....   0.100
   Minimum threshold for Micro iter.    ....   1.000e-02
   NR start threshold (gradient norm)   ....   1.000e-04
   Initial trust radius                 ....   0.400
   Minimum AH scaling param. (alpha)    ....   1.000
   Maximum AH scaling param. (alpha)    .... 1000.000
   Quad. conv. algorithm                .... NR
   White noise on init. David. guess    .... on
   Maximum white noise                  ....   0.010
   Pseudo random numbers                .... off
   Inactive MOs                         .... canonical
   Orbital update algorithm             .... Taylor
   Preconditioner                       .... Diag
   Full preconditioner red. dimension   ....   250
 SOSCF                  CNVSOSCF        .... on
   Start iteration      SOSCFMaxIt      ....   150
   Startup grad/error   SOSCFStart      ....  0.003300
   Hessian update       SOSCFHessUp     .... L-BFGS
 Level Shifting         CNVShift        .... on
   Level shift para.    LevelShift      ....    0.2500
   Turn off err/grad.   ShiftErr        ....    0.0010
 Zerner damping         CNVZerner       .... off
 Static damping         CNVDamp         .... on
   Fraction old density DampFac         ....    0.7000
   Max. Damping (<1)    DampMax         ....    0.9800
   Min. Damping (>=0)   DampMin         ....    0.0000
   Turn off err/grad.   DampErr         ....    0.1000

SCF Procedure:
 Maximum # iterations   MaxIter         ....   125
 SCF integral mode      SCFMode         .... Direct
   Integral package                     .... SHARK and LIBINT hybrid scheme
 Reset frequency        DirectResetFreq ....    20
 Integral Threshold     Thresh          ....  2.500e-11 Eh
 Primitive CutOff       TCut            ....  2.500e-12 Eh

Convergence Tolerance:
 Convergence Check Mode ConvCheckMode   .... Total+1el-Energy
 Convergence forced     ConvForced      .... 0
 Energy Change          TolE            ....  1.000e-08 Eh
 1-El. energy change                    ....  1.000e-05 Eh
 Orbital Gradient       TolG            ....  1.000e-05
 Orbital Rotation angle TolX            ....  1.000e-05
 DIIS Error             TolErr          ....  5.000e-07

------------------------------
INITIAL GUESS: MODEL POTENTIAL
------------------------------
Loading Hartree-Fock densities                     ... done
Atomic calculation to generate a density for atom 0 (C  with ECP)
  Multiplicity assumed   :    1
  Atomic configuration   : 1s2 2s2 2p2 
  Number of open shells  : 1
  Command: /home/aspe232/Project/Software/ORCA/6_0_1/build/orca ./output/_e_verbenol/_e_verbenol_atom6.inp "" > ./output/_e_verbenol/_e_verbenol_atom6.out
Returned from the atomic calculation with res=0
Atomic calculation to generate a density for atom 10 (O  with ECP)
  Multiplicity assumed   :    3
  Atomic configuration   : 1s2 2s2 2p4 
  Number of open shells  : 1
  Command: /home/aspe232/Project/Software/ORCA/6_0_1/build/orca ./output/_e_verbenol/_e_verbenol_atom8.inp "" > ./output/_e_verbenol/_e_verbenol_atom8.out
Returned from the atomic calculation with res=0
Calculating cut-offs                               ... done
Initializing the effective Hamiltonian             ... done
Setting up the integral package (SHARK)            ... done
Starting the Coulomb interaction                   ... done (   0.1 sec)
Making the grid                                    ... done (   0.9 sec)
Mapping shells                                     ... done
Starting the XC term evaluation                    ... done (   0.0 sec)
  promolecular density results
     # of electrons  =     83.997320815
     EX              =    -42.638706637
     EC              =     -3.402819048
     EX+EC           =    -46.041525685
Transforming the Hamiltonian                       ... done (   0.0 sec)
Diagonalizing the Hamiltonian                      ... done (   0.0 sec)
Back transforming the eigenvectors                 ... done (   0.0 sec)
Now organizing SCF variables                       ... done
                      ------------------
                      INITIAL GUESS DONE (   2.1 sec)
                      ------------------
             **** ENERGY FILE WAS UPDATED (./output/_e_verbenol/_e_verbenol.en.tmp) ****
Finished Guess after   2.7 sec
Maximum memory used throughout the entire GUESS-calculation: 21.7 MB


           ************************************************************
           *        Program running with 40 parallel MPI-processes    *
           *              working on a common directory               *
           ************************************************************

-------------------------------------------------------------------------------------------
                                      ORCA LEAN-SCF
                              memory conserving SCF solver
-------------------------------------------------------------------------------------------

----------------------------------------D-I-I-S--------------------------------------------
Iteration    Energy (Eh)           Delta-E    RMSDP     MaxDP     DIISErr   Damp  Time(sec)
-------------------------------------------------------------------------------------------
               ***  Starting incremental Fock matrix formation  ***
    1    -82.1236835897739184     0.00e+00  3.95e-03  7.56e-02  1.91e-01  0.700   4.6
    2    -82.3180100534916619    -1.94e-01  2.87e-03  5.44e-02  1.10e-01  0.700   3.7
                               ***Turning on AO-DIIS***
    3    -82.4153833894724812    -9.74e-02  1.49e-03  2.95e-02  5.86e-02  0.700   3.6
    4    -82.4727127399700635    -5.73e-02  3.23e-03  6.05e-02  3.61e-02  0.000   3.8
    5    -82.5940436737790264    -1.21e-01  2.72e-04  4.95e-03  5.29e-03  0.000   3.5
                              *** Initializing SOSCF ***
---------------------------------------S-O-S-C-F--------------------------------------
Iteration    Energy (Eh)           Delta-E    RMSDP     MaxDP     MaxGrad    Time(sec)
--------------------------------------------------------------------------------------
    6    -82.5944065086432033    -3.63e-04  1.27e-04  2.49e-03  2.08e-03     3.4
               *** Restarting incremental Fock matrix formation ***
    7    -82.5944458755505480    -3.94e-05  7.34e-05  1.41e-03  3.57e-04     5.1
    8    -82.5944553720011641    -9.50e-06  4.28e-05  8.66e-04  1.64e-04     4.2
    9    -82.5944573154145587    -1.94e-06  1.39e-05  2.61e-04  5.21e-05     4.1
   10    -82.5944576133620671    -2.98e-07  3.08e-06  5.03e-05  1.35e-05     4.1
   11    -82.5944576167713080    -3.41e-09  1.09e-06  1.98e-05  6.09e-06     3.9
                 **** Energy Check signals convergence ****

               *****************************************************
               *                     SUCCESS                       *
               *           SCF CONVERGED AFTER  11 CYCLES          *
               *****************************************************

Recomputing exchange energy using gridx3       ... done (    4.339 sec)
Old exchange energy                            :    -11.916358539 Eh
New exchange energy                            :    -11.916334224 Eh
Exchange energy change after final integration :      0.000024315 Eh
Total energy after final integration           :    -82.594433301 Eh
             **** ENERGY FILE WAS UPDATED (./output/_e_verbenol/_e_verbenol.en.tmp) ****

----------------
TOTAL SCF ENERGY
----------------

Total Energy       :        -82.59443330133772 Eh           -2247.50879 eV

Components:
Nuclear Repulsion  :        359.80020429038404 Eh            9790.66131 eV
Electronic Energy  :       -442.39466190715535 Eh          -12038.17076 eV
One Electron Energy:       -838.59859326095534 Eh          -22819.42784 eV
Two Electron Energy:        396.20393135379999 Eh           10781.25708 eV

Virial components:
Potential Energy   :       -146.97531556267148 Eh           -3999.40166 eV
Kinetic Energy     :         64.38088226133377 Eh            1751.89287 eV
Virial Ratio       :          2.28290309794252

DFT components:
N(Alpha)           :       31.000129711761 electrons
N(Beta)            :       31.000129711761 electrons
N(Total)           :       62.000259423522 electrons
E(X)               :      -12.645011502495 Eh       
E(C)               :       -2.349302966904 Eh       
E(XC)              :      -14.994314469399 Eh       

---------------
SCF CONVERGENCE
---------------

  Last Energy change         ...    3.4092e-09  Tolerance :   1.0000e-08
  Last MAX-Density change    ...    1.9754e-05  Tolerance :   1.0000e-07
  Last RMS-Density change    ...    1.0906e-06  Tolerance :   5.0000e-09
  Last DIIS Error            ...    2.0757e-03  Tolerance :   5.0000e-07
  Last Orbital Gradient      ...    6.0927e-06  Tolerance :   1.0000e-05
  Last Orbital Rotation      ...    1.7367e-05  Tolerance :   1.0000e-05


----------------
ORBITAL ENERGIES
----------------

  NO   OCC          E(Eh)            E(eV) 
   0   2.0000      -1.146063       -31.1860 
   1   2.0000      -1.023257       -27.8443 
   2   2.0000      -0.922297       -25.0970 
   3   2.0000      -0.876589       -23.8532 
   4   2.0000      -0.851683       -23.1755 
   5   2.0000      -0.807885       -21.9837 
   6   2.0000      -0.798615       -21.7314 
   7   2.0000      -0.736472       -20.0404 
   8   2.0000      -0.723261       -19.6809 
   9   2.0000      -0.678794       -18.4709 
  10   2.0000      -0.624033       -16.9808 
  11   2.0000      -0.614487       -16.7210 
  12   2.0000      -0.590027       -16.0554 
  13   2.0000      -0.561370       -15.2757 
  14   2.0000      -0.550608       -14.9828 
  15   2.0000      -0.539501       -14.6806 
  16   2.0000      -0.528217       -14.3735 
  17   2.0000      -0.518794       -14.1171 
  18   2.0000      -0.509931       -13.8759 
  19   2.0000      -0.499613       -13.5952 
  20   2.0000      -0.495451       -13.4819 
  21   2.0000      -0.482662       -13.1339 
  22   2.0000      -0.473900       -12.8955 
  23   2.0000      -0.454348       -12.3634 
  24   2.0000      -0.440169       -11.9776 
  25   2.0000      -0.427127       -11.6227 
  26   2.0000      -0.422497       -11.4967 
  27   2.0000      -0.396772       -10.7967 
  28   2.0000      -0.382857       -10.4181 
  29   2.0000      -0.368648       -10.0314 
  30   2.0000      -0.321874        -8.7586 
  31   0.0000       0.067542         1.8379 
  32   0.0000       0.087928         2.3926 
  33   0.0000       0.094540         2.5726 
  34   0.0000       0.099790         2.7154 
  35   0.0000       0.103048         2.8041 
  36   0.0000       0.120492         3.2788 
  37   0.0000       0.129500         3.5239 
  38   0.0000       0.136907         3.7254 
  39   0.0000       0.140449         3.8218 
  40   0.0000       0.147300         4.0082 
  41   0.0000       0.154887         4.2147 
*Only the first 10 virtual orbitals were printed.

                    ********************************
                    * MULLIKEN POPULATION ANALYSIS *
                    ********************************

-----------------------
MULLIKEN ATOMIC CHARGES
-----------------------
   0 C :   -0.076439
   1 C :   -0.079500
   2 C :    0.005840
   3 C :    0.010713
   4 C :   -0.030203
   5 C :   -0.043171
   6 C :   -0.019687
   7 C :   -0.157808
   8 C :   -0.050841
   9 C :   -0.019345
  10 O :   -0.300115
  11 H :    0.054019
  12 H :    0.037400
  13 H :    0.054980
  14 H :    0.025289
  15 H :    0.039564
  16 H :    0.036755
  17 H :    0.050337
  18 H :    0.034136
  19 H :    0.040077
  20 H :    0.023577
  21 H :    0.039150
  22 H :    0.038079
  23 H :    0.055409
  24 H :    0.026114
  25 H :    0.034304
  26 H :    0.171366
Sum of atomic charges:    0.0000000

--------------------------------
MULLIKEN REDUCED ORBITAL CHARGES
--------------------------------
  0 C s       :     0.954867  s :     0.954867
      pz      :     1.023806  p :     3.048922
      px      :     1.025417
      py      :     0.999698
      dz2     :     0.021445  d :     0.072651
      dxz     :     0.007141
      dyz     :     0.010748
      dx2y2   :     0.019218
      dxy     :     0.014099

  1 C s       :     1.099417  s :     1.099417
      pz      :     0.946981  p :     2.860996
      px      :     0.941815
      py      :     0.972200
      dz2     :     0.017220  d :     0.119087
      dxz     :     0.013975
      dyz     :     0.028541
      dx2y2   :     0.028752
      dxy     :     0.030599

  2 C s       :     1.026719  s :     1.026719
      pz      :     1.000755  p :     2.885539
      px      :     0.973628
      py      :     0.911156
      dz2     :     0.005412  d :     0.081902
      dxz     :     0.011777
      dyz     :     0.022570
      dx2y2   :     0.019819
      dxy     :     0.022326

  3 C s       :     1.067010  s :     1.067010
      pz      :     0.891038  p :     2.747945
      px      :     0.960653
      py      :     0.896254
      dz2     :     0.024908  d :     0.174332
      dxz     :     0.042391
      dyz     :     0.042889
      dx2y2   :     0.026706
      dxy     :     0.037438

  4 C s       :     1.054349  s :     1.054349
      pz      :     0.959446  p :     2.861483
      px      :     0.956397
      py      :     0.945640
      dz2     :     0.013511  d :     0.114370
      dxz     :     0.024671
      dyz     :     0.028360
      dx2y2   :     0.017516
      dxy     :     0.030312

  5 C s       :     1.015672  s :     1.015672
      pz      :     0.950320  p :     2.929282
      px      :     1.031861
      py      :     0.947101
      dz2     :     0.016768  d :     0.098217
      dxz     :     0.025564
      dyz     :     0.022301
      dx2y2   :     0.020630
      dxy     :     0.012954

  6 C s       :     1.035110  s :     1.035110
      pz      :     0.950560  p :     2.866264
      px      :     0.930970
      py      :     0.984734
      dz2     :     0.024608  d :     0.118312
      dxz     :     0.023507
      dyz     :     0.018865
      dx2y2   :     0.031292
      dxy     :     0.020040

  7 C s       :     1.105513  s :     1.105513
      pz      :     0.993410  p :     2.906526
      px      :     0.933543
      py      :     0.979573
      dz2     :     0.033589  d :     0.145769
      dxz     :     0.031936
      dyz     :     0.026731
      dx2y2   :     0.021358
      dxy     :     0.032156

  8 C s       :     0.956915  s :     0.956915
      pz      :     1.016453  p :     3.020273
      px      :     0.968299
      py      :     1.035522
      dz2     :     0.022397  d :     0.073652
      dxz     :     0.009352
      dyz     :     0.008906
      dx2y2   :     0.010315
      dxy     :     0.022682

  9 C s       :     0.942165  s :     0.942165
      pz      :     0.946997  p :     3.005950
      px      :     1.039191
      py      :     1.019762
      dz2     :     0.016443  d :     0.071230
      dxz     :     0.017634
      dyz     :     0.013653
      dx2y2   :     0.006484
      dxy     :     0.017016

 10 O s       :     1.649348  s :     1.649348
      pz      :     1.523047  p :     4.618822
      px      :     1.755500
      py      :     1.340275
      dz2     :     0.005591  d :     0.031946
      dxz     :     0.006329
      dyz     :     0.013700
      dx2y2   :     0.002734
      dxy     :     0.003591

 11 H s       :     0.901650  s :     0.901650
      pz      :     0.023884  p :     0.044331
      px      :     0.010255
      py      :     0.010192

 12 H s       :     0.918509  s :     0.918509
      pz      :     0.010860  p :     0.044092
      px      :     0.012137
      py      :     0.021095

 13 H s       :     0.900591  s :     0.900591
      pz      :     0.011495  p :     0.044429
      px      :     0.022831
      py      :     0.010103

 14 H s       :     0.925995  s :     0.925995
      pz      :     0.017668  p :     0.048716
      px      :     0.020398
      py      :     0.010651

 15 H s       :     0.921894  s :     0.921894
      pz      :     0.013700  p :     0.038542
      px      :     0.014673
      py      :     0.010169

 16 H s       :     0.922148  s :     0.922148
      pz      :     0.013920  p :     0.041097
      px      :     0.013030
      py      :     0.014147

 17 H s       :     0.906554  s :     0.906554
      pz      :     0.009321  p :     0.043109
      px      :     0.023419
      py      :     0.010368

 18 H s       :     0.921792  s :     0.921792
      pz      :     0.017862  p :     0.044072
      px      :     0.014204
      py      :     0.012007

 19 H s       :     0.918314  s :     0.918314
      pz      :     0.009960  p :     0.041609
      px      :     0.009617
      py      :     0.022032

 20 H s       :     0.931760  s :     0.931760
      pz      :     0.023258  p :     0.044663
      px      :     0.010557
      py      :     0.010848

 21 H s       :     0.917854  s :     0.917854
      pz      :     0.010217  p :     0.042996
      px      :     0.016073
      py      :     0.016706

 22 H s       :     0.918933  s :     0.918933
      pz      :     0.012505  p :     0.042988
      px      :     0.011272
      py      :     0.019210

 23 H s       :     0.897252  s :     0.897252
      pz      :     0.014138  p :     0.047338
      px      :     0.022154
      py      :     0.011047

 24 H s       :     0.930342  s :     0.930342
      pz      :     0.012375  p :     0.043543
      px      :     0.013092
      py      :     0.018076

 25 H s       :     0.922672  s :     0.922672
      pz      :     0.009540  p :     0.043024
      px      :     0.015152
      py      :     0.018332

 26 H s       :     0.731191  s :     0.731191
      pz      :     0.028900  p :     0.097443
      px      :     0.033924
      py      :     0.034620



                     *******************************
                     * LOEWDIN POPULATION ANALYSIS *
                     *******************************

----------------------
LOEWDIN ATOMIC CHARGES
----------------------
   0 C :   -0.118048
   1 C :   -0.019434
   2 C :   -0.037106
   3 C :   -0.048344
   4 C :   -0.037675
   5 C :   -0.062236
   6 C :   -0.041642
   7 C :   -0.053022
   8 C :   -0.109748
   9 C :   -0.110336
  10 O :   -0.081080
  11 H :    0.056583
  12 H :    0.050961
  13 H :    0.056907
  14 H :    0.032850
  15 H :    0.042017
  16 H :    0.032814
  17 H :    0.042277
  18 H :    0.037716
  19 H :    0.038893
  20 H :    0.043112
  21 H :    0.048427
  22 H :    0.047816
  23 H :    0.044185
  24 H :    0.040612
  25 H :    0.046214
  26 H :    0.057284

-------------------------------
LOEWDIN REDUCED ORBITAL CHARGES
-------------------------------
  0 C s       :     0.777385  s :     0.777385
      pz      :     1.046620  p :     3.104149
      px      :     1.044268
      py      :     1.013261
      dz2     :     0.072138  d :     0.236514
      dxz     :     0.023250
      dyz     :     0.031746
      dx2y2   :     0.066243
      dxy     :     0.043137

  1 C s       :     0.801334  s :     0.801334
      pz      :     0.890713  p :     2.845544
      px      :     0.921999
      py      :     1.032832
      dz2     :     0.056716  d :     0.372556
      dxz     :     0.045131
      dyz     :     0.082158
      dx2y2   :     0.094758
      dxy     :     0.093794

  2 C s       :     0.813558  s :     0.813558
      pz      :     0.959669  p :     2.952317
      px      :     0.987809
      py      :     1.004839
      dz2     :     0.020625  d :     0.271231
      dxz     :     0.038052
      dyz     :     0.067665
      dx2y2   :     0.071081
      dxy     :     0.073808

  3 C s       :     0.757544  s :     0.757544
      pz      :     0.925478  p :     2.792506
      px      :     0.968908
      py      :     0.898120
      dz2     :     0.069970  d :     0.498293
      dxz     :     0.123048
      dyz     :     0.126523
      dx2y2   :     0.073522
      dxy     :     0.105230

  4 C s       :     0.770918  s :     0.770918
      pz      :     0.965381  p :     2.904038
      px      :     0.968228
      py      :     0.970429
      dz2     :     0.046952  d :     0.362719
      dxz     :     0.074322
      dyz     :     0.087165
      dx2y2   :     0.058293
      dxy     :     0.095986

  5 C s       :     0.768792  s :     0.768792
      pz      :     0.984595  p :     2.974692
      px      :     1.042211
      py      :     0.947886
      dz2     :     0.058433  d :     0.318752
      dxz     :     0.086847
      dyz     :     0.068518
      dx2y2   :     0.065928
      dxy     :     0.039026

  6 C s       :     0.759910  s :     0.759910
      pz      :     0.948690  p :     2.910604
      px      :     0.951048
      py      :     1.010866
      dz2     :     0.077145  d :     0.371128
      dxz     :     0.073488
      dyz     :     0.055201
      dx2y2   :     0.103817
      dxy     :     0.061477

  7 C s       :     0.756842  s :     0.756842
      pz      :     0.961131  p :     2.858336
      px      :     0.941719
      py      :     0.955486
      dz2     :     0.098470  d :     0.437845
      dxz     :     0.097838
      dyz     :     0.077714
      dx2y2   :     0.068920
      dxy     :     0.094902

  8 C s       :     0.779195  s :     0.779195
      pz      :     1.047613  p :     3.089904
      px      :     0.983667
      py      :     1.058625
      dz2     :     0.072857  d :     0.240649
      dxz     :     0.031682
      dyz     :     0.028747
      dx2y2   :     0.033140
      dxy     :     0.074222

  9 C s       :     0.779252  s :     0.779252
      pz      :     0.969786  p :     3.094476
      px      :     1.064631
      py      :     1.060059
      dz2     :     0.053916  d :     0.236609
      dxz     :     0.060442
      dyz     :     0.047103
      dx2y2   :     0.021177
      dxy     :     0.053970

 10 O s       :     1.386096  s :     1.386096
      pz      :     1.560193  p :     4.615738
      px      :     1.669855
      py      :     1.385690
      dz2     :     0.011797  d :     0.079245
      dxz     :     0.013183
      dyz     :     0.030791
      dx2y2   :     0.010622
      dxy     :     0.012853

 11 H s       :     0.796639  s :     0.796639
      pz      :     0.066695  p :     0.146778
      px      :     0.040532
      py      :     0.039551

 12 H s       :     0.804438  s :     0.804438
      pz      :     0.041103  p :     0.144601
      px      :     0.043518
      py      :     0.059980

 13 H s       :     0.796385  s :     0.796385
      pz      :     0.042356  p :     0.146707
      px      :     0.065040
      py      :     0.039312

 14 H s       :     0.811048  s :     0.811048
      pz      :     0.057172  p :     0.156102
      px      :     0.063460
      py      :     0.035470

 15 H s       :     0.816096  s :     0.816096
      pz      :     0.048471  p :     0.141887
      px      :     0.052886
      py      :     0.040530

 16 H s       :     0.819048  s :     0.819048
      pz      :     0.049146  p :     0.148138
      px      :     0.047765
      py      :     0.051226

 17 H s       :     0.812448  s :     0.812448
      pz      :     0.037729  p :     0.145275
      px      :     0.067968
      py      :     0.039579

 18 H s       :     0.813033  s :     0.813033
      pz      :     0.054657  p :     0.149251
      px      :     0.050749
      py      :     0.043845

 19 H s       :     0.816064  s :     0.816064
      pz      :     0.039421  p :     0.145043
      px      :     0.036870
      py      :     0.068751

 20 H s       :     0.808000  s :     0.808000
      pz      :     0.066734  p :     0.148888
      px      :     0.040062
      py      :     0.042091

 21 H s       :     0.805986  s :     0.805986
      pz      :     0.040412  p :     0.145587
      px      :     0.051938
      py      :     0.053237

 22 H s       :     0.806699  s :     0.806699
      pz      :     0.045004  p :     0.145485
      px      :     0.042341
      py      :     0.058139

 23 H s       :     0.797295  s :     0.797295
      pz      :     0.045921  p :     0.158521
      px      :     0.069233
      py      :     0.043366

 24 H s       :     0.810973  s :     0.810973
      pz      :     0.043615  p :     0.148415
      px      :     0.048354
      py      :     0.056446

 25 H s       :     0.807012  s :     0.807012
      pz      :     0.038722  p :     0.146773
      px      :     0.052134
      py      :     0.055918

 26 H s       :     0.636705  s :     0.636705
      pz      :     0.102275  p :     0.306011
      px      :     0.098498
      py      :     0.105238



                      *****************************
                      * MAYER POPULATION ANALYSIS *
                      *****************************

  NA   - Mulliken gross atomic population
  ZA   - Total nuclear charge
  QA   - Mulliken gross atomic charge
  VA   - Mayer's total valence
  BVA  - Mayer's bonded valence
  FA   - Mayer's free valence

  ATOM       NA         ZA         QA         VA         BVA        FA
  0 C      4.0764     4.0000    -0.0764     3.9677     3.9677    -0.0000
  1 C      4.0795     4.0000    -0.0795     4.0615     4.0615    -0.0000
  2 C      3.9942     4.0000     0.0058     3.9355     3.9355    -0.0000
  3 C      3.9893     4.0000     0.0107     4.0867     4.0867    -0.0000
  4 C      4.0302     4.0000    -0.0302     3.8995     3.8995     0.0000
  5 C      4.0432     4.0000    -0.0432     3.9418     3.9418     0.0000
  6 C      4.0197     4.0000    -0.0197     3.9255     3.9255    -0.0000
  7 C      4.1578     4.0000    -0.1578     4.0474     4.0474    -0.0000
  8 C      4.0508     4.0000    -0.0508     3.9756     3.9756     0.0000
  9 C      4.0193     4.0000    -0.0193     3.9422     3.9422     0.0000
 10 O      6.3001     6.0000    -0.3001     1.9940     1.9940     0.0000
 11 H      0.9460     1.0000     0.0540     1.0246     1.0246     0.0000
 12 H      0.9626     1.0000     0.0374     1.0309     1.0309     0.0000
 13 H      0.9450     1.0000     0.0550     1.0252     1.0252    -0.0000
 14 H      0.9747     1.0000     0.0253     1.0436     1.0436    -0.0000
 15 H      0.9604     1.0000     0.0396     1.0143     1.0143    -0.0000
 16 H      0.9632     1.0000     0.0368     1.0228     1.0228     0.0000
 17 H      0.9497     1.0000     0.0503     1.0218     1.0218    -0.0000
 18 H      0.9659     1.0000     0.0341     1.0290     1.0290    -0.0000
 19 H      0.9599     1.0000     0.0401     1.0179     1.0179    -0.0000
 20 H      0.9764     1.0000     0.0236     1.0312     1.0312    -0.0000
 21 H      0.9608     1.0000     0.0392     1.0249     1.0249     0.0000
 22 H      0.9619     1.0000     0.0381     1.0260     1.0260     0.0000
 23 H      0.9446     1.0000     0.0554     1.0225     1.0225    -0.0000
 24 H      0.9739     1.0000     0.0261     1.0249     1.0249     0.0000
 25 H      0.9657     1.0000     0.0343     1.0297     1.0297     0.0000
 26 H      0.8286     1.0000     0.1714     1.0761     1.0761    -0.0000

  Mayer bond orders larger than 0.100000
B(  0-C ,  1-C ) :   1.0226 B(  0-C , 11-H ) :   0.9818 B(  0-C , 12-H ) :   0.9931 
B(  0-C , 13-H ) :   0.9827 B(  1-C ,  2-C ) :   1.9020 B(  1-C ,  6-C ) :   1.0204 
B(  2-C ,  3-C ) :   1.0259 B(  2-C , 14-H ) :   0.9884 B(  3-C ,  4-C ) :   0.9978 
B(  3-C , 10-O ) :   0.9774 B(  3-C , 15-H ) :   1.0017 B(  4-C ,  5-C ) :   0.9811 
B(  4-C ,  7-C ) :   0.9515 B(  4-C , 16-H ) :   1.0000 B(  5-C ,  6-C ) :   0.9684 
B(  5-C , 17-H ) :   1.0028 B(  5-C , 18-H ) :   1.0035 B(  6-C ,  7-C ) :   0.9472 
B(  6-C , 19-H ) :   0.9992 B(  7-C ,  8-C ) :   1.0244 B(  7-C ,  9-C ) :   1.0199 
B(  8-C , 20-H ) :   0.9939 B(  8-C , 21-H ) :   0.9933 B(  8-C , 22-H ) :   0.9941 
B(  9-C , 23-H ) :   0.9870 B(  9-C , 24-H ) :   0.9889 B(  9-C , 25-H ) :   0.9889 
B( 10-O , 26-H ) :   1.0426 

-------
TIMINGS
-------

Total SCF time: 0 days 0 hours 0 min 53 sec 

Total time                  ....      53.448 sec
Sum of individual times     ....      51.135 sec  ( 95.7%)

SCF preparation             ....       2.557 sec  (  4.8%)
Fock matrix formation       ....      47.033 sec  ( 88.0%)
  Startup                   ....       0.305 sec  (  0.6% of F)
  Split-RI-J                ....       1.469 sec  (  3.1% of F)
  Chain of spheres X        ....      23.103 sec  ( 49.1% of F)
  XC integration            ....      21.534 sec  ( 45.8% of F)
    XC Preparation          ....       0.000 sec  (  0.0% of XC)
    Basis function eval.    ....       0.509 sec  (  2.4% of XC)
    Density eval.           ....       0.240 sec  (  1.1% of XC)
    XC-Functional eval.     ....       0.155 sec  (  0.7% of XC)
    XC-Potential eval.      ....       0.341 sec  (  1.6% of XC)
Diagonalization             ....       0.000 sec  (  0.0%)
Density matrix formation    ....       0.230 sec  (  0.4%)
Total Energy calculation    ....       0.319 sec  (  0.6%)
Population analysis         ....       0.255 sec  (  0.5%)
Orbital Transformation      ....       0.071 sec  (  0.1%)
Orbital Orthonormalization  ....       0.000 sec  (  0.0%)
DIIS solution               ....       0.500 sec  (  0.9%)
SOSCF solution              ....       0.169 sec  (  0.3%)
Finished LeanSCF after  53.5 sec

Maximum memory used throughout the entire LEANSCF-calculation: 42.5 MB


           ************************************************************
           *        Program running with 40 parallel MPI-processes    *
           *              working on a common directory               *
           ************************************************************

------------------------------------------------------------------------------
                         ORCA PROPERTY INTEGRAL CALCULATIONS
------------------------------------------------------------------------------

[...]
 25:    815.57   0.001179    5.96  0.000451  (-0.004060  0.014192  0.015270)
 26:    859.53   0.002152   10.88  0.000781  ( 0.021089 -0.013614  0.012303)
 27:    864.58   0.000089    0.45  0.000032  (-0.002610  0.004363 -0.002523)
 28:    923.57   0.000697    3.52  0.000235  ( 0.011551  0.001190  0.010031)
 29:    945.77   0.000386    1.95  0.000127  ( 0.006451 -0.002975 -0.008763)
 30:    963.98   0.000484    2.45  0.000157  (-0.007810  0.009684  0.001418)
 31:    981.96   0.000722    3.65  0.000229  (-0.007203  0.012292  0.005150)
 32:    985.39   0.000816    4.12  0.000258  ( 0.004005  0.015424 -0.002126)
 33:   1012.11   0.001562    7.89  0.000482  (-0.016886 -0.013216 -0.004666)
 34:   1040.81   0.000077    0.39  0.000023  (-0.000027  0.004354  0.002045)
 35:   1056.86   0.000413    2.09  0.000122  (-0.009764  0.004249 -0.002911)
 36:   1077.27   0.003811   19.26  0.001104  (-0.011790 -0.027035 -0.015300)
 37:   1086.69   0.000200    1.01  0.000058  (-0.003306  0.006440 -0.002262)
 38:   1115.15   0.005260   26.58  0.001472  (-0.006592 -0.031134 -0.021431)
 39:   1135.47   0.007064   35.70  0.001941  ( 0.008526  0.035373  0.024848)
 40:   1143.49   0.001568    7.93  0.000428  ( 0.012591  0.014034  0.008517)
 41:   1184.39   0.000367    1.86  0.000097  (-0.007373  0.005314 -0.003758)
 42:   1189.93   0.005496   27.78  0.001441  ( 0.000073 -0.025568 -0.028066)
 43:   1240.73   0.007470   37.75  0.001879  ( 0.008299  0.035070  0.024085)
 44:   1245.02   0.003797   19.19  0.000952  ( 0.000801  0.022669  0.020907)
 45:   1248.03   0.006037   30.51  0.001510  ( 0.008264  0.029990  0.023280)
 46:   1282.66   0.000072    0.36  0.000017  (-0.002416  0.003020  0.001586)
 47:   1294.78   0.000136    0.69  0.000033  (-0.003316  0.001536 -0.004409)
 48:   1313.29   0.000226    1.14  0.000054  ( 0.000811 -0.004512 -0.005716)
 49:   1331.67   0.001929    9.75  0.000452  ( 0.015074 -0.001945  0.014869)
 50:   1383.34   0.001770    8.94  0.000399  (-0.006537  0.015429  0.010884)
 51:   1409.05   0.001590    8.03  0.000352  (-0.008472 -0.015448 -0.006451)
 52:   1410.65   0.001522    7.69  0.000337  (-0.011283  0.011506  0.008772)
 53:   1439.30   0.003131   15.82  0.000679  ( 0.009772 -0.011039 -0.021482)
 54:   1447.59   0.001805    9.12  0.000389  (-0.017268 -0.001047  0.009476)
 55:   1454.14   0.002573   13.00  0.000552  (-0.015806  0.000614 -0.017377)
 56:   1463.83   0.002339   11.82  0.000499  (-0.009887 -0.013086  0.015153)
 57:   1508.10   0.002322   11.74  0.000481  (-0.011719 -0.004176 -0.018048)
 58:   1510.24   0.000663    3.35  0.000137  (-0.006404  0.006152  0.007627)
 59:   1514.60   0.000240    1.21  0.000049  (-0.004395  0.005063  0.002103)
 60:   1518.19   0.002650   13.39  0.000545  (-0.012565  0.019152  0.004485)
 61:   1530.80   0.000322    1.63  0.000066  (-0.002737  0.003734  0.006646)
 62:   1542.53   0.003151   15.93  0.000638  (-0.003597 -0.023720  0.007870)
 63:   1548.14   0.002138   10.81  0.000431  (-0.006818 -0.004284 -0.019135)
 64:   1793.18   0.002310   11.68  0.000402  ( 0.002487 -0.019892 -0.000448)
 65:   3037.26   0.010684   53.99  0.001098  (-0.020653  0.014358 -0.021564)
 66:   3094.37   0.005774   29.18  0.000582  ( 0.011085  0.019745 -0.008338)
 67:   3096.00   0.003840   19.40  0.000387  ( 0.007621 -0.002183 -0.018005)
 68:   3100.63   0.011477   58.00  0.001155  ( 0.028348 -0.011123  0.015091)
 69:   3108.78   0.010845   54.81  0.001089  ( 0.017766  0.026580 -0.008155)
 70:   3135.27   0.007827   39.56  0.000779  (-0.005768  0.021459 -0.016891)
 71:   3144.57   0.007118   35.97  0.000706  (-0.002833 -0.017046 -0.020195)
 72:   3172.18   0.001769    8.94  0.000174  (-0.008104 -0.003530 -0.009794)
 73:   3174.76   0.000105    0.53  0.000010  (-0.000778 -0.003095  0.000370)
 74:   3179.43   0.006736   34.04  0.000661  ( 0.005349  0.024543 -0.005491)
 75:   3202.67   0.003127   15.80  0.000305  (-0.014300  0.000358 -0.010002)
 76:   3206.66   0.002296   11.60  0.000223  ( 0.012284 -0.005208 -0.006736)
 77:   3218.77   0.005568   28.14  0.000540  (-0.010893  0.006524  0.019457)
 78:   3244.62   0.002404   12.15  0.000231  ( 0.013030 -0.002638 -0.007379)
 79:   3246.02   0.000702    3.55  0.000068  ( 0.007286 -0.001198 -0.003607)
 80:   3961.54   0.009165   46.32  0.000722  (-0.008398 -0.024813  0.005976)

* The epsilon (eps) is given for a Dirac delta lineshape.
** The dipole moment derivative (T) already includes vibrational overlap.

The first frequency considered to be a vibration is 6
The total number of vibrations considered is 75


--------------------------
THERMOCHEMISTRY AT 298.15K
--------------------------

Temperature         ...   298.15 K
Pressure            ...     1.00 atm
Total Mass          ...   152.24 AMU
Quasi RRHO          ...     True
Cut-Off Frequency   ...     1.00 cm^-1

Throughout the following assumptions are being made:
  (1) The electronic state is orbitally nondegenerate
  (2) There are no thermally accessible electronically excited states
  (3) Hindered rotations indicated by low frequency modes are not
      treated as such but are treated as vibrations and this may
      cause some error
  (4) All equations used are the standard statistical mechanics
      equations for an ideal gas
  (5) All vibrations are strictly harmonic

freq.     125.52  E(vib)   ...       0.43 
freq.     165.31  E(vib)   ...       0.39 
freq.     188.54  E(vib)   ...       0.36 
freq.     196.16  E(vib)   ...       0.36 
freq.     202.73  E(vib)   ...       0.35 
freq.     220.37  E(vib)   ...       0.33 
freq.     240.81  E(vib)   ...       0.31 
freq.     251.00  E(vib)   ...       0.30 
freq.     307.00  E(vib)   ...       0.26 
freq.     377.56  E(vib)   ...       0.21 
freq.     401.94  E(vib)   ...       0.19 
freq.     411.46  E(vib)   ...       0.19 
freq.     442.12  E(vib)   ...       0.17 
freq.     481.09  E(vib)   ...       0.15 
freq.     489.43  E(vib)   ...       0.15 
freq.     539.72  E(vib)   ...       0.12 
freq.     597.37  E(vib)   ...       0.10 
freq.     675.91  E(vib)   ...       0.08 
freq.     727.69  E(vib)   ...       0.06 
freq.     815.57  E(vib)   ...       0.05 
freq.     859.53  E(vib)   ...       0.04 
freq.     864.58  E(vib)   ...       0.04 
freq.     923.57  E(vib)   ...       0.03 
freq.     945.77  E(vib)   ...       0.03 
freq.     963.98  E(vib)   ...       0.03 
freq.     981.96  E(vib)   ...       0.02 
freq.     985.39  E(vib)   ...       0.02 
freq.    1012.11  E(vib)   ...       0.02 
freq.    1040.81  E(vib)   ...       0.02 
freq.    1056.86  E(vib)   ...       0.02 
freq.    1077.27  E(vib)   ...       0.02 
freq.    1086.69  E(vib)   ...       0.02 
freq.    1115.15  E(vib)   ...       0.01 
freq.    1135.47  E(vib)   ...       0.01 
freq.    1143.49  E(vib)   ...       0.01 
freq.    1184.39  E(vib)   ...       0.01 
freq.    1189.93  E(vib)   ...       0.01 
freq.    1240.73  E(vib)   ...       0.01 
freq.    1245.02  E(vib)   ...       0.01 
freq.    1248.03  E(vib)   ...       0.01 
freq.    1282.66  E(vib)   ...       0.01 
freq.    1294.78  E(vib)   ...       0.01 
freq.    1313.29  E(vib)   ...       0.01 
freq.    1331.67  E(vib)   ...       0.01 
freq.    1383.34  E(vib)   ...       0.00 
freq.    1409.05  E(vib)   ...       0.00 
freq.    1410.65  E(vib)   ...       0.00 
freq.    1439.30  E(vib)   ...       0.00 
freq.    1447.59  E(vib)   ...       0.00 
freq.    1454.14  E(vib)   ...       0.00 
freq.    1463.83  E(vib)   ...       0.00 
freq.    1508.10  E(vib)   ...       0.00 
freq.    1510.24  E(vib)   ...       0.00 
freq.    1514.60  E(vib)   ...       0.00 
freq.    1518.19  E(vib)   ...       0.00 
freq.    1530.80  E(vib)   ...       0.00 
freq.    1542.53  E(vib)   ...       0.00 
freq.    1548.14  E(vib)   ...       0.00 
freq.    1793.18  E(vib)   ...       0.00 
freq.    3037.26  E(vib)   ...       0.00 
freq.    3094.37  E(vib)   ...       0.00 
freq.    3096.00  E(vib)   ...       0.00 
freq.    3100.63  E(vib)   ...       0.00 
freq.    3108.78  E(vib)   ...       0.00 
freq.    3135.27  E(vib)   ...       0.00 
freq.    3144.57  E(vib)   ...       0.00 
freq.    3172.18  E(vib)   ...       0.00 
freq.    3174.76  E(vib)   ...       0.00 
freq.    3179.43  E(vib)   ...       0.00 
freq.    3202.67  E(vib)   ...       0.00 
freq.    3206.66  E(vib)   ...       0.00 
freq.    3218.77  E(vib)   ...       0.00 
freq.    3244.62  E(vib)   ...       0.00 
freq.    3246.02  E(vib)   ...       0.00 
freq.    3961.54  E(vib)   ...       0.00 

------------
INNER ENERGY
------------

The inner energy is: U= E(el) + E(ZPE) + E(vib) + E(rot) + E(trans)
    E(el)   - is the total energy from the electronic structure calculation
              = E(kin-el) + E(nuc-el) + E(el-el) + E(nuc-nuc)
    E(ZPE)  - the the zero temperature vibrational energy from the frequency calculation
    E(vib)  - the the finite temperature correction to E(ZPE) due to population
              of excited vibrational states
    E(rot)  - is the rotational thermal energy
    E(trans)- is the translational thermal energy

Summary of contributions to the inner energy U:
Electronic energy                ...    -82.64813702 Eh
Zero point energy                ...      0.24644669 Eh     154.65 kcal/mol
Thermal vibrational correction   ...      0.00802355 Eh       5.03 kcal/mol
Thermal rotational correction    ...      0.00141627 Eh       0.89 kcal/mol
Thermal translational correction ...      0.00141627 Eh       0.89 kcal/mol
-----------------------------------------------------------------------
Total thermal energy                    -82.39083424 Eh


Summary of corrections to the electronic energy:
(perhaps to be used in another calculation)
Total thermal correction                  0.01085609 Eh       6.81 kcal/mol
Non-thermal (ZPE) correction              0.24644669 Eh     154.65 kcal/mol
-----------------------------------------------------------------------
Total correction                          0.25730278 Eh     161.46 kcal/mol


--------
ENTHALPY
--------

The enthalpy is H = U + kB*T
                kB is Boltzmann's constant
Total thermal energy              ...    -82.39083424 Eh 
Thermal Enthalpy correction       ...      0.00094421 Eh       0.59 kcal/mol
-----------------------------------------------------------------------
Total Enthalpy                    ...    -82.38989003 Eh


Note: Only C1 symmetry has been detected, increase convergence thresholds 
      if your molecule has a higher symmetry. Symmetry factor of 1.0 is   
      used for the rotational entropy correction. 
 

Note: Rotational entropy computed according to Herzberg 
Infrared and Raman Spectra, Chapter V,1, Van Nostrand Reinhold, 1945 
Point Group:  C1, Symmetry Number:   1  
Rotational constants in cm-1:     0.044514     0.040179     0.030784 

Vibrational entropy computed according to the QRRHO of S. Grimme
Chem.Eur.J. 2012 18 9955 using a reference frequency of 100.0 cm-1


-------
ENTROPY
-------

The entropy contributions are T*S = T*(S(el)+S(vib)+S(rot)+S(trans))
     S(el)   - electronic entropy
     S(vib)  - vibrational entropy
     S(rot)  - rotational entropy
     S(trans)- translational entropy
The entropies will be listed as multiplied by the temperature to get
units of energy

Electronic entropy                ...      0.00000000 Eh      0.00 kcal/mol
Vibrational entropy               ...      0.01313896 Eh      8.24 kcal/mol
Rotational entropy                ...      0.01414067 Eh      8.87 kcal/mol
Translational entropy             ...      0.01946646 Eh     12.22 kcal/mol
-----------------------------------------------------------------------
Final entropy term                ...      0.04674608 Eh     29.33 kcal/mol

In case the symmetry of your molecule has not been determined correctly
or in case you have a reason to use a different symmetry number we print 
out the resulting rotational entropy values for sn=1,12:

 non-linear molecules -----------------------------------
|  sn= 1 | S(rot)=       0.01414067 Eh      8.87 kcal/mol|
|  sn= 2 | S(rot)=       0.01348621 Eh      8.46 kcal/mol|
|  sn= 3 | S(rot)=       0.01310338 Eh      8.22 kcal/mol|
|  sn= 4 | S(rot)=       0.01283175 Eh      8.05 kcal/mol|
|  sn= 5 | S(rot)=       0.01262107 Eh      7.92 kcal/mol|
|  sn= 6 | S(rot)=       0.01244892 Eh      7.81 kcal/mol|
|  sn= 7 | S(rot)=       0.01230338 Eh      7.72 kcal/mol|
|  sn= 8 | S(rot)=       0.01217730 Eh      7.64 kcal/mol|
|  sn= 9 | S(rot)=       0.01206609 Eh      7.57 kcal/mol|
|  sn=10 | S(rot)=       0.01196661 Eh      7.51 kcal/mol|
|  sn=11 | S(rot)=       0.01187662 Eh      7.45 kcal/mol|
|  sn=12 | S(rot)=       0.01179447 Eh      7.40 kcal/mol|
 linear molecules ---------------------------------------
|  Dinfh | S(rot)=       0.00861228 Eh      5.40 kcal/mol|
|  Cinfv | S(rot)=       0.00926674 Eh      5.81 kcal/mol|
 --------------------------------------------------------


-------------------
GIBBS FREE ENERGY
-------------------

The Gibbs free energy is G = H - T*S

Total enthalpy                    ...    -82.38989003 Eh 
Total entropy correction          ...     -0.04674608 Eh    -29.33 kcal/mol
-----------------------------------------------------------------------
Final Gibbs free energy         ...    -82.43663611 Eh

For completeness - the Gibbs free energy minus the electronic energy
G-E(el)                           ...      0.21150091 Eh    132.72 kcal/mol


Maximum memory used throughout the entire PROP-calculation: 128.0 MB

--------------------------------
SUGGESTED CITATIONS FOR THIS RUN
--------------------------------

Below you find a list of papers that are relevant to this ORCA run
We neither can nor want to force you to cite these papers, but we appreciate if you do
You receive ORCA, which is the product of decades of hard work by many enthusiastic individuals, for free
The only thing we kindly ask in return is that you cite our papers,
We deeply appreciate it, if you show your appreciation for ORCA by not just citing the generic ORCA reference.

Please note that relegating all ORCA citations to the supporting information does *not* help us.
SI sections are not indexed - citations you put there will not count into any citation statistics
But we need these citations in order to attract the funding resources that allow us to do what we are doing

Therefore, if you are a happy ORCA user, please consider citing a few of the papers listed below in the main body of your paper

In addition to the list printed below, the program has created the file ./output/_e_verbenol/_e_verbenol.bibtex that contains the list in bibtex format
You can import this file easily into all common literature databanks and citation aid programs


List of essential papers. We consider these as the minimum necessary citations

  1. Neese,F.
     Software update: the ORCA program system, version 5.0
     WIRES Comput. Molec. Sci., 2022 12(1)e1606
     doi.org/10.1002/wcms.1606
  2. Mueller,M.; Hansen,A.; Grimme,S.
     wB97X-3c: A composite range-separated hybrid DFT method with a molecule-optimized polarized valence double-zeta basis set
     J. Chem. Phys., 2023 158 014103
     doi.org/10.1063/5.0133026

List of papers to cite with high priority. The work reported in these papers was absolutely
necessary for this run to complete.
Our perspective: the developers of density functionals and basis sets usually get cited in chemistry papers
Good! But without the algorithms to do something with them, the functionals or basis sets would not do anything.
Hence, in our opinion, the algorithm design and method developments papers are equally worthy of getting cited

  1. Neese,F.
     An improvement of the resolution of the identity approximation for the formation of the Coulomb matrix
     J. Comp. Chem., 2003 24(14)1740-1747
     doi.org/10.1002/jcc.10318
  2. Neese,F.; Wennmohs,F.; Hansen,A.; Becker,U.
     Efficient, approximate and parallel Hartree-Fock and hybrid DFT calculations. A 'chain-of-spheres' algorithm for the Hartree-Fock exchange
     Chem. Phys., 2009 356(1-3)98-109
     doi.org/10.1016/j.chemphys.2008.10.036
  3. Bykov,D.; Petrenko,T.; Izsak,R.; Kossmann,S.; Becker,U.; Valeev,E.; Neese,F.
     Efficient implementation of the analytic second derivatives of Hartree-Fock and hybrid DFT energies: a detailed analysis of different approximations
     Molec. Phys., 2015 113 1961-1977
     doi.org/10.1080/00268976.2015.1025114
  4. Helmich-Paris,B.; de Souza,B.; Neese,F.; Izsák,R.
     An improved chain of spheres for exchange algorithm
     J. Chem. Phys., 2021 155 104109
     doi.org/doi: 10.1063/5.0058766.
  5. Neese,F.
     The SHARK Integral Generation and Digestion System
     J. Comp. Chem., 2022  1-16
     doi.org/10.1002/jcc.26942
  6. Caldeweyher,E.; Bannwarth,C.; Grimme,S.
     Extension of the D3 dispersion coefficient model
     J. Chem. Phys., 2017 147 034112
     doi.org/10.1063/1.4993215
  7. Caldeweyher,E.; Ehlert,S.; Hansen,A.; Neugebauer,H.; Spicher,S.; Bannwarth,C.; Grimme,S.
     A generally applicable atomic-charge dependent London dispersion correction
     J. Chem. Phys., 2019 150 154122
     doi.org/10.1063/1.5090222
  8. Caldeweyher,E.; Mewes,J.; Ehlert,S.; Grimme,S.
     Extension and evaluation of the D4 London-dispersion model for periodic systems
     Phys. Chem. Chem. Phys., 2020 22(16)8499-8512
     doi.org/10.1039/D0CP00502A
  9. Wittmann,L.; Gordiy,I.; Friede,M.; Helmich-Paris,B.; Grimme,S.; Hansen,A.; Bursch,M.
     Extension of the D3 and D4 London Dispersion Corrections to the full Actinides Series
     Phys. Chem. Chem. Phys., 2024 26(32)21379-21394
     doi.org/https://doi.org/10.1039/D4CP01514B 

List of suggested additional citations. These are papers that are important in the 'surrounding' of 
of this run, or papers that preceded the highly important papers. If you like your results we are grateful for a citation.

  1. Izsak,R.; Neese,F.
     An overlap fitted chain of spheres exchange method
     J. Chem. Phys., 2011 135 144105
     doi.org/10.1063/1.3646921
  2. Izsak,R.; Hansen,A.; Neese,F.
     The resolution of identity and chain of spheres approximations for the LPNO-CCSD singles Fock term
     Molec. Phys., 2012 110 2413-2417
     doi.org/10.1080/00268976.2012.687466
  3. Neese,F.
     The ORCA program system
     WIRES Comput. Molec. Sci., 2012 2(1)73-78
     doi.org/10.1002/wcms.81
  4. Izsak,R.; Neese,F.; Klopper,W.
     Robust fitting techniques in the chain of spheres approximation to the Fock exchange: The role of the complementary space
     J. Chem. Phys., 2013 139 
     doi.org/10.1063/1.4819264
  5. Neese,F.
     Software update: the ORCA program system, version 4.0
     WIRES Comput. Molec. Sci., 2018 8(1)1-6
     doi.org/10.1002/wcms.1327
  6. Neese,F.; Wennmohs,F.; Becker,U.; Riplinger,C.
     The ORCA quantum chemistry program package
     J. Chem. Phys., 2020 152 Art. No. L224108
     doi.org/10.1063/5.0004608

List of optional additional citations

  1. Neese,F.
     Approximate second-order SCF convergence for spin unrestricted wavefunctions
     Chem. Phys. Lett., 2000 325(1-3)93-98
     doi.org/10.1016/s0009-2614(00)00662-x

Timings for individual modules:

Sum of individual times          ...     1311.591 sec (=  21.860 min)
Startup calculation              ...       72.915 sec (=   1.215 min)   5.6 %
SCF iterations                   ...      837.538 sec (=  13.959 min)  63.9 %
Property integrals               ...       64.231 sec (=   1.071 min)   4.9 %
SCF Response                     ...       36.622 sec (=   0.610 min)   2.8 %
Property calculations            ...      105.470 sec (=   1.758 min)   8.0 %
SCF Gradient evaluation          ...      194.373 sec (=   3.240 min)  14.8 %
Geometry relaxation              ...        0.443 sec (=   0.007 min)   0.0 %
                             ****ORCA TERMINATED NORMALLY****
TOTAL RUN TIME: 0 days 0 hours 22 minutes 0 seconds 948 msec
