
                                 *****************
                                 * O   R   C   A *
                                 *****************

                                            #,                                       
                                            ###                                      
                                            ####                                     
                                            #####                                    
                                            ######                                   
                                           ########,                                 
                                     ,,################,,,,,                         
                               ,,#################################,,                 
                          ,,##########################################,,             
                       ,#########################################, ''#####,          
                    ,#############################################,,   '####,        
                  ,##################################################,,,,####,       
                ,###########''''           ''''###############################       
              ,#####''   ,,,,##########,,,,          '''####'''          '####       
            ,##' ,,,,###########################,,,                        '##       
           ' ,,###''''                  '''############,,,                           
         ,,##''                                '''############,,,,        ,,,,,,###''
      ,#''                                            '''#######################'''  
     '                                                          ''''####''''         
             ,#######,   #######,   ,#######,      ##                                
            ,#'     '#,  ##    ##  ,#'     '#,    #''#        ,####,   ,####,        
            ##       ##  ##   ,#'  ##            #'  '#       #'       #'  '#        
            ##       ##  #######   ##           ,######,      #####,   #    #        
            '#,     ,#'  ##    ##  '#,     ,#' ,#      #,     #,   #   #,  ,#        
             '#######'   ##     ##  '#######'  #'      '#     '####' # '####'        



                #########################################################
                #                        -***-                          #
                #          Department of theory and spectroscopy        #
                #                                                       #
                #                      Frank Neese                      #
                #                                                       #
                #     Directorship, Architecture, Infrastructure        #
                #                    SHARK, DRIVERS                     #
                #        Core code/Algorithms in most modules           #
                #                                                       #
                #        Max Planck Institute fuer Kohlenforschung      #
                #                Kaiser Wilhelm Platz 1                 #
                #                 D-45470 Muelheim/Ruhr                 #
                #                      Germany                          #
                #                                                       #
                #                  All rights reserved                  #
                #                        -***-                          #
                #########################################################


                         Program Version 6.0.1  -  RELEASE   -


 With contributions from (in alphabetic order):
[Max-Planck-Institut fuer Kohlenforschung]                               
  Daniel Aravena         : Magnetic Suceptibility                        
  Michael Atanasov       : Ab Initio Ligand Field Theory (pilot matlab implementation)
  Alexander A. Auer      : GIAO ZORA, VPT2 properties, NMR spectrum      
  Ute Becker             : All parallelization in ORCA, NUMFREQ, NUMCALC 
  Giovanni Bistoni       : ED, misc. LED, open-shell LED, HFLD           
  Martin Brehm           : Molecular dynamics                            
  Dmytro Bykov           : pre 5.0 version of the SCF Hessian            
  Marcos Casanova-Páez   : Triplet and SCS-CIS(D). UHF-(DLPNO)-IP/EA/STEOM-CCSD. UHF-CVS-IP/STEOM-CCSD   
  Vijay G. Chilkuri      : MRCI spin determinant printing, contributions to CSF-ICE 
  Pauline Colinet        : FMM embedding                                 
  Dipayan Datta          : RHF DLPNO-CCSD density                        
  Achintya Kumar Dutta   : EOM-CC, STEOM-CC                              
  Nicolas Foglia         : Exact transition moments, OPA infrastructure, MCD improvements    
  Dmitry Ganyushin       : Spin-Orbit,Spin-Spin,Magnetic field MRCI      
  Miquel Garcia-Rates    : C-PCM and meta-GGA Hessian, CCSD/C-PCM, Gaussian charge scheme 
  Tiago L. C. Gouveia    : GS-ROHF, GS-ROCIS                             
  Yang Guo               : DLPNO-NEVPT2, F12-NEVPT2, CIM, IAO-localization        
  Andreas Hansen         : Spin unrestricted coupled pair/coupled cluster methods 
  Ingolf Harden          : AUTO-CI MPn and infrastructure                
  Benjamin Helmich-Paris : MC-RPA, TRAH-(SCF,CASSCF), AVAS, COSX integrals, SCF dyn. polar. 
  Lee Huntington         : MR-EOM, pCC                                   
  Robert Izsak           : Overlap fitted RIJCOSX, COSX-SCS-MP3, EOM     
  Riya Kayal             : Wick's Theorem for AUTO-CI, AUTO-CI UHF-CCSDT 
  Emily Kempfer          : AUTO-CI, RHF CISDT and CCSDT                  
  Christian Kollmar      : KDIIS, OOCD, Brueckner-CCSD(T), CCSD density, CASPT2, CASPT2-K, improved NEVPT2 
  Axel Koslowski         : Symmetry handling                             
  Simone Kossmann        : meta-GGA functionals, TD-DFT gradient, OOMP2, (MP2 Hessian; deprecated post 5.0) 
  Lucas Lang             : DCDCAS                                        
  Marvin Lechner         : AUTO-CI (C++ implementation), FIC-MRCC        
  Spencer Leger          : CASSCF response                               
  Dagmar Lenk            : GEPOL surface, SMD, ORCA-2-JSON               
  Dimitrios Liakos       : Extrapolation schemes; Compound Job, initial MDCI parallelization 
  Dimitrios Manganas     : Further ROCIS development; embedding schemes. LFT, Crystal Embedding 
  Dimitrios Pantazis     : SARC Basis sets                               
  Anastasios Papadopoulos: AUTO-CI, single reference methods and gradients 
  Taras Petrenko         : pre 6.0 DFT Hessian and TD-DFT gradient, (ASA, deprecated), ECA, 1-Electron XAS/XES, NRVS 
  Peter Pinski           : DLPNO-MP2, DLPNO-MP2 Gradient                 
  Christoph Reimann      : Effective Core Potentials                     
  Marius Retegan         : Local ZFS, SOC                                
  Christoph Riplinger    : Optimizer, TS searches, QM/MM, DLPNO-CCSD(T), (RO)-DLPNO pert. Triples 
  Michael Roemelt        : Original ROCIS implementation                 
  Masaaki Saitow         : Open-shell DLPNO-CCSD energy and density      
  Barbara Sandhoefer     : DKH picture change effects                    
  Kantharuban Sivalingam : CASSCF convergence/infrastructure, NEVPT2 and variants, FIC-MRCI 
  Bernardo de Souza      : ESD, SOC TD-DFT                               
  Georgi L. Stoychev     : AutoAux, RI-MP2 NMR, DLPNO-MP2 response, X2C  
  Van Anh Tran           : RI-MP2 g-tensors                              
  Willem Van den Heuvel  : Paramagnetic NMR                              
  Zikuan Wang            : NOTCH, Electric field optimization            
  Frank Wennmohs         : Technical directorship and infrastructure     
  Hang Xu                : AUTO-CI-Response properties                   
                                                                         
[FACCTs GmbH]                                                            
  Markus Bursch, Miquel Garcia-Rates, Christoph Riplinger, Bernardo de Souza, Georgi L. Stoychev 
                                                                 
  APM, Basis sets (HGBS, AHGBS, def-TZVP (Ac-Lr), def2-XVPD (La-Lu)), CI-OPT, improved COSX, DLPNO-Multilevel,           
  DOCKER, DRACO, updates on ESD, GOAT, IRC, LR-CPCM, MBIS, meta-GGA TD-DFT gradient, ML-optimized integration grids, 
  MM, NACMEs, nearIR, NEB, NEB-TS, NL-DFT gradient (VV10), 2- and 3-layer-ONIOM, interface openCOSMO-RS, QMMM,   
  Crystal-QMMM, SF, symmetry and pop. for TD-DFT, r2SCAN hybrids, SOLVATOR                                   
                                                                         
[Other institutions]                                                     
  V. Asgeirsson          : NEB                                           
  Christoph Bannwarth    : sTDA-DFT, sTD-DFT, PBEh-3c, B97-3c, D3        
  Sebastian Ehlert       : rSCAN, r2SCAN, r2SCAN-3c, D4, dhf basis sets  
  Marvin Friede          : D4 for Fr, Ra, Ac-Lr                          
  Lars Goerigk           : TD-DFT with DH, B97 family of functionals     
  Stefan Grimme          : VdW corrections, initial TS optimization, DFT functionals, gCP, sTDA/sTD-DF 
  Waldemar Hujo          : DFT-NL                                        
  H. Jonsson             : NEB                                           
  Holger Kruse           : gCP                                           
  Marcel Mueller         : wB97X-3c, vDZP basis set                      
  Hagen Neugebauer       : wr2SCAN                                       
  Tobias Risthaus        : range-separated hybrid DFT                    
  Lukas Wittmann         : regularized MP2, r2SCAN double-hybrids, wr2SCAN        
                                                                         
We gratefully acknowledge several colleagues who have allowed us to      
interface, adapt or use parts of their codes:                            
  Ed Valeev, F. Pavosevic, A. Kumar             : LibInt (2-el integral package), F12 methods 
  Garnet Chan, S. Sharma, J. Yang, R. Olivares  : DMRG                   
  Ulf Ekstrom                                   : XCFun DFT Library      
  Mihaly Kallay                                 : mrcc  (arbitrary order and MRCC methods)
  Frank Weinhold                                : gennbo (NPA and NBO analysis)           
  Simon Mueller                                 : openCOSMO-RS                            
  Christopher J. Cramer and Donald G. Truhlar   : smd solvation model                     
  S Lehtola, MJT Oliveira, MAL Marques          : LibXC Library                           
  Liviu Ungur et al                             : ANISO software                          


 Your calculation uses the libint2 library for the computation of 2-el integrals
 For citations please refer to: http://libint.valeyev.net

 Your ORCA version has been built with support for libXC version: 6.2.2
 For citations please refer to: https://libxc.gitlab.io

 This ORCA versions uses:
   CBLAS   interface :  Fast vector & matrix operations
   LAPACKE interface :  Fast linear algebra routines
   SCALAPACK package :  Parallel linear algebra routines
   Shared memory     :  Shared parallel matrices
   BLAS/LAPACK       :  OpenBLAS 0.3.27  USE64BITINT DYNAMIC_ARCH NO_AFFINITY SkylakeX SINGLE_THREADED
        Core in use  :  SkylakeX
   Copyright (c) 2011-2014, The OpenBLAS Project


Your calculation utilizes the atom-pairwise dispersion correction
based on EEQ partial charges (D4)


================================================================================

cite the ECPs for C  [vDZP-ECP] as follows:
   B-Ne (ecp-2-mwb), Al-Ar (ecp-10-mwb), Ga-Kr (ecp-28-mwb), Y-Cd (ecp-28-mwb), In-Xe (ecp-46-mwb):
     A. Bergner, M. Dolg, W. Küchle, H. Stoll, and H. Preuß, Mol. Phys. 80, 1431 (1993)., T. Leininger, A. Berning, A. Nicklass, H. Stoll, H.-J. Werner, and H.-J.Flad, Chem. Phys. 217, 19 (1997).
   Na-Mg, K-Ca, Rb-Sr, Cs-Ba (CRENBL):
     L. Fernandez Pacios and P. A. Christiansen, J. Chem. Phys. 82, 2664 (1985)., M. M. Hurley, L. F. Pacios, P. A. Christiansen, R. B. Ross, and W. C. Ermler, J. Chem. Phys. 84, 6840 (1986)., L. A. LaJohn, P. A. Christiansen, R. B. Ross, T. Atashroo, and W. C. Ermler, J. Chem. Phys. 87, 2812 (1987)., R. B. Ross, J. M. Powers, T. Atashroo, W. C. Ermler, L. A. LaJohn, and P. A. Christiansen, J. Chem. Phys. 93, 6654 (1990). 
   Sc-Zn (ecp-10-mdf):
     M. Dolg, U. Wedig, H. Stoll, and H. Preuss, J. Chem. Phys. 86, 866 (1986). 
   Y-Cd (ecp-28-mwb), Hf-Hg (ecp-60-mwb):
     D. Andrae, U. Häußermann, M. Dolg, H. Stoll, and H. Preuß, Theor. Chim. Acta 77, 123 (1990). 
   La (ecp-46-mwb):
     M. Dolg, H. Stoll, and H. Preuss, J. Chem. Phys. 90, 1730 (1989)., M. Dolg, H. Stoll, and H. Preuss, Theor. Chim. Acta 85, 441 (1993).
   Ce-Lu (SBKJC-ecp):
     T. R. Cundari and W. J. Stevens, J. Chem. Phys. 98, 5555 (1993).
   Tl-Rn (ecp-78-mwb):
     W. Küchle, M. Dolg, H. Stoll, and H. Preuss, Mol. Phys. 74, 1245 (1991).

ECP parameters for C  [vDZP-ECP] have been obtained from:
MM, AH, SG, J. Chem. Phys. 158, 014103 (2023), 10.1063/5.0133026

----- Orbital basis set information -----
Your calculation utilizes the basis: vDZP
   Marcel Mueller, Andreas Hansen, Stefan Grimme 
   J. Chem. Phys. 158, 014103 (2023). DOI: 10.1063/5.0133026

----- AuxJ basis set information -----
Your calculation utilizes the auxiliary basis: def2/J
   F. Weigend, Phys. Chem. Chem. Phys. 8, 1057 (2006).

================================================================================
                                        WARNINGS
                       Please study these warnings very carefully!
================================================================================

WARNING: Frozen-Core approximation turned on, but there are no core electrons.
  ===> : Turning off frozen-core approximation


WARNING: Geometry Optimization
  ===> : Switching off AutoStart
         For restart on a previous wavefunction, please use MOREAD

================================================================================
                                       INPUT FILE
================================================================================
NAME = ./output/4_5_9_10_dehydro_isolongifolene/4_5_9_10_dehydro_isolongifolene.inp
|  1> ! wB97X-3c OPT FREQ TightSCF
|  2> %pal
|  3>   nprocs 40
|  4> end
|  5> * xyz 0 1
|  6> C      2.221933    -0.199446    -1.731668
|  7> C      1.936586     0.099936    -0.242748
|  8> C      2.093252     1.603471    -0.047518
|  9> C      1.069745     2.453129    -0.239656
| 10> C     -0.302798     1.962991    -0.476059
| 11> C     -0.562785     0.661877    -0.327460
| 12> C      0.473973    -0.325972     0.142940
| 13> C     -0.091137    -1.618040    -0.438169
| 14> C     -1.457685    -1.431091     0.222392
| 15> C     -1.910348    -0.026371    -0.321391
| 16> C     -2.922646     0.673473     0.614402
| 17> C     -2.505317    -0.113793    -1.741724
| 18> C     -0.978622    -1.261285     1.651562
| 19> C      0.165973    -0.567627     1.606352
| 20> C      2.987065    -0.641351     0.610602
| 21> H      3.212563     0.207188    -2.031426
| 22> H      1.449161     0.262401    -2.383534
| 23> H      2.237188    -1.294042    -1.921190
| 24> H      3.079591     2.014446     0.133785
| 25> H      1.244608     3.520064    -0.189879
| 26> H     -1.095395     2.661944    -0.708191
| 27> H      0.444771    -2.530636    -0.082791
| 28> H     -0.133731    -1.642002    -1.547449
| 29> H     -2.177913    -2.263442     0.073038
| 30> H     -3.261775     1.635678     0.174631
| 31> H     -3.811213     0.024270     0.765847
| 32> H     -2.477266     0.902488     1.605567
| 33> H     -3.408196    -0.760911    -1.736283
| 34> H     -1.785878    -0.524372    -2.477773
| 35> H     -2.799167     0.896542    -2.098853
| 36> H     -1.462430    -1.626935     2.550786
| 37> H      0.748539    -0.267357     2.470025
| 38> H      2.829765    -1.739704     0.554322
| 39> H      4.014770    -0.417841     0.250272
| 40> H      2.934820    -0.327682     1.674018
| 41> *
| 42> 
| 43>                          ****END OF INPUT****
================================================================================

                       *****************************
                       * Geometry Optimization Run *
                       *****************************

Geometry optimization settings:
Update method            Update   .... BFGS
Choice of coordinates    CoordSys .... (2022) Redundant Internals
Initial Hessian          InHess   .... Almloef's Model
Max. no of cycles        MaxIter  .... 105

Convergence Tolerances:
Energy Change            TolE     ....  5.0000e-06 Eh
Max. Gradient            TolMAXG  ....  3.0000e-04 Eh/bohr
RMS Gradient             TolRMSG  ....  1.0000e-04 Eh/bohr
Max. Displacement        TolMAXD  ....  4.0000e-03 bohr
RMS Displacement         TolRMSD  ....  2.0000e-03 bohr
Strict Convergence                .... False

------------------------------------------------------------------------------
                        ORCA OPTIMIZATION COORDINATE SETUP
------------------------------------------------------------------------------

The optimization will be done in redundant internal coordinates (2022)
Making redundant internal coordinates   ...  (2022 redundants) done
Evaluating the initial hessian          ...  (Almloef) done
Evaluating the coordinates              ...  done
Calculating the B-matrix                .... done
Calculating the G-matrix                .... done
Diagonalizing the G-matrix              .... done
Small eigenvalue found = 2.761e-02
The first mode is                       ....   99
The number of degrees of freedom        ....   99

    -----------------------------------------------------------------
                    Redundant Internal Coordinates


    -----------------------------------------------------------------
         Definition                    Initial Value    Approx d2E/dq
    -----------------------------------------------------------------
      1. B(C   1,C   0)                  1.5453         0.353164   
      2. B(C   2,C   1)                  1.5242         0.381578   
      3. B(C   3,C   2)                  1.3440         0.739757   
      4. B(C   4,C   3)                  1.4765         0.454741   
      5. B(C   5,C   4)                  1.3351         0.764328   
      6. B(C   6,C   5)                  1.5073         0.406046   
      7. B(C   6,C   1)                  1.5714         0.320834   
      8. B(C   7,C   6)                  1.5253         0.380110   
      9. B(C   8,C   7)                  1.5293         0.374543   
     10. B(C   9,C   8)                  1.5728         0.319169   
     11. B(C   9,C   5)                  1.5132         0.397418   
     12. B(C  10,C   9)                  1.5460         0.352199   
     13. B(C  11,C   9)                  1.5424         0.356948   
     14. B(C  12,C   8)                  1.5169         0.392051   
     15. B(C  13,C   6)                  1.5149         0.394924   
     16. B(C  13,C  12)                  1.3391         0.753144   
     17. B(C  14,C   1)                  1.5431         0.355996   
     18. B(H  15,C   0)                  1.1120         0.332136   
     19. B(H  16,C   0)                  1.1115         0.332765   
     20. B(H  17,C   0)                  1.1110         0.333380   
     21. B(H  18,C   2)                  1.0838         0.368388   
     22. B(H  19,C   3)                  1.0823         0.370412   
     23. B(H  20,C   4)                  1.0820         0.370899   
     24. B(H  21,C   7)                  1.1164         0.326831   
     25. B(H  22,C   7)                  1.1104         0.334154   
     26. B(H  23,C   8)                  1.1108         0.333628   
     27. B(H  24,C  10)                  1.1110         0.333406   
     28. B(H  25,C  10)                  1.1108         0.333568   
     29. B(H  26,C  10)                  1.1105         0.333972   
     30. B(H  27,C  11)                  1.1108         0.333551   
     31. B(H  28,C  11)                  1.1081         0.336907   
     32. B(H  29,C  11)                  1.1112         0.333174   
     33. B(H  30,C  12)                  1.0846         0.367304   
     34. B(H  31,C  13)                  1.0842         0.367863   
     35. B(H  32,C  14)                  1.1110         0.333381   
     36. B(H  33,C  14)                  1.1117         0.332456   
     37. B(H  34,C  14)                  1.1099         0.334662   
     38. A(C   1,C   0,H  16)          110.8669         0.317231   
     39. A(H  16,C   0,H  17)          108.5958         0.283835   
     40. A(C   1,C   0,H  15)          110.6946         0.317133   
     41. A(C   1,C   0,H  17)          110.9640         0.317326   
     42. A(H  15,C   0,H  16)          108.0189         0.283670   
     43. A(H  15,C   0,H  17)          107.5816         0.283752   
     44. A(C   0,C   1,C   6)          110.8451         0.350712   
     45. A(C   2,C   1,C   6)          109.3648         0.355336   
     46. A(C   0,C   1,C  14)          108.3039         0.356946   
     47. A(C   6,C   1,C  14)          111.5728         0.351186   
     48. A(C   0,C   1,C   2)          107.1899         0.361187   
     49. A(C   2,C   1,C  14)          109.4545         0.361680   
     50. A(C   3,C   2,H  18)          118.5050         0.365090   
     51. A(C   1,C   2,C   3)          121.8035         0.410772   
     52. A(C   1,C   2,H  18)          119.2758         0.326671   
     53. A(C   2,C   3,C   4)          121.3957         0.423804   
     54. A(C   4,C   3,H  19)          118.9994         0.336604   
     55. A(C   2,C   3,H  19)          119.5763         0.365432   
     56. A(C   3,C   4,H  20)          120.0589         0.336678   
     57. A(C   3,C   4,C   5)          119.1243         0.426289   
     58. A(C   5,C   4,H  20)          120.7157         0.367567   
     59. A(C   4,C   5,C   9)          128.1059         0.416158   
     60. A(C   6,C   5,C   9)          108.2524         0.372519   
     61. A(C   4,C   5,C   6)          122.6476         0.417752   
     62. A(C   7,C   6,C  13)           99.0667         0.367917   
     63. A(C   5,C   6,C  13)          105.4370         0.372115   
     64. A(C   1,C   6,C  13)          118.0067         0.357417   
     65. A(C   5,C   6,C   7)          100.4534         0.369676   
     66. A(C   1,C   6,C   7)          118.7458         0.355104   
     67. A(C   1,C   6,C   5)          112.7038         0.359109   
     68. A(C   8,C   7,H  21)          113.0406         0.319347   
     69. A(C   8,C   7,H  22)          113.5706         0.320505   
     70. A(C   6,C   7,C   8)           93.6093         0.364592   
     71. A(C   6,C   7,H  22)          114.4003         0.321279   
     72. A(C   6,C   7,H  21)          113.1623         0.320117   
     73. A(H  21,C   7,H  22)          108.5900         0.283145   
     74. A(C   7,C   8,C   9)          102.5337         0.353905   
     75. A(C  12,C   8,H  23)          114.5414         0.322828   
     76. A(C   9,C   8,H  23)          115.8581         0.312192   
     77. A(C   7,C   8,H  23)          115.4494         0.320422   
     78. A(C   9,C   8,C  12)          108.4611         0.356658   
     79. A(C   7,C   8,C  12)           97.9574         0.366528   
     80. A(C   5,C   9,C   8)           98.7026         0.357483   
     81. A(C  10,C   9,C  11)          109.2972         0.356942   
     82. A(C   8,C   9,C  11)          112.2574         0.351036   
     83. A(C   5,C   9,C  11)          111.4455         0.364368   
     84. A(C   8,C   9,C  10)          112.5480         0.350242   
     85. A(C   5,C   9,C  10)          112.3119         0.363535   
     86. A(H  25,C  10,H  26)          108.6420         0.284020   
     87. A(C   9,C  10,H  26)          111.7766         0.317276   
     88. A(H  24,C  10,H  25)          108.4189         0.283945   
     89. A(C   9,C  10,H  25)          109.9820         0.317214   
     90. A(C   9,C  10,H  24)          110.6298         0.317189   
     91. A(H  24,C  10,H  26)          107.2848         0.283998   
     92. A(H  28,C  11,H  29)          107.1640         0.284354   
     93. A(H  27,C  11,H  29)          108.4404         0.283912   
     94. A(C   9,C  11,H  29)          110.2699         0.317845   
     95. A(H  27,C  11,H  28)          108.3671         0.284404   
     96. A(C   9,C  11,H  28)          112.4716         0.318423   
     97. A(C   9,C  11,H  27)          110.0009         0.317904   
     98. A(C   8,C  12,H  30)          127.0513         0.327973   
     99. A(C   8,C  12,C  13)          107.2248         0.414067   
    100. A(C  13,C  12,H  30)          125.7240         0.366028   
    101. A(C   6,C  13,C  12)          106.7995         0.414604   
    102. A(C  12,C  13,H  31)          125.1577         0.366123   
    103. A(C   6,C  13,H  31)          128.0330         0.328451   
    104. A(H  33,C  14,H  34)          107.2909         0.283963   
    105. A(H  32,C  14,H  34)          108.7389         0.284086   
    106. A(C   1,C  14,H  34)          111.2245         0.317938   
    107. A(H  32,C  14,H  33)          108.2536         0.283794   
    108. A(C   1,C  14,H  33)          110.7002         0.317595   
    109. A(C   1,C  14,H  32)          110.5192         0.317739   
    110. D(C   6,C   1,C   0,H  15)    173.5332         0.010035   
    111. D(C   6,C   1,C   0,H  17)    -67.0917         0.010035   
    112. D(C   6,C   1,C   0,H  16)     53.6734         0.010035   
    113. D(C   2,C   1,C   0,H  16)    -65.6138         0.010035   
    114. D(C   2,C   1,C   0,H  15)     54.2460         0.010035   
    115. D(C   2,C   1,C   0,H  17)    173.6210         0.010035   
    116. D(H  18,C   2,C   1,C   0)    -84.6342         0.010859   
    117. D(C   3,C   2,C   1,C  14)   -154.8927         0.010859   
    118. D(C   3,C   2,C   1,C   0)     87.8543         0.010859   
    119. D(H  18,C   2,C   1,C   6)    155.1309         0.010859   
    120. D(C   3,C   2,C   1,C   6)    -32.3806         0.010859   
    121. D(C   4,C   3,C   2,H  18)   -179.2782         0.038924   
    122. D(H  19,C   3,C   2,H  18)     -1.2422         0.038924   
    123. D(H  19,C   3,C   2,C   1)   -173.7865         0.038924   
    124. D(C   4,C   3,C   2,C   1)      8.1775         0.038924   
    125. D(H  20,C   4,C   3,H  19)      6.9479         0.014091   
    126. D(C   5,C   4,C   3,H  19)   -169.4232         0.014091   
    127. D(H  20,C   4,C   3,C   2)   -175.0051         0.014091   
    128. D(C   5,C   4,C   3,C   2)      8.6238         0.014091   
    129. D(C   6,C   5,C   4,H  20)   -173.1069         0.041818   
    130. D(C   9,C   5,C   4,C   3)    170.4541         0.041818   
    131. D(C   9,C   5,C   4,H  20)     -5.8925         0.041818   
    132. D(C   6,C   5,C   4,C   3)      3.2397         0.041818   
    133. D(C   1,C   6,C   5,C   4)    -28.7654         0.012220   
    134. D(C   7,C   6,C   1,C  14)    -81.4756         0.008433   
    135. D(C   7,C   6,C   1,C   2)    157.2870         0.008433   
    136. D(C   7,C   6,C   1,C   0)     39.3158         0.008433   
    137. D(C   5,C   6,C   1,C  14)    161.5357         0.008433   
    138. D(C   5,C   6,C   1,C   2)     40.2983         0.008433   
    139. D(C   1,C   6,C   5,C   9)    161.8003         0.012220   
    140. D(C   5,C   6,C   1,C   0)    -77.6729         0.008433   
    141. D(C  13,C   6,C   5,C   4)    101.2955         0.012220   
    142. D(C   7,C   6,C   5,C   9)     34.4051         0.012220   
    143. D(C   7,C   6,C   5,C   4)   -156.1606         0.012220   
    144. D(H  21,C   7,C   6,C  13)    -63.6977         0.011515   
    145. D(H  21,C   7,C   6,C   5)   -171.3678         0.011515   
    146. D(H  21,C   7,C   6,C   1)     65.3440         0.011515   
    147. D(C   8,C   7,C   6,C  13)     53.2726         0.011515   
    148. D(C   8,C   7,C   6,C   5)    -54.3975         0.011515   
    149. D(C   8,C   7,C   6,C   1)   -177.6857         0.011515   
    150. D(C  12,C   8,C   7,H  22)   -172.7326         0.011198   
    151. D(C  12,C   8,C   7,H  21)     62.9680         0.011198   
    152. D(C  12,C   8,C   7,C   6)    -54.1041         0.011198   
    153. D(C   9,C   8,C   7,H  22)    -61.7171         0.011198   
    154. D(C   9,C   8,C   7,H  21)    173.9835         0.011198   
    155. D(C   9,C   8,C   7,C   6)     56.9114         0.011198   
    156. D(C  10,C   9,C   8,H  23)     78.1119         0.008356   
    157. D(C  10,C   9,C   8,C  12)    -52.3096         0.008356   
    158. D(C   5,C   9,C   8,H  23)   -163.2411         0.008356   
    159. D(C   5,C   9,C   8,C  12)     66.3373         0.008356   
    160. D(C   5,C   9,C   8,C   7)    -36.5907         0.008356   
    161. D(C  11,C   9,C   5,C   4)     74.3339         0.011728   
    162. D(C  10,C   9,C   5,C   6)    119.9950         0.011728   
    163. D(C  10,C   9,C   8,C   7)   -155.2377         0.008356   
    164. D(C  10,C   9,C   5,C   4)    -48.6896         0.011728   
    165. D(C   8,C   9,C   5,C   6)      1.1702         0.011728   
    166. D(C   8,C   9,C   5,C   4)   -167.5143         0.011728   
    167. D(H  25,C  10,C   9,C   8)    -57.2208         0.009984   
    168. D(H  25,C  10,C   9,C   5)   -167.5536         0.009984   
    169. D(H  24,C  10,C   9,C  11)    -51.5208         0.009984   
    170. D(H  24,C  10,C   9,C   8)   -176.9649         0.009984   
    171. D(H  25,C  10,C   9,C  11)     68.2232         0.009984   
    172. D(H  24,C  10,C   9,C   5)     72.7023         0.009984   
    173. D(H  28,C  11,C   9,C  10)    174.7977         0.010234   
    174. D(H  28,C  11,C   9,C   8)    -59.5905         0.010234   
    175. D(H  28,C  11,C   9,C   5)     50.0679         0.010234   
    176. D(H  27,C  11,C   9,C  10)    -64.3091         0.010234   
    177. D(H  27,C  11,C   9,C   8)     61.3027         0.010234   
    178. D(H  27,C  11,C   9,C   5)    170.9611         0.010234   
    179. D(H  30,C  12,C   8,C   9)    110.7781         0.011429   
    180. D(H  30,C  12,C   8,C   7)   -143.1003         0.011429   
    181. D(C  13,C  12,C   8,H  23)    159.6835         0.011429   
    182. D(C  13,C  12,C   8,C   9)    -69.1766         0.011429   
    183. D(C  13,C  12,C   8,C   7)     36.9450         0.011429   
    184. D(H  31,C  13,C  12,H  30)     -1.1159         0.040485   
    185. D(H  31,C  13,C  12,C   8)    178.8395         0.040485   
    186. D(C   6,C  13,C  12,H  30)    177.8236         0.040485   
    187. D(C   6,C  13,C  12,C   8)     -2.2209         0.040485   
    188. D(H  31,C  13,C   6,C   5)   -111.0482         0.011589   
    189. D(H  31,C  13,C   6,C   1)     15.8497         0.011589   
    190. D(C  12,C  13,C   6,C   7)    -33.5198         0.011589   
    191. D(C  12,C  13,C   6,C   5)     70.0525         0.011589   
    192. D(C  12,C  13,C   6,C   1)   -163.0496         0.011589   
    193. D(H  33,C  14,C   1,C   6)    173.5842         0.010184   
    194. D(H  33,C  14,C   1,C   2)    -65.2305         0.010184   
    195. D(H  33,C  14,C   1,C   0)     51.3197         0.010184   
    196. D(H  32,C  14,C   1,C   6)     53.6538         0.010184   
    197. D(H  32,C  14,C   1,C   2)    174.8391         0.010184   
    198. D(H  32,C  14,C   1,C   0)    -68.6107         0.010184   
    -----------------------------------------------------------------

Number of atoms                         .... 35
Number of degrees of freedom            .... 198


         *************************************************************
         *                GEOMETRY OPTIMIZATION CYCLE   1            *
         *************************************************************
---------------------------------
CARTESIAN COORDINATES (ANGSTROEM)
---------------------------------
  C      2.221933   -0.199446   -1.731668
  C      1.936586    0.099936   -0.242748
  C      2.093252    1.603471   -0.047518
  C      1.069745    2.453129   -0.239656
  C     -0.302798    1.962991   -0.476059
  C     -0.562785    0.661877   -0.327460
  C      0.473973   -0.325972    0.142940
  C     -0.091137   -1.618040   -0.438169
  C     -1.457685   -1.431091    0.222392
  C     -1.910348   -0.026371   -0.321391
  C     -2.922646    0.673473    0.614402
  C     -2.505317   -0.113793   -1.741724
  C     -0.978622   -1.261285    1.651562
  C      0.165973   -0.567627    1.606352
  C      2.987065   -0.641351    0.610602
  H      3.212563    0.207188   -2.031426
  H      1.449161    0.262401   -2.383534
  H      2.237188   -1.294042   -1.921190
  H      3.079591    2.014446    0.133785
  H      1.244608    3.520064   -0.189879
  H     -1.095395    2.661944   -0.708191
  H      0.444771   -2.530636   -0.082791
  H     -0.133731   -1.642002   -1.547449
  H     -2.177913   -2.263442    0.073038
  H     -3.261775    1.635678    0.174631
  H     -3.811213    0.024270    0.765847
  H     -2.477266    0.902488    1.605567
  H     -3.408196   -0.760911   -1.736283
  H     -1.785878   -0.524372   -2.477773
  H     -2.799167    0.896542   -2.098853
  H     -1.462430   -1.626935    2.550786
  H      0.748539   -0.267357    2.470025
  H      2.829765   -1.739704    0.554322
  H      4.014770   -0.417841    0.250272
  H      2.934820   -0.327682    1.674018

----------------------------
CARTESIAN COORDINATES (A.U.)
----------------------------
  NO LB      ZA    FRAG     MASS         X           Y           Z
   0 C     4.0000*   0    12.011    4.198845   -0.376898   -3.272378
   1 C     4.0000*   0    12.011    3.659617    0.188852   -0.458727
   2 C     4.0000*   0    12.011    3.955673    3.030121   -0.089796
   3 C     4.0000*   0    12.011    2.021525    4.635742   -0.452884
   4 C     4.0000*   0    12.011   -0.572205    3.709515   -0.899621
   5 C     4.0000*   0    12.011   -1.063510    1.250766   -0.618810
   6 C     4.0000*   0    12.011    0.895679   -0.615998    0.270117
   7 C     4.0000*   0    12.011   -0.172224   -3.057652   -0.828019
   8 C     4.0000*   0    12.011   -2.754625   -2.704370    0.420260
   9 C     4.0000*   0    12.011   -3.610035   -0.049834   -0.607341
  10 C     4.0000*   0    12.011   -5.523001    1.272680    1.161052
  11 C     4.0000*   0    12.011   -4.734363   -0.215038   -3.291381
  12 C     4.0000*   0    12.011   -1.849328   -2.383483    3.121000
  13 C     4.0000*   0    12.011    0.313644   -1.072660    3.035565
  14 C     4.0000*   0    12.011    5.644735   -1.211978    1.153871
  15 H     1.0000    0     1.008    6.070864    0.391529   -3.838839
  16 H     1.0000    0     1.008    2.738517    0.495866   -4.504226
  17 H     1.0000    0     1.008    4.227673   -2.445385   -3.630523
  18 H     1.0000    0     1.008    5.819584    3.806751    0.252817
  19 H     1.0000    0     1.008    2.351968    6.651957   -0.358819
  20 H     1.0000    0     1.008   -2.069997    5.030345   -1.338287
  21 H     1.0000    0     1.008    0.840495   -4.782209   -0.156452
  22 H     1.0000    0     1.008   -0.252715   -3.102934   -2.924255
  23 H     1.0000    0     1.008   -4.115659   -4.277286    0.138022
  24 H     1.0000    0     1.008   -6.163861    3.090983    0.330005
  25 H     1.0000    0     1.008   -7.202149    0.045864    1.447241
  26 H     1.0000    0     1.008   -4.681354    1.705455    3.034082
  27 H     1.0000    0     1.008   -6.440557   -1.437913   -3.281099
  28 H     1.0000    0     1.008   -3.374820   -0.990919   -4.682312
  29 H     1.0000    0     1.008   -5.289659    1.694219   -3.966257
  30 H     1.0000    0     1.008   -2.763592   -3.074462    4.820287
  31 H     1.0000    0     1.008    1.414534   -0.505232    4.667671
  32 H     1.0000    0     1.008    5.347481   -3.287564    1.047517
  33 H     1.0000    0     1.008    7.586816   -0.789605    0.472946
  34 H     1.0000    0     1.008    5.546006   -0.619229    3.163436
* core charge reduced due to ECP

--------------------------------
INTERNAL COORDINATES (ANGSTROEM)
--------------------------------
 C      0   0   0     0.000000000000     0.00000000     0.00000000
 C      1   0   0     1.545294554036     0.00000000     0.00000000
 C      2   1   0     1.524229800483   107.18989049     0.00000000
 C      3   2   1     1.344024667578   121.80354615    87.85429787
 C      4   3   2     1.476480925817   121.39574560     8.17745121
 C      5   4   3     1.335130159934   119.12426485     8.62383061
 C      6   5   4     1.507311831495   122.64760362     3.23970535
 C      7   6   5     1.525279219882   100.45335750   203.83937001
 C      8   7   6     1.529295327798    93.60925061   305.60247732
 C      6   5   4     1.513158346385   128.10594153   170.45408161
 C     10   6   5     1.546039263405   112.31185558   311.31044376
 C     10   6   5     1.542393123667   111.44551096    74.33385921
 C      9   8   7     1.516859362138    97.95742579   305.89590101
 C     13   9   8     1.339142665697   107.22476017    36.94501929
 C      2   1   3     1.543119816576   108.30385732   241.99524807
 H      1   2   3     1.112004435881   110.69458069    54.24597113
 H      1   2   3     1.111489314995   110.86693805   294.38617373
 H      1   2   3     1.110986816630   110.96395743   173.62099629
 H      3   2   1     1.083806187173   119.27581758   275.36583500
 H      4   3   2     1.082314701334   119.57626498   186.21345424
 H      5   4   3     1.081956822633   120.05892715   184.99494537
 H      8   7   6     1.116388089584   113.16230180   188.63216408
 H      8   7   6     1.110356044105   114.40031644    63.54496347
 H      9   8   7     1.110784937106   115.44935593   183.82434016
 H     11  10   6     1.110966008979   110.62980223    72.70231939
 H     11  10   6     1.110833667442   109.98196991   192.44638559
 H     11  10   6     1.110504062059   111.77655597   313.21216911
 H     12  10   6     1.110847333816   110.00087458   170.96106924
 H     12  10   6     1.108122610708   112.47158969    50.06789688
 H     12  10   6     1.111155145498   110.26994385   290.51672265
 H     13   9   8     1.084607719657   127.05127262   216.89973107
 H     14  13   9     1.084193833309   125.15769227   178.83953901
 H     15   2   1     1.110986066973   110.51918888   291.38934288
 H     15   2   1     1.111742774218   110.70018831    51.31972594
 H     15   2   1     1.109942057335   111.22454435   170.50331482

---------------------------
INTERNAL COORDINATES (A.U.)
---------------------------
 C      0   0   0     0.000000000000     0.00000000     0.00000000
 C      1   0   0     2.920183503368     0.00000000     0.00000000
 C      2   1   0     2.880376888075   107.18989049     0.00000000
 C      3   2   1     2.539838538956   121.80354615    87.85429787
 C      4   3   2     2.790144591753   121.39574560     8.17745121
 C      5   4   3     2.523030355414   119.12426485     8.62383061
 C      6   5   4     2.848406559945   122.64760362     3.23970535
 C      7   6   5     2.882360003339   100.45335750   203.83937001
 C      8   7   6     2.889949347424    93.60925061   305.60247732
 C      6   5   4     2.859454871924   128.10594153   170.45408161
 C     10   6   5     2.921590800124   112.31185558   311.31044376
 C     10   6   5     2.914700594573   111.44551096    74.33385921
 C      9   8   7     2.866448778115    97.95742579   305.89590101
 C     13   9   8     2.530612892416   107.22476017    36.94501929
 C      2   1   3     2.916073845156   108.30385732   241.99524807
 H      1   2   3     2.101383843522   110.69458069    54.24597113
 H      1   2   3     2.100410406121   110.86693805   294.38617373
 H      1   2   3     2.099460821827   110.96395743   173.62099629
 H      3   2   1     2.048096876007   119.27581758   275.36583500
 H      4   3   2     2.045278376237   119.57626498   186.21345424
 H      5   4   3     2.044602083504   120.05892715   184.99494537
 H      8   7   6     2.109667748484   113.16230180   188.63216408
 H      8   7   6     2.098268834502   114.40031644    63.54496347
 H      9   8   7     2.099079324815   115.44935593   183.82434016
 H     11  10   6     2.099421501066   110.62980223    72.70231939
 H     11  10   6     2.099171411805   109.98196991   192.44638559
 H     11  10   6     2.098548547899   111.77655597   313.21216911
 H     12  10   6     2.099197237509   110.00087458   170.96106924
 H     12  10   6     2.094048257045   112.47158969    50.06789688
 H     12  10   6     2.099778917288   110.26994385   290.51672265
 H     13   9   8     2.049611552889   127.05127262   216.89973107
 H     14  13   9     2.048829421040   125.15769227   178.83953901
 H     15   2   1     2.099459405182   110.51918888   291.38934288
 H     15   2   1     2.100889374637   110.70018831    51.31972594
 H     15   2   1     2.097486512885   111.22454435   170.50331482

---------------------
BASIS SET INFORMATION
---------------------
There are 2 groups of distinct atoms

 Group   1 Type C   : 6s6p2d contracted to 2s2p1d pattern {42/42/2}
 Group   2 Type H   : 8s2p contracted to 2s1p pattern {53/2}

Atom   0C    basis set group =>   1
Atom   1C    basis set group =>   1
Atom   2C    basis set group =>   1
Atom   3C    basis set group =>   1
Atom   4C    basis set group =>   1
Atom   5C    basis set group =>   1
Atom   6C    basis set group =>   1
Atom   7C    basis set group =>   1
Atom   8C    basis set group =>   1
Atom   9C    basis set group =>   1
Atom  10C    basis set group =>   1
Atom  11C    basis set group =>   1
Atom  12C    basis set group =>   1
Atom  13C    basis set group =>   1
Atom  14C    basis set group =>   1
Atom  15H    basis set group =>   2
Atom  16H    basis set group =>   2
Atom  17H    basis set group =>   2
Atom  18H    basis set group =>   2
Atom  19H    basis set group =>   2
Atom  20H    basis set group =>   2
Atom  21H    basis set group =>   2
Atom  22H    basis set group =>   2
Atom  23H    basis set group =>   2
Atom  24H    basis set group =>   2
Atom  25H    basis set group =>   2
Atom  26H    basis set group =>   2
Atom  27H    basis set group =>   2
Atom  28H    basis set group =>   2
Atom  29H    basis set group =>   2
Atom  30H    basis set group =>   2
Atom  31H    basis set group =>   2
Atom  32H    basis set group =>   2
Atom  33H    basis set group =>   2
Atom  34H    basis set group =>   2
---------------------------------
AUXILIARY/J BASIS SET INFORMATION
---------------------------------
There are 2 groups of distinct atoms

 Group   1 Type C   : 12s5p4d2f1g contracted to 6s4p3d1f1g pattern {711111/2111/211/2/1}
 Group   2 Type H   : 5s2p1d contracted to 3s1p1d pattern {311/2/1}

Atom   0C    basis set group =>   1
Atom   1C    basis set group =>   1
Atom   2C    basis set group =>   1
Atom   3C    basis set group =>   1
Atom   4C    basis set group =>   1
Atom   5C    basis set group =>   1
Atom   6C    basis set group =>   1
Atom   7C    basis set group =>   1
Atom   8C    basis set group =>   1
Atom   9C    basis set group =>   1
Atom  10C    basis set group =>   1
Atom  11C    basis set group =>   1
Atom  12C    basis set group =>   1
Atom  13C    basis set group =>   1
Atom  14C    basis set group =>   1
Atom  15H    basis set group =>   2
Atom  16H    basis set group =>   2
Atom  17H    basis set group =>   2
Atom  18H    basis set group =>   2
Atom  19H    basis set group =>   2
Atom  20H    basis set group =>   2
Atom  21H    basis set group =>   2
Atom  22H    basis set group =>   2
Atom  23H    basis set group =>   2
Atom  24H    basis set group =>   2
Atom  25H    basis set group =>   2
Atom  26H    basis set group =>   2
Atom  27H    basis set group =>   2
Atom  28H    basis set group =>   2
Atom  29H    basis set group =>   2
Atom  30H    basis set group =>   2
Atom  31H    basis set group =>   2
Atom  32H    basis set group =>   2
Atom  33H    basis set group =>   2
Atom  34H    basis set group =>   2
-------------------------
ECP PARAMETER INFORMATION
-------------------------

 Group 1, Type C  ECP vDZP-ECP (replacing 2 core electrons, lmax=3)

Atom   0C    ECP group =>   1
Atom   1C    ECP group =>   1
Atom   2C    ECP group =>   1
Atom   3C    ECP group =>   1
Atom   4C    ECP group =>   1
Atom   5C    ECP group =>   1
Atom   6C    ECP group =>   1
Atom   7C    ECP group =>   1
Atom   8C    ECP group =>   1
Atom   9C    ECP group =>   1
Atom  10C    ECP group =>   1
Atom  11C    ECP group =>   1
Atom  12C    ECP group =>   1
Atom  13C    ECP group =>   1
Atom  14C    ECP group =>   1



           ************************************************************
           *        Program running with 40 parallel MPI-processes    *
           *              working on a common directory               *
           ************************************************************
------------------------------------------------------------------------------
                             ORCA STARTUP CALCULATIONS
                           -- RI-GTO INTEGRALS CHOSEN --
------------------------------------------------------------------------------
------------------------------------------------------------------------------
                   ___                                                        
                  /   \      - P O W E R E D   B Y -                         
                 /     \                                                     
                 |  |  |   _    _      __       _____    __    __             
                 |  |  |  | |  | |    /  \     |  _  \  |  |  /  |          
                  \  \/   | |  | |   /    \    | | | |  |  | /  /          
                 / \  \   | |__| |  /  /\  \   | |_| |  |  |/  /          
                |  |  |   |  __  | /  /__\  \  |    /   |      \           
                |  |  |   | |  | | |   __   |  |    \   |  |\   \          
                \     /   | |  | | |  |  |  |  | |\  \  |  | \   \       
                 \___/    |_|  |_| |__|  |__|  |_| \__\ |__|  \__/        
                                                                              
                      - O R C A' S   B I G   F R I E N D -                    
                                      &                                       
                       - I N T E G R A L  F E E D E R -                       
                                                                              
 v1 FN, 2020, v2 2021, v3 2022-2024                                           
------------------------------------------------------------------------------


----------------------
SHARK INTEGRAL PACKAGE
----------------------

Number of atoms                             ...     35
Number of basis functions                   ...    295
Number of shells                            ...    135
Maximum angular momentum                    ...      2
Integral batch strategy                     ... SHARK/LIBINT Hybrid
RI-J (if used) integral strategy            ... SPLIT-RIJ (Revised 2003 algorithm where possible)
Printlevel                                  ...      1
Contraction scheme used                     ... SEGMENTED contraction
Prescreening option                         ... SCHWARTZ
   Thresh                                   ... 2.500e-11
   Tcut                                     ... 2.500e-12
   Tpresel                                  ... 2.500e-12 
Coulomb Range Separation                    ... NOT USED
Exchange Range Separation                   ... Long Range
   Mu parameter                             ... 3.000e-01
   Scaling (regular/separated)              ... 1.670e-01 8.330e-01
Multipole approximations                    ... NOT USED
Finite Nucleus Model                        ... NOT USED
CABS basis                                  ... NOT available
Auxiliary Coulomb fitting basis             ... AVAILABLE
   # of basis functions in Aux-J            ...    955
   # of shells in Aux-J                     ...    325
   Maximum angular momentum in Aux-J        ...      4
Auxiliary J/K fitting basis                 ... NOT available
Auxiliary Correlation fitting basis         ... NOT available
Auxiliary 'external' fitting basis          ... NOT available

Checking pre-screening integrals            ... done (  0.0 sec) Dimension = 135
Check shell pair data                       ... done (  0.0 sec)
Shell pair information
Shell pair cut-off parameter TPreSel        ...   2.5e-12
Total number of shell pairs                 ...      9180
Shell pairs after pre-screening             ...      9176
Total number of primitive shell pairs       ...     84760
Primitive shell pairs kept                  ...     67890
          la=0 lb=0:   2485 shell pairs
          la=1 lb=0:   3498 shell pairs
          la=1 lb=1:   1273 shell pairs
          la=2 lb=0:   1050 shell pairs
          la=2 lb=1:    750 shell pairs
          la=2 lb=2:    120 shell pairs

Calculating one electron integrals          ... done (  0.0 sec)
Calculating ECP integrals                   ... done (  0.2 sec)
Calculating RI/J V-Matrix + Cholesky decomp.... done (  0.0 sec)
Calculating Nuclear repulsion               ... done (  0.0 sec) ENN=    553.715110471467 Eh

Diagonalization of the overlap matrix:
Smallest eigenvalue                        ... 5.349e-04
Time for diagonalization                   ...    0.012 sec
Threshold for overlap eigenvalues          ... 1.000e-07
Number of eigenvalues below threshold      ... 0
Time for construction of square roots      ...    0.007 sec
Total time needed                          ...    0.022 sec

-------------------
DFT GRID GENERATION
-------------------

General Integration Accuracy     IntAcc      ... 4.388
Radial Grid Type                 RadialGrid  ... OptM3 with GC (2021)
Angular Grid (max. ang.)         AngularGrid ... 4 (Lebedev-302)
Angular grid pruning method      GridPruning ... 4 (adaptive)
Weight generation scheme         WeightScheme... mBecke (2022)
Basis function cutoff            BFCut       ... 1.0000e-11
Integration weight cutoff        WCut        ... 1.0000e-14
Partially contracted basis set               ... off
Rotationally invariant grid construction     ... off
Angular grids for H and He will be reduced by one unit

Total number of grid points                  ...   151925
Total number of batches                      ...     2390
Average number of points per batch           ...       63
Average number of grid points per atom       ...     4341

--------------------
COSX GRID GENERATION
--------------------

GRIDX 1
-------
General Integration Accuracy     IntAcc      ... 3.816
Radial Grid Type                 RadialGrid  ... OptM3 with GC (2021)
Angular Grid (max. ang.)         AngularGrid ... 1 (Lebedev-50)
Angular grid pruning method      GridPruning ... 4 (adaptive)
Weight generation scheme         WeightScheme... mBecke (2022)
Basis function cutoff            BFCut       ... 1.0000e-11
Integration weight cutoff        WCut        ... 1.0000e-14
Partially contracted basis set               ... on
Rotationally invariant grid construction     ... off
Angular grids for H and He will be reduced by one unit

Total number of grid points                  ...    19359
Total number of batches                      ...      169
Average number of points per batch           ...      114
Average number of grid points per atom       ...      553
UseSFitting                                  ... on

GRIDX 2
-------
General Integration Accuracy     IntAcc      ... 4.020
Radial Grid Type                 RadialGrid  ... OptM3 with GC (2021)
Angular Grid (max. ang.)         AngularGrid ... 2 (Lebedev-110)
Angular grid pruning method      GridPruning ... 4 (adaptive)
Weight generation scheme         WeightScheme... mBecke (2022)
Basis function cutoff            BFCut       ... 1.0000e-11
Integration weight cutoff        WCut        ... 1.0000e-14
Partially contracted basis set               ... on
Rotationally invariant grid construction     ... off
Angular grids for H and He will be reduced by one unit

Total number of grid points                  ...    40435
Total number of batches                      ...      335
Average number of points per batch           ...      120
Average number of grid points per atom       ...     1155
UseSFitting                                  ... on

GRIDX 3
-------
General Integration Accuracy     IntAcc      ... 4.338
Radial Grid Type                 RadialGrid  ... OptM3 with GC (2021)
Angular Grid (max. ang.)         AngularGrid ... 3 (Lebedev-194)
Angular grid pruning method      GridPruning ... 4 (adaptive)
Weight generation scheme         WeightScheme... mBecke (2022)
Basis function cutoff            BFCut       ... 1.0000e-11
Integration weight cutoff        WCut        ... 1.0000e-14
Partially contracted basis set               ... on
Rotationally invariant grid construction     ... off
Angular grids for H and He will be reduced by one unit

Total number of grid points                  ...    87954
Total number of batches                      ...      704
Average number of points per batch           ...      124
Average number of grid points per atom       ...     2513
UseSFitting                                  ... on
Initializing property integral containers    ... done (  0.0 sec)

SHARK setup successfully completed in   5.0 seconds

Maximum memory used throughout the entire STARTUP-calculation: 47.1 MB


           ************************************************************
           *        Program running with 40 parallel MPI-processes    *
           *              working on a common directory               *
           ************************************************************
-------------------------------------------------------------------------------
                                 ORCA GUESS
                   Start orbitals & Density for SCF / CASSCF
-------------------------------------------------------------------------------

------------
SCF SETTINGS
------------
Hamiltonian:
 Density Functional     Method          .... DFT(GTOs)
 Exchange Functional    Exchange        .... WB97X-V
 Correlation Functional Correlation     .... WB97X-V
 Gradients option       PostSCFGGA      .... off
 Hybrid DFT is turned on
   Fraction HF Exchange ScalHFX         ....  0.167000
   Scaling of DF-GGA-X  ScalDFX         ....  0.000000
   Scaling of DF-GGA-C  ScalDFC         ....  1.000000
   Scaling of DF-LDA-C  ScalLDAC        ....  1.000000
   Perturbative correction              ....  0.000000
 Long-range corrected/Screened/Range-Separated Hybrid DFT is turned on
   Amount of maximum screened exact exchange              ....  0.833000
   Range separation parameter mu (erf(mu*r12)/r12)        ....  0.300000
   NL short-range parameter             ....  6.000000
   NL long-range parameter              ....  0.010000
 RI-approximation to the Coulomb term is turned on
   Number of AuxJ basis functions       .... 955
   RIJ-COSX (HFX calculated with COS-X)).... on


General Settings:
 Integral files         IntName         .... ./output/4_5_9_10_dehydro_isolongifolene/4_5_9_10_dehydro_isolongifolene
 Hartree-Fock type      HFTyp           .... RHF
 Total Charge           Charge          ....    0
 Multiplicity           Mult            ....    1
 Number of Electrons    NEL             ....   80
 Basis Dimension        Dim             ....  295
 Nuclear Repulsion      ENuc            ....    553.7151104715 Eh

Convergence Acceleration:
 AO-DIIS                CNVDIIS         .... on
   Start iteration      DIISMaxIt       ....    12
   Startup error        DIISStart       ....  0.200000
   # of expansion vecs  DIISMaxEq       ....     5
   Bias factor          DIISBfac        ....   1.050
   Max. coefficient     DIISMaxC        ....  10.000
 MO-DIIS                CNVKDIIS        .... off
 Trust-Rad. Augm. Hess. CNVTRAH         .... auto
   Auto Start mean grad. ratio tolernc. ....  1.125000
   Auto Start start iteration           ....    50
   Auto Start num. interpolation iter.  ....    10
   Max. Number of Micro iterations      ....    24
   Max. Number of Macro iterations      .... Maxiter - #DIIS iter
   Number of Davidson start vectors     ....     2
   Converg. threshold    (grad. norm)   ....   1.000e-05
   Grad. Scal. Fac. for Micro threshold ....   0.100
   Minimum threshold for Micro iter.    ....   1.000e-02
   NR start threshold (gradient norm)   ....   1.000e-04
   Initial trust radius                 ....   0.400
   Minimum AH scaling param. (alpha)    ....   1.000
   Maximum AH scaling param. (alpha)    .... 1000.000
   Quad. conv. algorithm                .... NR
   White noise on init. David. guess    .... on
   Maximum white noise                  ....   0.010
   Pseudo random numbers                .... off
   Inactive MOs                         .... canonical
   Orbital update algorithm             .... Taylor
   Preconditioner                       .... Diag
   Full preconditioner red. dimension   ....   250
 SOSCF                  CNVSOSCF        .... on
   Start iteration      SOSCFMaxIt      ....   150
   Startup grad/error   SOSCFStart      ....  0.003300
   Hessian update       SOSCFHessUp     .... L-BFGS
 Level Shifting         CNVShift        .... on
   Level shift para.    LevelShift      ....    0.2500
   Turn off err/grad.   ShiftErr        ....    0.0010
 Zerner damping         CNVZerner       .... off
 Static damping         CNVDamp         .... on
   Fraction old density DampFac         ....    0.7000
   Max. Damping (<1)    DampMax         ....    0.9800
   Min. Damping (>=0)   DampMin         ....    0.0000
   Turn off err/grad.   DampErr         ....    0.1000

SCF Procedure:
 Maximum # iterations   MaxIter         ....   125
 SCF integral mode      SCFMode         .... Direct
   Integral package                     .... SHARK and LIBINT hybrid scheme
 Reset frequency        DirectResetFreq ....    20
 Integral Threshold     Thresh          ....  2.500e-11 Eh
 Primitive CutOff       TCut            ....  2.500e-12 Eh

Convergence Tolerance:
 Convergence Check Mode ConvCheckMode   .... Total+1el-Energy
 Convergence forced     ConvForced      .... 0
 Energy Change          TolE            ....  1.000e-08 Eh
 1-El. energy change                    ....  1.000e-05 Eh
 Orbital Gradient       TolG            ....  1.000e-05
 Orbital Rotation angle TolX            ....  1.000e-05
 DIIS Error             TolErr          ....  5.000e-07

------------------------------
INITIAL GUESS: MODEL POTENTIAL
------------------------------
Loading Hartree-Fock densities                     ... done
Atomic calculation to generate a density for atom 0 (C  with ECP)
  Multiplicity assumed   :    1
  Atomic configuration   : 1s2 2s2 2p2 
  Number of open shells  : 1
  Command: /home/aspe232/Project/Software/ORCA/6_0_1/build/orca ./output/4_5_9_10_dehydro_isolongifolene/4_5_9_10_dehydro_isolongifolene_atom6.inp "" > ./output/4_5_9_10_dehydro_isolongifolene/4_5_9_10_dehydro_isolongifolene_atom6.out
Returned from the atomic calculation with res=0
Calculating cut-offs                               ... done
Initializing the effective Hamiltonian             ... done
Setting up the integral package (SHARK)            ... done
Starting the Coulomb interaction                   ... done (   0.1 sec)
Making the grid                                    ... done (   0.9 sec)
Mapping shells                                     ... done
Starting the XC term evaluation                    ... done (   0.1 sec)
  promolecular density results
     # of electrons  =    109.994522651
     EX              =    -54.902156848
     EC              =     -4.450083253
     EX+EC           =    -59.352240101
Transforming the Hamiltonian                       ... done (   0.0 sec)
Diagonalizing the Hamiltonian                      ... done (   0.0 sec)
Back transforming the eigenvectors                 ... done (   0.0 sec)
Now organizing SCF variables                       ... done
                      ------------------
                      INITIAL GUESS DONE (   2.2 sec)
                      ------------------
             **** ENERGY FILE WAS UPDATED (./output/4_5_9_10_dehydro_isolongifolene/4_5_9_10_dehydro_isolongifolene.en.tmp) ****
Finished Guess after   3.0 sec
Maximum memory used throughout the entire GUESS-calculation: 31.2 MB


           ************************************************************
           *        Program running with 40 parallel MPI-processes    *
           *              working on a common directory               *
           ************************************************************

-------------------------------------------------------------------------------------------
                                      ORCA LEAN-SCF
                              memory conserving SCF solver
-------------------------------------------------------------------------------------------

----------------------------------------D-I-I-S--------------------------------------------
Iteration    Energy (Eh)           Delta-E    RMSDP     MaxDP     DIISErr   Damp  Time(sec)
-------------------------------------------------------------------------------------------
               ***  Starting incremental Fock matrix formation  ***
    1    -96.8017992967024838     0.00e+00  3.75e-03  7.74e-02  1.90e-01  0.700   7.8
    2    -97.0465246493132554    -2.45e-01  2.76e-03  5.93e-02  1.14e-01  0.700   5.9
                               ***Turning on AO-DIIS***
    3    -97.1725946382649681    -1.26e-01  1.51e-03  3.64e-02  5.91e-02  0.700   5.1
    4    -97.2471616846856932    -7.46e-02  3.35e-03  7.84e-02  3.74e-02  0.000   5.9
    5    -97.4045505632425375    -1.57e-01  2.47e-04  6.61e-03  6.47e-03  0.000   5.5
                              *** Initializing SOSCF ***
---------------------------------------S-O-S-C-F--------------------------------------
Iteration    Energy (Eh)           Delta-E    RMSDP     MaxDP     MaxGrad    Time(sec)
--------------------------------------------------------------------------------------
    6    -97.4050530406046846    -5.02e-04  1.13e-04  2.50e-03  2.57e-03     5.3
               *** Restarting incremental Fock matrix formation ***
    7    -97.4052164334403869    -1.63e-04  7.16e-05  1.39e-03  6.35e-04     8.0
    8    -97.4052372061573806    -2.08e-05  5.37e-05  1.21e-03  4.96e-04     6.6
    9    -97.4052407372064408    -3.53e-06  2.18e-05  4.23e-04  1.95e-04     6.6
   10    -97.4052424295210812    -1.69e-06  3.28e-06  6.08e-05  1.88e-05     6.6
   11    -97.4052424315418648    -2.02e-09  9.27e-07  3.11e-05  8.08e-06     5.7
                 **** Energy Check signals convergence ****

               *****************************************************
               *                     SUCCESS                       *
               *           SCF CONVERGED AFTER  11 CYCLES          *
               *****************************************************

Recomputing exchange energy using gridx3       ... done (    8.390 sec)
Old exchange energy                            :    -15.148998338 Eh
New exchange energy                            :    -15.148969095 Eh
Exchange energy change after final integration :      0.000029243 Eh
Total energy after final integration           :    -97.405213189 Eh
             **** ENERGY FILE WAS UPDATED (./output/4_5_9_10_dehydro_isolongifolene/4_5_9_10_dehydro_isolongifolene.en.tmp) ****

----------------
TOTAL SCF ENERGY
----------------

Total Energy       :        -97.40521318874291 Eh           -2650.53060 eV

Components:
Nuclear Repulsion  :        553.71511047146748 Eh           15067.35417 eV
Electronic Energy  :       -651.12035290300935 Eh          -17717.88556 eV
One Electron Energy:      -1243.73926289268707 Eh          -33843.86593 eV
Two Electron Energy:        592.61890998967772 Eh           16125.98037 eV

Virial components:
Potential Energy   :       -172.93402804644251 Eh           -4705.77414 eV
Kinetic Energy     :         75.52881485769959 Eh            2055.24354 eV
Virial Ratio       :          2.28964307691389

DFT components:
N(Alpha)           :       39.999945708553 electrons
N(Beta)            :       39.999945708553 electrons
N(Total)           :       79.999891417106 electrons
E(X)               :      -15.452530864263 Eh       
E(C)               :       -3.020324925798 Eh       
E(XC)              :      -18.472855790061 Eh       

---------------
SCF CONVERGENCE
---------------

  Last Energy change         ...    2.0208e-09  Tolerance :   1.0000e-08
  Last MAX-Density change    ...    3.1141e-05  Tolerance :   1.0000e-07
  Last RMS-Density change    ...    9.2701e-07  Tolerance :   5.0000e-09
  Last DIIS Error            ...    2.5651e-03  Tolerance :   5.0000e-07
  Last Orbital Gradient      ...    8.0823e-06  Tolerance :   1.0000e-05
  Last Orbital Rotation      ...    2.7830e-05  Tolerance :   1.0000e-05


----------------
ORBITAL ENERGIES
----------------

  NO   OCC          E(Eh)            E(eV) 
   0   2.0000      -1.050302       -28.5802 
   1   2.0000      -0.968622       -26.3575 
   2   2.0000      -0.938105       -25.5271 
   3   2.0000      -0.901708       -24.5367 
   4   2.0000      -0.864561       -23.5259 
   5   2.0000      -0.846892       -23.0451 
   6   2.0000      -0.814174       -22.1548 
   7   2.0000      -0.808710       -22.0061 
   8   2.0000      -0.803422       -21.8622 
   9   2.0000      -0.766005       -20.8441 
  10   2.0000      -0.716978       -19.5100 
  11   2.0000      -0.692742       -18.8505 
  12   2.0000      -0.661390       -17.9973 
  13   2.0000      -0.645903       -17.5759 
  14   2.0000      -0.633003       -17.2249 
  15   2.0000      -0.596618       -16.2348 
  16   2.0000      -0.582480       -15.8501 
  17   2.0000      -0.566207       -15.4073 
  18   2.0000      -0.551189       -14.9986 
  19   2.0000      -0.545507       -14.8440 
  20   2.0000      -0.542443       -14.7606 
  21   2.0000      -0.519207       -14.1284 
  22   2.0000      -0.515320       -14.0226 
  23   2.0000      -0.510533       -13.8923 
  24   2.0000      -0.498902       -13.5758 
  25   2.0000      -0.495905       -13.4943 
  26   2.0000      -0.484119       -13.1735 
  27   2.0000      -0.480896       -13.0858 
  28   2.0000      -0.471195       -12.8219 
  29   2.0000      -0.462658       -12.5896 
  30   2.0000      -0.454177       -12.3588 
  31   2.0000      -0.440364       -11.9829 
  32   2.0000      -0.433031       -11.7834 
  33   2.0000      -0.432251       -11.7621 
  34   2.0000      -0.424738       -11.5577 
  35   2.0000      -0.410826       -11.1791 
  36   2.0000      -0.400140       -10.8884 
  37   2.0000      -0.395357       -10.7582 
  38   2.0000      -0.338405        -9.2085 
  39   2.0000      -0.298717        -8.1285 
  40   0.0000       0.048897         1.3306 
  41   0.0000       0.086515         2.3542 
  42   0.0000       0.093948         2.5565 
  43   0.0000       0.096431         2.6240 
  44   0.0000       0.098518         2.6808 
  45   0.0000       0.107647         2.9292 
  46   0.0000       0.115944         3.1550 
  47   0.0000       0.122285         3.3275 
  48   0.0000       0.125419         3.4128 
  49   0.0000       0.128022         3.4837 
  50   0.0000       0.141498         3.8504 
*Only the first 10 virtual orbitals were printed.

                    ********************************
                    * MULLIKEN POPULATION ANALYSIS *
                    ********************************

-----------------------
MULLIKEN ATOMIC CHARGES
-----------------------
   0 C :   -0.028652
   1 C :   -0.195384
   2 C :    0.053307
   3 C :   -0.039381
   4 C :   -0.036579
   5 C :    0.089643
   6 C :   -0.208757
   7 C :    0.000792
   8 C :   -0.029109
   9 C :   -0.224115
  10 C :   -0.027889
  11 C :   -0.021280
  12 C :   -0.026417
  13 C :    0.058113
  14 C :   -0.029946
  15 H :    0.039320
  16 H :    0.048649
  17 H :    0.034596
  18 H :    0.015450
  19 H :    0.015320
  20 H :    0.013701
  21 H :    0.049836
  22 H :    0.029017
  23 H :    0.047256
  24 H :    0.032644
  25 H :    0.036126
  26 H :    0.053778
  27 H :    0.033828
  28 H :    0.028061
  29 H :    0.037680
  30 H :    0.023915
  31 H :    0.020182
  32 H :    0.034451
  33 H :    0.036126
  34 H :    0.035719
Sum of atomic charges:   -0.0000000

--------------------------------
MULLIKEN REDUCED ORBITAL CHARGES
--------------------------------
  0 C s       :     0.951023  s :     0.951023
      pz      :     0.947915  p :     3.003633
      px      :     1.034343
      py      :     1.021376
      dz2     :     0.017138  d :     0.073996
      dxz     :     0.018265
      dyz     :     0.012860
      dx2y2   :     0.017755
      dxy     :     0.007978

  1 C s       :     1.063843  s :     1.063843
      pz      :     1.004262  p :     2.987509
      px      :     0.998688
      py      :     0.984560
      dz2     :     0.032659  d :     0.144032
      dxz     :     0.026800
      dyz     :     0.026348
      dx2y2   :     0.033353
      dxy     :     0.024872

  2 C s       :     1.007862  s :     1.007862
      pz      :     0.966684  p :     2.847330
      px      :     0.974086
      py      :     0.906559
      dz2     :     0.005908  d :     0.091501
      dxz     :     0.010434
      dyz     :     0.017913
      dx2y2   :     0.031153
      dxy     :     0.026094

  3 C s       :     1.012633  s :     1.012633
      pz      :     0.964399  p :     2.931667
      px      :     0.989618
      py      :     0.977649
      dz2     :     0.006467  d :     0.095081
      dxz     :     0.022183
      dyz     :     0.007465
      dx2y2   :     0.036987
      dxy     :     0.021979

  4 C s       :     0.990882  s :     0.990882
      pz      :     1.000938  p :     2.953880
      px      :     0.957396
      py      :     0.995546
      dz2     :     0.005157  d :     0.091818
      dxz     :     0.012413
      dyz     :     0.016239
      dx2y2   :     0.022660
      dxy     :     0.035349

  5 C s       :     0.995749  s :     0.995749
      pz      :     0.925073  p :     2.793336
      px      :     0.904319
      py      :     0.963943
      dz2     :     0.010914  d :     0.121272
      dxz     :     0.013759
      dyz     :     0.026111
      dx2y2   :     0.031725
      dxy     :     0.038763

  6 C s       :     1.028088  s :     1.028088
      pz      :     1.019870  p :     3.029017
      px      :     1.001467
      py      :     1.007680
      dz2     :     0.034368  d :     0.151651
      dxz     :     0.027252
      dyz     :     0.026606
      dx2y2   :     0.028985
      dxy     :     0.034441

  7 C s       :     0.994841  s :     0.994841
      pz      :     1.003419  p :     2.900368
      px      :     0.934050
      py      :     0.962899
      dz2     :     0.033197  d :     0.104000
      dxz     :     0.014963
      dyz     :     0.012368
      dx2y2   :     0.020478
      dxy     :     0.022994

  8 C s       :     1.027620  s :     1.027620
      pz      :     0.946909  p :     2.878886
      px      :     0.958589
      py      :     0.973389
      dz2     :     0.029807  d :     0.122602
      dxz     :     0.022894
      dyz     :     0.019472
      dx2y2   :     0.019293
      dxy     :     0.031136

  9 C s       :     1.081456  s :     1.081456
      pz      :     1.019859  p :     2.997412
      px      :     0.983143
      py      :     0.994411
      dz2     :     0.031039  d :     0.145247
      dxz     :     0.030044
      dyz     :     0.025947
      dx2y2   :     0.027395
      dxy     :     0.030822

 10 C s       :     0.947463  s :     0.947463
      pz      :     1.008257  p :     3.007435
      px      :     0.988037
      py      :     1.011141
      dz2     :     0.017868  d :     0.072992
      dxz     :     0.013416
      dyz     :     0.011551
      dx2y2   :     0.011278
      dxy     :     0.018879

 11 C s       :     0.952291  s :     0.952291
      pz      :     0.952181  p :     2.995439
      px      :     1.010266
      py      :     1.032992
      dz2     :     0.016959  d :     0.073550
      dxz     :     0.017519
      dyz     :     0.013814
      dx2y2   :     0.008912
      dxy     :     0.016347

 12 C s       :     1.043717  s :     1.043717
      pz      :     0.935297  p :     2.889638
      px      :     0.979955
      py      :     0.974386
      dz2     :     0.020578  d :     0.093062
      dxz     :     0.028317
      dyz     :     0.015559
      dx2y2   :     0.016350
      dxy     :     0.012257

 13 C s       :     1.013734  s :     1.013734
      pz      :     0.929000  p :     2.836855
      px      :     0.974268
      py      :     0.933587
      dz2     :     0.019981  d :     0.091298
      dxz     :     0.027176
      dyz     :     0.016252
      dx2y2   :     0.017361
      dxy     :     0.010528

 14 C s       :     0.947952  s :     0.947952
      pz      :     1.001983  p :     3.008211
      px      :     0.991409
      py      :     1.014819
      dz2     :     0.023735  d :     0.073782
      dxz     :     0.010610
      dyz     :     0.007137
      dx2y2   :     0.024358
      dxy     :     0.007942

 15 H s       :     0.917581  s :     0.917581
      pz      :     0.010496  p :     0.043099
      px      :     0.020653
      py      :     0.011950

 16 H s       :     0.908045  s :     0.908045
      pz      :     0.014176  p :     0.043306
      px      :     0.016756
      py      :     0.012373

 17 H s       :     0.921709  s :     0.921709
      pz      :     0.009991  p :     0.043695
      px      :     0.010464
      py      :     0.023240

 18 H s       :     0.935368  s :     0.935368
      pz      :     0.014621  p :     0.049183
      px      :     0.022819
      py      :     0.011742

 19 H s       :     0.935548  s :     0.935548
      pz      :     0.014282  p :     0.049132
      px      :     0.010141
      py      :     0.024709

 20 H s       :     0.935888  s :     0.935888
      pz      :     0.015743  p :     0.050411
      px      :     0.018531
      py      :     0.016136

 21 H s       :     0.908543  s :     0.908543
      pz      :     0.010327  p :     0.041621
      px      :     0.012632
      py      :     0.018662

 22 H s       :     0.927574  s :     0.927574
      pz      :     0.024243  p :     0.043409
      px      :     0.010286
      py      :     0.008881

 23 H s       :     0.911972  s :     0.911972
      pz      :     0.009133  p :     0.040772
      px      :     0.014883
      py      :     0.016755

 24 H s       :     0.923762  s :     0.923762
      pz      :     0.011804  p :     0.043595
      px      :     0.011536
      py      :     0.020254

 25 H s       :     0.920897  s :     0.920897
      pz      :     0.010123  p :     0.042977
      px      :     0.018872
      py      :     0.013982

 26 H s       :     0.901975  s :     0.901975
      pz      :     0.021326  p :     0.044246
      px      :     0.012090
      py      :     0.010830

 27 H s       :     0.923124  s :     0.923124
      pz      :     0.009281  p :     0.043048
      px      :     0.019180
      py      :     0.014587

 28 H s       :     0.927589  s :     0.927589
      pz      :     0.016322  p :     0.044350
      px      :     0.015742
      py      :     0.012286

 29 H s       :     0.919100  s :     0.919100
      pz      :     0.011120  p :     0.043220
      px      :     0.011074
      py      :     0.021026

 30 H s       :     0.927300  s :     0.927300
      pz      :     0.020640  p :     0.048785
      px      :     0.013689
      py      :     0.014455

 31 H s       :     0.929018  s :     0.929018
      pz      :     0.020270  p :     0.050799
      px      :     0.016172
      py      :     0.014357

 32 H s       :     0.922323  s :     0.922323
      pz      :     0.009811  p :     0.043225
      px      :     0.009900
      py      :     0.023515

 33 H s       :     0.920802  s :     0.920802
      pz      :     0.011150  p :     0.043072
      px      :     0.021690
      py      :     0.010232

 34 H s       :     0.920630  s :     0.920630
      pz      :     0.022648  p :     0.043651
      px      :     0.010287
      py      :     0.010715



                     *******************************
                     * LOEWDIN POPULATION ANALYSIS *
                     *******************************

----------------------
LOEWDIN ATOMIC CHARGES
----------------------
   0 C :   -0.106347
   1 C :   -0.069402
   2 C :   -0.031972
   3 C :   -0.053232
   4 C :   -0.055670
   5 C :   -0.000193
   6 C :   -0.051034
   7 C :   -0.058728
   8 C :   -0.046993
   9 C :   -0.062340
  10 C :   -0.105510
  11 C :   -0.105463
  12 C :   -0.020808
  13 C :   -0.004800
  14 C :   -0.111279
  15 H :    0.049198
  16 H :    0.050636
  17 H :    0.045295
  18 H :    0.036827
  19 H :    0.040135
  20 H :    0.036849
  21 H :    0.052235
  22 H :    0.041708
  23 H :    0.042982
  24 H :    0.045829
  25 H :    0.045808
  26 H :    0.050685
  27 H :    0.046407
  28 H :    0.044435
  29 H :    0.049531
  30 H :    0.030686
  31 H :    0.033986
  32 H :    0.047020
  33 H :    0.048464
  34 H :    0.045055

-------------------------------
LOEWDIN REDUCED ORBITAL CHARGES
-------------------------------
  0 C s       :     0.777504  s :     0.777504
      pz      :     0.970369  p :     3.082707
      px      :     1.058892
      py      :     1.053446
      dz2     :     0.055899  d :     0.246136
      dxz     :     0.062958
      dyz     :     0.044410
      dx2y2   :     0.057427
      dxy     :     0.025441

  1 C s       :     0.752575  s :     0.752575
      pz      :     0.966200  p :     2.887002
      px      :     0.954534
      py      :     0.966268
      dz2     :     0.095215  d :     0.429825
      dxz     :     0.081374
      dyz     :     0.076676
      dx2y2   :     0.099557
      dxy     :     0.077003

  2 C s       :     0.806480  s :     0.806480
      pz      :     0.889014  p :     2.927401
      px      :     1.048557
      py      :     0.989830
      dz2     :     0.021033  d :     0.298092
      dxz     :     0.025682
      dyz     :     0.054747
      dx2y2   :     0.107680
      dxy     :     0.088950

  3 C s       :     0.804878  s :     0.804878
      pz      :     0.891504  p :     2.943436
      px      :     1.005873
      py      :     1.046058
      dz2     :     0.024308  d :     0.304918
      dxz     :     0.063032
      dyz     :     0.016548
      dx2y2   :     0.126116
      dxy     :     0.074914

  4 C s       :     0.796221  s :     0.796221
      pz      :     0.927367  p :     2.963076
      px      :     0.991201
      py      :     1.044508
      dz2     :     0.020428  d :     0.296374
      dxz     :     0.034989
      dyz     :     0.042837
      dx2y2   :     0.076443
      dxy     :     0.121677

  5 C s       :     0.776467  s :     0.776467
      pz      :     0.850995  p :     2.831009
      px      :     0.954514
      py      :     1.025500
      dz2     :     0.039657  d :     0.392718
      dxz     :     0.045827
      dyz     :     0.072249
      dx2y2   :     0.106145
      dxy     :     0.128840

  6 C s       :     0.733308  s :     0.733308
      pz      :     0.960041  p :     2.867326
      px      :     0.952181
      py      :     0.955104
      dz2     :     0.101079  d :     0.450400
      dxz     :     0.080580
      dyz     :     0.076496
      dx2y2   :     0.089633
      dxy     :     0.102612

  7 C s       :     0.760397  s :     0.760397
      pz      :     1.030493  p :     2.959390
      px      :     0.946255
      py      :     0.982641
[...]
 62:   1302.73   0.000555    2.80  0.000133  (-0.007834 -0.006848 -0.004964)
 63:   1320.45   0.000326    1.65  0.000077  ( 0.002893 -0.001686 -0.008111)
 64:   1347.52   0.002201   11.13  0.000510  (-0.022514 -0.000881 -0.001465)
 65:   1362.23   0.000141    0.71  0.000032  ( 0.004091 -0.002120 -0.003337)
 66:   1383.99   0.000073    0.37  0.000016  ( 0.003216  0.001383 -0.002052)
 67:   1413.61   0.000897    4.54  0.000198  ( 0.012708  0.006028  0.000547)
 68:   1426.66   0.002153   10.88  0.000471  ( 0.004543 -0.002726  0.021043)
 69:   1431.23   0.003630   18.34  0.000791  ( 0.006970 -0.004738 -0.026842)
 70:   1444.42   0.002656   13.42  0.000574  (-0.016871  0.016991  0.000679)
 71:   1450.31   0.001706    8.62  0.000367  (-0.014598  0.011068 -0.005618)
 72:   1459.06   0.000798    4.03  0.000171  ( 0.011781  0.003308 -0.004586)
 73:   1510.20   0.000514    2.60  0.000106  ( 0.001107  0.001772  0.010089)
 74:   1513.30   0.000283    1.43  0.000058  ( 0.001029  0.000247  0.007566)
 75:   1514.14   0.000356    1.80  0.000073  (-0.000261  0.006016 -0.006086)
 76:   1517.44   0.000183    0.92  0.000038  (-0.004681  0.002474 -0.003094)
 77:   1528.60   0.001157    5.85  0.000236  (-0.002756  0.000740 -0.015103)
 78:   1533.80   0.002591   13.09  0.000527  (-0.015367  0.015627  0.006842)
 79:   1536.70   0.002424   12.25  0.000492  (-0.003341 -0.021916 -0.000880)
 80:   1540.38   0.002638   13.33  0.000534  ( 0.018010  0.014117 -0.003285)
 81:   1545.63   0.001076    5.44  0.000217  (-0.012107  0.000167  0.008403)
 82:   1694.52   0.000366    1.85  0.000067  ( 0.002154 -0.005971  0.005199)
 83:   1730.03   0.002575   13.01  0.000465  (-0.013450 -0.016842  0.000039)
 84:   1792.30   0.001971    9.96  0.000343  (-0.011005 -0.014095  0.004832)
 85:   3094.48   0.005189   26.22  0.000523  (-0.002998  0.002288  0.022562)
 86:   3096.35   0.004487   22.67  0.000452  (-0.012478  0.007678  0.015412)
 87:   3099.55   0.007808   39.46  0.000786  ( 0.025133 -0.012043  0.003073)
 88:   3100.97   0.009270   46.85  0.000933  ( 0.028211  0.000486  0.011697)
 89:   3138.80   0.004558   23.03  0.000453  ( 0.010871 -0.014449 -0.011234)
 90:   3169.00   0.007281   36.79  0.000717  ( 0.017705  0.019497  0.004835)
 91:   3180.55   0.000351    1.77  0.000034  ( 0.001140  0.005727 -0.000537)
 92:   3183.35   0.000287    1.45  0.000028  ( 0.004876  0.000199 -0.002083)
 93:   3185.35   0.004372   22.09  0.000428  ( 0.009246  0.018029 -0.004219)
 94:   3186.78   0.007875   39.80  0.000771  ( 0.015850  0.021997 -0.006008)
 95:   3195.15   0.002614   13.21  0.000255  ( 0.013191 -0.008306  0.003503)
 96:   3200.34   0.003120   15.77  0.000304  ( 0.003769 -0.008419 -0.014804)
 97:   3203.81   0.002937   14.84  0.000286  (-0.012342  0.010625 -0.004568)
 98:   3209.83   0.003007   15.20  0.000292  (-0.011126  0.000438 -0.012977)
 99:   3217.58   0.003607   18.23  0.000350  ( 0.007415 -0.002756 -0.016949)
100:   3222.25   0.000445    2.25  0.000043  (-0.006541 -0.000146 -0.000552)
101:   3238.34   0.003879   19.60  0.000374  ( 0.018988 -0.000766  0.003560)
102:   3255.82   0.004609   23.29  0.000442  (-0.004225 -0.020581  0.000592)
103:   3270.06   0.000700    3.54  0.000067  ( 0.005790  0.003653 -0.004464)
104:   3296.42   0.001265    6.39  0.000120  ( 0.001057  0.001781 -0.010745)

* The epsilon (eps) is given for a Dirac delta lineshape.
** The dipole moment derivative (T) already includes vibrational overlap.

The first frequency considered to be a vibration is 6
The total number of vibrations considered is 99


--------------------------
THERMOCHEMISTRY AT 298.15K
--------------------------

Temperature         ...   298.15 K
Pressure            ...     1.00 atm
Total Mass          ...   200.33 AMU
Quasi RRHO          ...     True
Cut-Off Frequency   ...     1.00 cm^-1

Throughout the following assumptions are being made:
  (1) The electronic state is orbitally nondegenerate
  (2) There are no thermally accessible electronically excited states
  (3) Hindered rotations indicated by low frequency modes are not
      treated as such but are treated as vibrations and this may
      cause some error
  (4) All equations used are the standard statistical mechanics
      equations for an ideal gas
  (5) All vibrations are strictly harmonic

freq.      75.75  E(vib)   ...       0.49 
freq.     136.97  E(vib)   ...       0.42 
freq.     179.90  E(vib)   ...       0.37 
freq.     200.70  E(vib)   ...       0.35 
freq.     216.49  E(vib)   ...       0.34 
freq.     238.64  E(vib)   ...       0.32 
freq.     256.97  E(vib)   ...       0.30 
freq.     266.39  E(vib)   ...       0.29 
freq.     278.07  E(vib)   ...       0.28 
freq.     287.23  E(vib)   ...       0.27 
freq.     315.51  E(vib)   ...       0.25 
freq.     318.67  E(vib)   ...       0.25 
freq.     350.41  E(vib)   ...       0.23 
freq.     377.88  E(vib)   ...       0.21 
freq.     416.07  E(vib)   ...       0.18 
freq.     422.35  E(vib)   ...       0.18 
freq.     469.47  E(vib)   ...       0.16 
freq.     475.85  E(vib)   ...       0.15 
freq.     510.37  E(vib)   ...       0.14 
freq.     531.00  E(vib)   ...       0.13 
freq.     556.69  E(vib)   ...       0.12 
freq.     602.53  E(vib)   ...       0.10 
freq.     632.97  E(vib)   ...       0.09 
freq.     673.63  E(vib)   ...       0.08 
freq.     692.69  E(vib)   ...       0.07 
freq.     761.40  E(vib)   ...       0.06 
freq.     764.01  E(vib)   ...       0.06 
freq.     805.86  E(vib)   ...       0.05 
freq.     811.69  E(vib)   ...       0.05 
freq.     869.68  E(vib)   ...       0.04 
freq.     901.79  E(vib)   ...       0.03 
freq.     909.68  E(vib)   ...       0.03 
freq.     952.33  E(vib)   ...       0.03 
freq.     955.31  E(vib)   ...       0.03 
freq.     970.14  E(vib)   ...       0.03 
freq.     976.45  E(vib)   ...       0.03 
freq.     981.16  E(vib)   ...       0.02 
freq.     983.19  E(vib)   ...       0.02 
freq.     991.55  E(vib)   ...       0.02 
freq.     997.66  E(vib)   ...       0.02 
freq.    1013.68  E(vib)   ...       0.02 
freq.    1036.81  E(vib)   ...       0.02 
freq.    1042.97  E(vib)   ...       0.02 
freq.    1053.44  E(vib)   ...       0.02 
freq.    1059.23  E(vib)   ...       0.02 
freq.    1093.38  E(vib)   ...       0.02 
freq.    1118.26  E(vib)   ...       0.01 
freq.    1143.54  E(vib)   ...       0.01 
freq.    1172.53  E(vib)   ...       0.01 
freq.    1209.11  E(vib)   ...       0.01 
freq.    1210.28  E(vib)   ...       0.01 
freq.    1227.86  E(vib)   ...       0.01 
freq.    1236.15  E(vib)   ...       0.01 
freq.    1252.00  E(vib)   ...       0.01 
freq.    1263.08  E(vib)   ...       0.01 
freq.    1272.76  E(vib)   ...       0.01 
freq.    1302.73  E(vib)   ...       0.01 
freq.    1320.45  E(vib)   ...       0.01 
freq.    1347.52  E(vib)   ...       0.01 
freq.    1362.23  E(vib)   ...       0.01 
freq.    1383.99  E(vib)   ...       0.00 
freq.    1413.61  E(vib)   ...       0.00 
freq.    1426.66  E(vib)   ...       0.00 
freq.    1431.23  E(vib)   ...       0.00 
freq.    1444.42  E(vib)   ...       0.00 
freq.    1450.31  E(vib)   ...       0.00 
freq.    1459.06  E(vib)   ...       0.00 
freq.    1510.20  E(vib)   ...       0.00 
freq.    1513.30  E(vib)   ...       0.00 
freq.    1514.14  E(vib)   ...       0.00 
freq.    1517.44  E(vib)   ...       0.00 
freq.    1528.60  E(vib)   ...       0.00 
freq.    1533.80  E(vib)   ...       0.00 
freq.    1536.70  E(vib)   ...       0.00 
freq.    1540.38  E(vib)   ...       0.00 
freq.    1545.63  E(vib)   ...       0.00 
freq.    1694.52  E(vib)   ...       0.00 
freq.    1730.03  E(vib)   ...       0.00 
freq.    1792.30  E(vib)   ...       0.00 
freq.    3094.48  E(vib)   ...       0.00 
freq.    3096.35  E(vib)   ...       0.00 
freq.    3099.55  E(vib)   ...       0.00 
freq.    3100.97  E(vib)   ...       0.00 
freq.    3138.80  E(vib)   ...       0.00 
freq.    3169.00  E(vib)   ...       0.00 
freq.    3180.55  E(vib)   ...       0.00 
freq.    3183.35  E(vib)   ...       0.00 
freq.    3185.35  E(vib)   ...       0.00 
freq.    3186.78  E(vib)   ...       0.00 
freq.    3195.15  E(vib)   ...       0.00 
freq.    3200.34  E(vib)   ...       0.00 
freq.    3203.81  E(vib)   ...       0.00 
freq.    3209.83  E(vib)   ...       0.00 
freq.    3217.58  E(vib)   ...       0.00 
freq.    3222.25  E(vib)   ...       0.00 
freq.    3238.34  E(vib)   ...       0.00 
freq.    3255.82  E(vib)   ...       0.00 
freq.    3270.06  E(vib)   ...       0.00 
freq.    3296.42  E(vib)   ...       0.00 

------------
INNER ENERGY
------------

The inner energy is: U= E(el) + E(ZPE) + E(vib) + E(rot) + E(trans)
    E(el)   - is the total energy from the electronic structure calculation
              = E(kin-el) + E(nuc-el) + E(el-el) + E(nuc-nuc)
    E(ZPE)  - the the zero temperature vibrational energy from the frequency calculation
    E(vib)  - the the finite temperature correction to E(ZPE) due to population
              of excited vibrational states
    E(rot)  - is the rotational thermal energy
    E(trans)- is the translational thermal energy

Summary of contributions to the inner energy U:
Electronic energy                ...    -97.47016628 Eh
Zero point energy                ...      0.31795074 Eh     199.52 kcal/mol
Thermal vibrational correction   ...      0.01047170 Eh       6.57 kcal/mol
Thermal rotational correction    ...      0.00141627 Eh       0.89 kcal/mol
Thermal translational correction ...      0.00141627 Eh       0.89 kcal/mol
-----------------------------------------------------------------------
Total thermal energy                    -97.13891130 Eh


Summary of corrections to the electronic energy:
(perhaps to be used in another calculation)
Total thermal correction                  0.01330424 Eh       8.35 kcal/mol
Non-thermal (ZPE) correction              0.31795074 Eh     199.52 kcal/mol
-----------------------------------------------------------------------
Total correction                          0.33125498 Eh     207.87 kcal/mol


--------
ENTHALPY
--------

The enthalpy is H = U + kB*T
                kB is Boltzmann's constant
Total thermal energy              ...    -97.13891130 Eh 
Thermal Enthalpy correction       ...      0.00094421 Eh       0.59 kcal/mol
-----------------------------------------------------------------------
Total Enthalpy                    ...    -97.13796709 Eh


Note: Only C1 symmetry has been detected, increase convergence thresholds 
      if your molecule has a higher symmetry. Symmetry factor of 1.0 is   
      used for the rotational entropy correction. 
 

Note: Rotational entropy computed according to Herzberg 
Infrared and Raman Spectra, Chapter V,1, Van Nostrand Reinhold, 1945 
Point Group:  C1, Symmetry Number:   1  
Rotational constants in cm-1:     0.034888     0.019780     0.017459 

Vibrational entropy computed according to the QRRHO of S. Grimme
Chem.Eur.J. 2012 18 9955 using a reference frequency of 100.0 cm-1


-------
ENTROPY
-------

The entropy contributions are T*S = T*(S(el)+S(vib)+S(rot)+S(trans))
     S(el)   - electronic entropy
     S(vib)  - vibrational entropy
     S(rot)  - rotational entropy
     S(trans)- translational entropy
The entropies will be listed as multiplied by the temperature to get
units of energy

Electronic entropy                ...      0.00000000 Eh      0.00 kcal/mol
Vibrational entropy               ...      0.01683984 Eh     10.57 kcal/mol
Rotational entropy                ...      0.01485798 Eh      9.32 kcal/mol
Translational entropy             ...      0.01985523 Eh     12.46 kcal/mol
-----------------------------------------------------------------------
Final entropy term                ...      0.05155305 Eh     32.35 kcal/mol

In case the symmetry of your molecule has not been determined correctly
or in case you have a reason to use a different symmetry number we print 
out the resulting rotational entropy values for sn=1,12:

 non-linear molecules -----------------------------------
|  sn= 1 | S(rot)=       0.01485798 Eh      9.32 kcal/mol|
|  sn= 2 | S(rot)=       0.01420352 Eh      8.91 kcal/mol|
|  sn= 3 | S(rot)=       0.01382069 Eh      8.67 kcal/mol|
|  sn= 4 | S(rot)=       0.01354907 Eh      8.50 kcal/mol|
|  sn= 5 | S(rot)=       0.01333838 Eh      8.37 kcal/mol|
|  sn= 6 | S(rot)=       0.01316623 Eh      8.26 kcal/mol|
|  sn= 7 | S(rot)=       0.01302069 Eh      8.17 kcal/mol|
|  sn= 8 | S(rot)=       0.01289461 Eh      8.09 kcal/mol|
|  sn= 9 | S(rot)=       0.01278340 Eh      8.02 kcal/mol|
|  sn=10 | S(rot)=       0.01268392 Eh      7.96 kcal/mol|
|  sn=11 | S(rot)=       0.01259393 Eh      7.90 kcal/mol|
|  sn=12 | S(rot)=       0.01251178 Eh      7.85 kcal/mol|
 linear molecules ---------------------------------------
|  Dinfh | S(rot)=       0.00914775 Eh      5.74 kcal/mol|
|  Cinfv | S(rot)=       0.00980220 Eh      6.15 kcal/mol|
 --------------------------------------------------------


-------------------
GIBBS FREE ENERGY
-------------------

The Gibbs free energy is G = H - T*S

Total enthalpy                    ...    -97.13796709 Eh 
Total entropy correction          ...     -0.05155305 Eh    -32.35 kcal/mol
-----------------------------------------------------------------------
Final Gibbs free energy         ...    -97.18952014 Eh

For completeness - the Gibbs free energy minus the electronic energy
G-E(el)                           ...      0.28064614 Eh    176.11 kcal/mol


Maximum memory used throughout the entire PROP-calculation: 208.0 MB

--------------------------------
SUGGESTED CITATIONS FOR THIS RUN
--------------------------------

Below you find a list of papers that are relevant to this ORCA run
We neither can nor want to force you to cite these papers, but we appreciate if you do
You receive ORCA, which is the product of decades of hard work by many enthusiastic individuals, for free
The only thing we kindly ask in return is that you cite our papers,
We deeply appreciate it, if you show your appreciation for ORCA by not just citing the generic ORCA reference.

Please note that relegating all ORCA citations to the supporting information does *not* help us.
SI sections are not indexed - citations you put there will not count into any citation statistics
But we need these citations in order to attract the funding resources that allow us to do what we are doing

Therefore, if you are a happy ORCA user, please consider citing a few of the papers listed below in the main body of your paper

In addition to the list printed below, the program has created the file ./output/4_5_9_10_dehydro_isolongifolene/4_5_9_10_dehydro_isolongifolene.bibtex that contains the list in bibtex format
You can import this file easily into all common literature databanks and citation aid programs


List of essential papers. We consider these as the minimum necessary citations

  1. Neese,F.
     Software update: the ORCA program system, version 5.0
     WIRES Comput. Molec. Sci., 2022 12(1)e1606
     doi.org/10.1002/wcms.1606
  2. Mueller,M.; Hansen,A.; Grimme,S.
     wB97X-3c: A composite range-separated hybrid DFT method with a molecule-optimized polarized valence double-zeta basis set
     J. Chem. Phys., 2023 158 014103
     doi.org/10.1063/5.0133026

List of papers to cite with high priority. The work reported in these papers was absolutely
necessary for this run to complete.
Our perspective: the developers of density functionals and basis sets usually get cited in chemistry papers
Good! But without the algorithms to do something with them, the functionals or basis sets would not do anything.
Hence, in our opinion, the algorithm design and method developments papers are equally worthy of getting cited

  1. Neese,F.
     An improvement of the resolution of the identity approximation for the formation of the Coulomb matrix
     J. Comp. Chem., 2003 24(14)1740-1747
     doi.org/10.1002/jcc.10318
  2. Neese,F.; Wennmohs,F.; Hansen,A.; Becker,U.
     Efficient, approximate and parallel Hartree-Fock and hybrid DFT calculations. A 'chain-of-spheres' algorithm for the Hartree-Fock exchange
     Chem. Phys., 2009 356(1-3)98-109
     doi.org/10.1016/j.chemphys.2008.10.036
  3. Bykov,D.; Petrenko,T.; Izsak,R.; Kossmann,S.; Becker,U.; Valeev,E.; Neese,F.
     Efficient implementation of the analytic second derivatives of Hartree-Fock and hybrid DFT energies: a detailed analysis of different approximations
     Molec. Phys., 2015 113 1961-1977
     doi.org/10.1080/00268976.2015.1025114
  4. Helmich-Paris,B.; de Souza,B.; Neese,F.; Izsák,R.
     An improved chain of spheres for exchange algorithm
     J. Chem. Phys., 2021 155 104109
     doi.org/doi: 10.1063/5.0058766.
  5. Neese,F.
     The SHARK Integral Generation and Digestion System
     J. Comp. Chem., 2022  1-16
     doi.org/10.1002/jcc.26942
  6. Caldeweyher,E.; Bannwarth,C.; Grimme,S.
     Extension of the D3 dispersion coefficient model
     J. Chem. Phys., 2017 147 034112
     doi.org/10.1063/1.4993215
  7. Caldeweyher,E.; Ehlert,S.; Hansen,A.; Neugebauer,H.; Spicher,S.; Bannwarth,C.; Grimme,S.
     A generally applicable atomic-charge dependent London dispersion correction
     J. Chem. Phys., 2019 150 154122
     doi.org/10.1063/1.5090222
  8. Caldeweyher,E.; Mewes,J.; Ehlert,S.; Grimme,S.
     Extension and evaluation of the D4 London-dispersion model for periodic systems
     Phys. Chem. Chem. Phys., 2020 22(16)8499-8512
     doi.org/10.1039/D0CP00502A
  9. Wittmann,L.; Gordiy,I.; Friede,M.; Helmich-Paris,B.; Grimme,S.; Hansen,A.; Bursch,M.
     Extension of the D3 and D4 London Dispersion Corrections to the full Actinides Series
     Phys. Chem. Chem. Phys., 2024 26(32)21379-21394
     doi.org/https://doi.org/10.1039/D4CP01514B 

List of suggested additional citations. These are papers that are important in the 'surrounding' of 
of this run, or papers that preceded the highly important papers. If you like your results we are grateful for a citation.

  1. Izsak,R.; Neese,F.
     An overlap fitted chain of spheres exchange method
     J. Chem. Phys., 2011 135 144105
     doi.org/10.1063/1.3646921
  2. Izsak,R.; Hansen,A.; Neese,F.
     The resolution of identity and chain of spheres approximations for the LPNO-CCSD singles Fock term
     Molec. Phys., 2012 110 2413-2417
     doi.org/10.1080/00268976.2012.687466
  3. Neese,F.
     The ORCA program system
     WIRES Comput. Molec. Sci., 2012 2(1)73-78
     doi.org/10.1002/wcms.81
  4. Izsak,R.; Neese,F.; Klopper,W.
     Robust fitting techniques in the chain of spheres approximation to the Fock exchange: The role of the complementary space
     J. Chem. Phys., 2013 139 
     doi.org/10.1063/1.4819264
  5. Neese,F.
     Software update: the ORCA program system, version 4.0
     WIRES Comput. Molec. Sci., 2018 8(1)1-6
     doi.org/10.1002/wcms.1327
  6. Neese,F.; Wennmohs,F.; Becker,U.; Riplinger,C.
     The ORCA quantum chemistry program package
     J. Chem. Phys., 2020 152 Art. No. L224108
     doi.org/10.1063/5.0004608

List of optional additional citations

  1. Neese,F.
     Approximate second-order SCF convergence for spin unrestricted wavefunctions
     Chem. Phys. Lett., 2000 325(1-3)93-98
     doi.org/10.1016/s0009-2614(00)00662-x

Timings for individual modules:

Sum of individual times          ...     1025.267 sec (=  17.088 min)
Startup calculation              ...       35.825 sec (=   0.597 min)   3.5 %
SCF iterations                   ...      493.975 sec (=   8.233 min)  48.2 %
Property integrals               ...      110.402 sec (=   1.840 min)  10.8 %
SCF Response                     ...       74.807 sec (=   1.247 min)   7.3 %
Property calculations            ...      204.916 sec (=   3.415 min)  20.0 %
SCF Gradient evaluation          ...      105.134 sec (=   1.752 min)  10.3 %
Geometry relaxation              ...        0.207 sec (=   0.003 min)   0.0 %
                             ****ORCA TERMINATED NORMALLY****
TOTAL RUN TIME: 0 days 0 hours 17 minutes 8 seconds 878 msec
