
                                 *****************
                                 * O   R   C   A *
                                 *****************

                                            #,                                       
                                            ###                                      
                                            ####                                     
                                            #####                                    
                                            ######                                   
                                           ########,                                 
                                     ,,################,,,,,                         
                               ,,#################################,,                 
                          ,,##########################################,,             
                       ,#########################################, ''#####,          
                    ,#############################################,,   '####,        
                  ,##################################################,,,,####,       
                ,###########''''           ''''###############################       
              ,#####''   ,,,,##########,,,,          '''####'''          '####       
            ,##' ,,,,###########################,,,                        '##       
           ' ,,###''''                  '''############,,,                           
         ,,##''                                '''############,,,,        ,,,,,,###''
      ,#''                                            '''#######################'''  
     '                                                          ''''####''''         
             ,#######,   #######,   ,#######,      ##                                
            ,#'     '#,  ##    ##  ,#'     '#,    #''#        ,####,   ,####,        
            ##       ##  ##   ,#'  ##            #'  '#       #'       #'  '#        
            ##       ##  #######   ##           ,######,      #####,   #    #        
            '#,     ,#'  ##    ##  '#,     ,#' ,#      #,     #,   #   #,  ,#        
             '#######'   ##     ##  '#######'  #'      '#     '####' # '####'        



                #########################################################
                #                        -***-                          #
                #          Department of theory and spectroscopy        #
                #                                                       #
                #                      Frank Neese                      #
                #                                                       #
                #     Directorship, Architecture, Infrastructure        #
                #                    SHARK, DRIVERS                     #
                #        Core code/Algorithms in most modules           #
                #                                                       #
                #        Max Planck Institute fuer Kohlenforschung      #
                #                Kaiser Wilhelm Platz 1                 #
                #                 D-45470 Muelheim/Ruhr                 #
                #                      Germany                          #
                #                                                       #
                #                  All rights reserved                  #
                #                        -***-                          #
                #########################################################


                         Program Version 6.0.1  -  RELEASE   -


 With contributions from (in alphabetic order):
[Max-Planck-Institut fuer Kohlenforschung]                               
  Daniel Aravena         : Magnetic Suceptibility                        
  Michael Atanasov       : Ab Initio Ligand Field Theory (pilot matlab implementation)
  Alexander A. Auer      : GIAO ZORA, VPT2 properties, NMR spectrum      
  Ute Becker             : All parallelization in ORCA, NUMFREQ, NUMCALC 
  Giovanni Bistoni       : ED, misc. LED, open-shell LED, HFLD           
  Martin Brehm           : Molecular dynamics                            
  Dmytro Bykov           : pre 5.0 version of the SCF Hessian            
  Marcos Casanova-Páez   : Triplet and SCS-CIS(D). UHF-(DLPNO)-IP/EA/STEOM-CCSD. UHF-CVS-IP/STEOM-CCSD   
  Vijay G. Chilkuri      : MRCI spin determinant printing, contributions to CSF-ICE 
  Pauline Colinet        : FMM embedding                                 
  Dipayan Datta          : RHF DLPNO-CCSD density                        
  Achintya Kumar Dutta   : EOM-CC, STEOM-CC                              
  Nicolas Foglia         : Exact transition moments, OPA infrastructure, MCD improvements    
  Dmitry Ganyushin       : Spin-Orbit,Spin-Spin,Magnetic field MRCI      
  Miquel Garcia-Rates    : C-PCM and meta-GGA Hessian, CCSD/C-PCM, Gaussian charge scheme 
  Tiago L. C. Gouveia    : GS-ROHF, GS-ROCIS                             
  Yang Guo               : DLPNO-NEVPT2, F12-NEVPT2, CIM, IAO-localization        
  Andreas Hansen         : Spin unrestricted coupled pair/coupled cluster methods 
  Ingolf Harden          : AUTO-CI MPn and infrastructure                
  Benjamin Helmich-Paris : MC-RPA, TRAH-(SCF,CASSCF), AVAS, COSX integrals, SCF dyn. polar. 
  Lee Huntington         : MR-EOM, pCC                                   
  Robert Izsak           : Overlap fitted RIJCOSX, COSX-SCS-MP3, EOM     
  Riya Kayal             : Wick's Theorem for AUTO-CI, AUTO-CI UHF-CCSDT 
  Emily Kempfer          : AUTO-CI, RHF CISDT and CCSDT                  
  Christian Kollmar      : KDIIS, OOCD, Brueckner-CCSD(T), CCSD density, CASPT2, CASPT2-K, improved NEVPT2 
  Axel Koslowski         : Symmetry handling                             
  Simone Kossmann        : meta-GGA functionals, TD-DFT gradient, OOMP2, (MP2 Hessian; deprecated post 5.0) 
  Lucas Lang             : DCDCAS                                        
  Marvin Lechner         : AUTO-CI (C++ implementation), FIC-MRCC        
  Spencer Leger          : CASSCF response                               
  Dagmar Lenk            : GEPOL surface, SMD, ORCA-2-JSON               
  Dimitrios Liakos       : Extrapolation schemes; Compound Job, initial MDCI parallelization 
  Dimitrios Manganas     : Further ROCIS development; embedding schemes. LFT, Crystal Embedding 
  Dimitrios Pantazis     : SARC Basis sets                               
  Anastasios Papadopoulos: AUTO-CI, single reference methods and gradients 
  Taras Petrenko         : pre 6.0 DFT Hessian and TD-DFT gradient, (ASA, deprecated), ECA, 1-Electron XAS/XES, NRVS 
  Peter Pinski           : DLPNO-MP2, DLPNO-MP2 Gradient                 
  Christoph Reimann      : Effective Core Potentials                     
  Marius Retegan         : Local ZFS, SOC                                
  Christoph Riplinger    : Optimizer, TS searches, QM/MM, DLPNO-CCSD(T), (RO)-DLPNO pert. Triples 
  Michael Roemelt        : Original ROCIS implementation                 
  Masaaki Saitow         : Open-shell DLPNO-CCSD energy and density      
  Barbara Sandhoefer     : DKH picture change effects                    
  Kantharuban Sivalingam : CASSCF convergence/infrastructure, NEVPT2 and variants, FIC-MRCI 
  Bernardo de Souza      : ESD, SOC TD-DFT                               
  Georgi L. Stoychev     : AutoAux, RI-MP2 NMR, DLPNO-MP2 response, X2C  
  Van Anh Tran           : RI-MP2 g-tensors                              
  Willem Van den Heuvel  : Paramagnetic NMR                              
  Zikuan Wang            : NOTCH, Electric field optimization            
  Frank Wennmohs         : Technical directorship and infrastructure     
  Hang Xu                : AUTO-CI-Response properties                   
                                                                         
[FACCTs GmbH]                                                            
  Markus Bursch, Miquel Garcia-Rates, Christoph Riplinger, Bernardo de Souza, Georgi L. Stoychev 
                                                                 
  APM, Basis sets (HGBS, AHGBS, def-TZVP (Ac-Lr), def2-XVPD (La-Lu)), CI-OPT, improved COSX, DLPNO-Multilevel,           
  DOCKER, DRACO, updates on ESD, GOAT, IRC, LR-CPCM, MBIS, meta-GGA TD-DFT gradient, ML-optimized integration grids, 
  MM, NACMEs, nearIR, NEB, NEB-TS, NL-DFT gradient (VV10), 2- and 3-layer-ONIOM, interface openCOSMO-RS, QMMM,   
  Crystal-QMMM, SF, symmetry and pop. for TD-DFT, r2SCAN hybrids, SOLVATOR                                   
                                                                         
[Other institutions]                                                     
  V. Asgeirsson          : NEB                                           
  Christoph Bannwarth    : sTDA-DFT, sTD-DFT, PBEh-3c, B97-3c, D3        
  Sebastian Ehlert       : rSCAN, r2SCAN, r2SCAN-3c, D4, dhf basis sets  
  Marvin Friede          : D4 for Fr, Ra, Ac-Lr                          
  Lars Goerigk           : TD-DFT with DH, B97 family of functionals     
  Stefan Grimme          : VdW corrections, initial TS optimization, DFT functionals, gCP, sTDA/sTD-DF 
  Waldemar Hujo          : DFT-NL                                        
  H. Jonsson             : NEB                                           
  Holger Kruse           : gCP                                           
  Marcel Mueller         : wB97X-3c, vDZP basis set                      
  Hagen Neugebauer       : wr2SCAN                                       
  Tobias Risthaus        : range-separated hybrid DFT                    
  Lukas Wittmann         : regularized MP2, r2SCAN double-hybrids, wr2SCAN        
                                                                         
We gratefully acknowledge several colleagues who have allowed us to      
interface, adapt or use parts of their codes:                            
  Ed Valeev, F. Pavosevic, A. Kumar             : LibInt (2-el integral package), F12 methods 
  Garnet Chan, S. Sharma, J. Yang, R. Olivares  : DMRG                   
  Ulf Ekstrom                                   : XCFun DFT Library      
  Mihaly Kallay                                 : mrcc  (arbitrary order and MRCC methods)
  Frank Weinhold                                : gennbo (NPA and NBO analysis)           
  Simon Mueller                                 : openCOSMO-RS                            
  Christopher J. Cramer and Donald G. Truhlar   : smd solvation model                     
  S Lehtola, MJT Oliveira, MAL Marques          : LibXC Library                           
  Liviu Ungur et al                             : ANISO software                          


 Your calculation uses the libint2 library for the computation of 2-el integrals
 For citations please refer to: http://libint.valeyev.net

 Your ORCA version has been built with support for libXC version: 6.2.2
 For citations please refer to: https://libxc.gitlab.io

 This ORCA versions uses:
   CBLAS   interface :  Fast vector & matrix operations
   LAPACKE interface :  Fast linear algebra routines
   SCALAPACK package :  Parallel linear algebra routines
   Shared memory     :  Shared parallel matrices
   BLAS/LAPACK       :  OpenBLAS 0.3.27  USE64BITINT DYNAMIC_ARCH NO_AFFINITY SkylakeX SINGLE_THREADED
        Core in use  :  SkylakeX
   Copyright (c) 2011-2014, The OpenBLAS Project


Your calculation utilizes the atom-pairwise dispersion correction
based on EEQ partial charges (D4)


================================================================================

cite the ECPs for C  [vDZP-ECP], O  [vDZP-ECP] as follows:
   B-Ne (ecp-2-mwb), Al-Ar (ecp-10-mwb), Ga-Kr (ecp-28-mwb), Y-Cd (ecp-28-mwb), In-Xe (ecp-46-mwb):
     A. Bergner, M. Dolg, W. Küchle, H. Stoll, and H. Preuß, Mol. Phys. 80, 1431 (1993)., T. Leininger, A. Berning, A. Nicklass, H. Stoll, H.-J. Werner, and H.-J.Flad, Chem. Phys. 217, 19 (1997).
   Na-Mg, K-Ca, Rb-Sr, Cs-Ba (CRENBL):
     L. Fernandez Pacios and P. A. Christiansen, J. Chem. Phys. 82, 2664 (1985)., M. M. Hurley, L. F. Pacios, P. A. Christiansen, R. B. Ross, and W. C. Ermler, J. Chem. Phys. 84, 6840 (1986)., L. A. LaJohn, P. A. Christiansen, R. B. Ross, T. Atashroo, and W. C. Ermler, J. Chem. Phys. 87, 2812 (1987)., R. B. Ross, J. M. Powers, T. Atashroo, W. C. Ermler, L. A. LaJohn, and P. A. Christiansen, J. Chem. Phys. 93, 6654 (1990). 
   Sc-Zn (ecp-10-mdf):
     M. Dolg, U. Wedig, H. Stoll, and H. Preuss, J. Chem. Phys. 86, 866 (1986). 
   Y-Cd (ecp-28-mwb), Hf-Hg (ecp-60-mwb):
     D. Andrae, U. Häußermann, M. Dolg, H. Stoll, and H. Preuß, Theor. Chim. Acta 77, 123 (1990). 
   La (ecp-46-mwb):
     M. Dolg, H. Stoll, and H. Preuss, J. Chem. Phys. 90, 1730 (1989)., M. Dolg, H. Stoll, and H. Preuss, Theor. Chim. Acta 85, 441 (1993).
   Ce-Lu (SBKJC-ecp):
     T. R. Cundari and W. J. Stevens, J. Chem. Phys. 98, 5555 (1993).
   Tl-Rn (ecp-78-mwb):
     W. Küchle, M. Dolg, H. Stoll, and H. Preuss, Mol. Phys. 74, 1245 (1991).

ECP parameters for C  [vDZP-ECP], O  [vDZP-ECP] have been obtained from:
MM, AH, SG, J. Chem. Phys. 158, 014103 (2023), 10.1063/5.0133026

----- Orbital basis set information -----
Your calculation utilizes the basis: vDZP
   Marcel Mueller, Andreas Hansen, Stefan Grimme 
   J. Chem. Phys. 158, 014103 (2023). DOI: 10.1063/5.0133026

----- AuxJ basis set information -----
Your calculation utilizes the auxiliary basis: def2/J
   F. Weigend, Phys. Chem. Chem. Phys. 8, 1057 (2006).

================================================================================
                                        WARNINGS
                       Please study these warnings very carefully!
================================================================================

WARNING: Frozen-Core approximation turned on, but there are no core electrons.
  ===> : Turning off frozen-core approximation


WARNING: Geometry Optimization
  ===> : Switching off AutoStart
         For restart on a previous wavefunction, please use MOREAD

================================================================================
                                       INPUT FILE
================================================================================
NAME = ./output/furanoeudesma_1_3_diene/furanoeudesma_1_3_diene.inp
|  1> ! wB97X-3c OPT FREQ TightSCF
|  2> %pal
|  3>   nprocs 40
|  4> end
|  5> * xyz 0 1
|  6> C     -1.647541     2.608052     1.555788
|  7> C     -1.521297     1.526449     0.523499
|  8> C     -2.183544     1.629302    -0.643077
|  9> C     -2.096282     0.555079    -1.655969
| 10> C     -1.580555    -0.640977    -1.339856
| 11> C     -1.183152    -0.948438     0.095113
| 12> C     -0.576495     0.353997     0.741168
| 13> C      0.809213     0.746760     0.154238
| 14> C      1.670293    -0.446942    -0.098145
| 15> C      1.206442    -1.730907    -0.195819
| 16> C     -0.183574    -2.142837     0.153146
| 17> O      2.168096    -2.536252    -0.585650
| 18> C      3.256219    -1.820073    -0.777465
| 19> C      2.994752    -0.493349    -0.480820
| 20> C      3.917615     0.663997    -0.683942
| 21> C     -2.458267    -1.372702     0.861862
| 22> H     -1.346111     3.583400     1.118548
| 23> H     -2.700089     2.672184     1.903464
| 24> H     -0.997249     2.401406     2.431454
| 25> H     -2.794388     2.498753    -0.853153
| 26> H     -2.454327     0.739625    -2.660433
| 27> H     -1.511071    -1.406062    -2.103602
| 28> H     -0.444984     0.174988     1.832073
| 29> H      0.687634     1.277350    -0.815644
| 30> H      1.326831     1.434298     0.857273
| 31> H     -0.146099    -2.556440     1.184525
| 32> H     -0.508627    -2.963336    -0.523087
| 33> H      4.198397    -2.222659    -1.125288
| 34> H      4.971743     0.315673    -0.701660
| 35> H      3.681356     1.160588    -1.647896
| 36> H      3.798076     1.394193     0.143396
| 37> H     -2.880956    -2.304555     0.426951
| 38> H     -3.244638    -0.589671     0.815705
| 39> H     -2.227423    -1.560897     1.932523
| 40> *
| 41> 
| 42>                          ****END OF INPUT****
================================================================================

                       *****************************
                       * Geometry Optimization Run *
                       *****************************

Geometry optimization settings:
Update method            Update   .... BFGS
Choice of coordinates    CoordSys .... (2022) Redundant Internals
Initial Hessian          InHess   .... Almloef's Model
Max. no of cycles        MaxIter  .... 102

Convergence Tolerances:
Energy Change            TolE     ....  5.0000e-06 Eh
Max. Gradient            TolMAXG  ....  3.0000e-04 Eh/bohr
RMS Gradient             TolRMSG  ....  1.0000e-04 Eh/bohr
Max. Displacement        TolMAXD  ....  4.0000e-03 bohr
RMS Displacement         TolRMSD  ....  2.0000e-03 bohr
Strict Convergence                .... False

------------------------------------------------------------------------------
                        ORCA OPTIMIZATION COORDINATE SETUP
------------------------------------------------------------------------------

The optimization will be done in redundant internal coordinates (2022)
Making redundant internal coordinates   ...  (2022 redundants) done
Evaluating the initial hessian          ...  (Almloef) done
Evaluating the coordinates              ...  done
Calculating the B-matrix                .... done
Calculating the G-matrix                .... done
Diagonalizing the G-matrix              .... done
Small eigenvalue found = 1.776e-02
The first mode is                       ....   89
The number of degrees of freedom        ....   96

    -----------------------------------------------------------------
                    Redundant Internal Coordinates


    -----------------------------------------------------------------
         Definition                    Initial Value    Approx d2E/dq
    -----------------------------------------------------------------
      1. B(C   1,C   0)                  1.5005         0.416374   
      2. B(C   2,C   1)                  1.3454         0.736081   
      3. B(C   3,C   2)                  1.4790         0.450508   
      4. B(C   4,C   3)                  1.3403         0.749900   
      5. B(C   5,C   4)                  1.5204         0.386993   
      6. B(C   6,C   5)                  1.5754         0.316235   
      7. B(C   6,C   1)                  1.5214         0.385558   
      8. B(C   7,C   6)                  1.5553         0.340427   
      9. B(C   8,C   7)                  1.4933         0.427423   
     10. B(C   9,C   8)                  1.3687         0.675718   
     11. B(C  10,C   9)                  1.4912         0.430842   
     12. B(C  10,C   5)                  1.5586         0.336364   
     13. B(O  11,C   9)                  1.3135         0.741138   
     14. B(C  12,O  11)                  1.3167         0.732504   
     15. B(C  13,C   8)                  1.3794         0.649571   
     16. B(C  13,C  12)                  1.3844         0.637786   
     17. B(C  14,C  13)                  1.4941         0.426213   
     18. B(C  15,C   5)                  1.5472         0.350703   
     19. B(H  16,C   0)                  1.1106         0.333904   
     20. B(H  17,C   0)                  1.1103         0.334177   
     21. B(H  18,C   0)                  1.1101         0.334440   
     22. B(H  19,C   2)                  1.0831         0.369281   
     23. B(H  20,C   3)                  1.0822         0.370540   
     24. B(H  21,C   4)                  1.0833         0.369103   
     25. B(H  22,C   6)                  1.1133         0.330572   
     26. B(H  23,C   7)                  1.1122         0.331904   
     27. B(H  24,C   7)                  1.1113         0.333048   
     28. B(H  25,C  10)                  1.1119         0.332323   
     29. B(H  26,C  10)                  1.1118         0.332348   
     30. B(H  27,C  12)                  1.0820         0.370820   
     31. B(H  28,C  14)                  1.1103         0.334188   
     32. B(H  29,C  14)                  1.1098         0.334852   
     33. B(H  30,C  14)                  1.1099         0.334666   
     34. B(H  31,C  15)                  1.1118         0.332351   
     35. B(H  32,C  15)                  1.1107         0.333736   
     36. B(H  33,C  15)                  1.1113         0.332979   
     37. A(C   1,C   0,H  17)          109.6830         0.326124   
     38. A(C   1,C   0,H  16)          109.8390         0.326080   
     39. A(H  16,C   0,H  17)          109.2597         0.284091   
     40. A(H  17,C   0,H  18)          108.6057         0.284162   
     41. A(H  16,C   0,H  18)          108.3638         0.284126   
     42. A(C   1,C   0,H  18)          111.0515         0.326166   
     43. A(C   0,C   1,C   6)          120.6190         0.372187   
     44. A(C   2,C   1,C   6)          119.2521         0.411165   
     45. A(C   0,C   1,C   2)          120.0012         0.416821   
     46. A(C   3,C   2,H  19)          118.9116         0.335910   
     47. A(C   1,C   2,C   3)          120.6141         0.422719   
     48. A(C   1,C   2,H  19)          120.4734         0.364930   
     49. A(C   4,C   3,H  20)          119.8927         0.366307   
     50. A(C   2,C   3,C   4)          120.6181         0.424127   
     51. A(C   2,C   3,H  20)          119.4892         0.336100   
     52. A(C   5,C   4,H  21)          120.3864         0.327535   
     53. A(C   3,C   4,H  21)          119.2519         0.366064   
     54. A(C   3,C   4,C   5)          120.2405         0.412796   
     55. A(C   6,C   5,C  10)          111.7979         0.346997   
     56. A(C  10,C   5,C  15)          107.4556         0.353109   
     57. A(C   4,C   5,C  10)          110.9623         0.359061   
     58. A(C   4,C   5,C  15)          107.9246         0.361625   
     59. A(C   4,C   5,C   6)          108.6946         0.355316   
     60. A(C   6,C   5,C  15)          109.9283         0.349446   
     61. A(C   5,C   6,H  22)          108.3251         0.311263   
     62. A(C   1,C   6,H  22)          109.7226         0.321461   
     63. A(C   5,C   6,C   7)          113.3984         0.347699   
     64. A(C   1,C   6,C   7)          107.7395         0.359569   
     65. A(C   1,C   6,C   5)          109.8349         0.355092   
     66. A(C   7,C   6,H  22)          107.7669         0.315002   
     67. A(C   8,C   7,H  24)          109.4447         0.327351   
     68. A(C   6,C   7,H  24)          109.4207         0.315384   
     69. A(H  23,C   7,H  24)          107.9058         0.283677   
     70. A(C   6,C   7,C   8)          112.0649         0.365956   
     71. A(C   8,C   7,H  23)          107.2771         0.327165   
     72. A(C   6,C   7,H  23)          110.6200         0.315208   
     73. A(C   7,C   8,C   9)          124.5079         0.412445   
     74. A(C   9,C   8,C  13)          105.9052         0.444583   
     75. A(C   7,C   8,C  13)          128.8598         0.409569   
     76. A(C   8,C   9,C  10)          123.9426         0.413029   
     77. A(C  10,C   9,O  11)          125.6291         0.417155   
     78. A(C   8,C   9,O  11)          110.3794         0.452342   
     79. A(H  25,C  10,H  26)          107.4292         0.283640   
     80. A(C   9,C  10,H  26)          109.5148         0.327667   
     81. A(C   5,C  10,H  26)          110.8175         0.314663   
     82. A(C   9,C  10,H  25)          106.7637         0.327663   
     83. A(C   5,C  10,H  25)          109.9521         0.314659   
     84. A(C   5,C  10,C   9)          112.1743         0.365702   
     85. A(C   9,O  11,C  12)          108.3470         0.455994   
     86. A(C  13,C  12,H  27)          126.1506         0.356373   
     87. A(O  11,C  12,H  27)          124.3363         0.362615   
     88. A(O  11,C  12,C  13)          109.5095         0.446672   
     89. A(C  12,C  13,C  14)          126.6229         0.408038   
     90. A(C   8,C  13,C  14)          127.2081         0.409363   
     91. A(C   8,C  13,C  12)          105.8445         0.439964   
     92. A(H  29,C  14,H  30)          109.2773         0.284281   
     93. A(H  28,C  14,H  30)          108.6946         0.284193   
     94. A(C  13,C  14,H  30)          109.9824         0.327459   
     95. A(H  28,C  14,H  29)          109.1854         0.284218   
     96. A(C  13,C  14,H  29)          109.4630         0.327489   
     97. A(C  13,C  14,H  28)          110.2165         0.327382   
     98. A(C   5,C  15,H  32)          111.6897         0.317020   
     99. A(C   5,C  15,H  31)          110.4441         0.316805   
    100. A(H  32,C  15,H  33)          107.8478         0.283910   
    101. A(H  31,C  15,H  33)          108.2942         0.283727   
    102. A(C   5,C  15,H  33)          110.6518         0.316903   
    103. A(H  31,C  15,H  32)          107.7854         0.283827   
    104. D(C   6,C   1,C   0,H  17)   -120.9602         0.012827   
    105. D(C   2,C   1,C   0,H  17)     63.1776         0.012827   
    106. D(C   2,C   1,C   0,H  18)   -176.7716         0.012827   
    107. D(C   6,C   1,C   0,H  16)    118.9417         0.012827   
    108. D(C   2,C   1,C   0,H  16)    -56.9206         0.012827   
    109. D(C   3,C   2,C   1,C   0)   -178.4334         0.038503   
    110. D(H  19,C   2,C   1,C   0)      1.2139         0.038503   
    111. D(C   3,C   2,C   1,C   6)      5.6477         0.038503   
    112. D(H  19,C   2,C   1,C   6)   -174.7049         0.038503   
    113. D(H  20,C   3,C   2,H  19)     13.3201         0.013834   
    114. D(H  20,C   3,C   2,C   1)   -167.0271         0.013834   
    115. D(C   4,C   3,C   2,H  19)   -166.6011         0.013834   
    116. D(C   4,C   3,C   2,C   1)     13.0517         0.013834   
    117. D(C   5,C   4,C   3,C   2)      5.0671         0.040103   
    118. D(C   5,C   4,C   3,H  20)   -174.8538         0.040103   
    119. D(H  21,C   4,C   3,H  20)      1.1599         0.040103   
    120. D(H  21,C   4,C   3,C   2)   -178.9192         0.040103   
    121. D(C  15,C   5,C   4,C   3)     82.2720         0.011151   
    122. D(C  10,C   5,C   4,H  21)     23.7900         0.011151   
    123. D(C  10,C   5,C   4,C   3)   -160.2418         0.011151   
    124. D(C   6,C   5,C   4,H  21)    147.1183         0.011151   
    125. D(C   6,C   5,C   4,C   3)    -36.9135         0.011151   
    126. D(C   1,C   6,C   5,C  15)    -67.0220         0.008220   
    127. D(C   1,C   6,C   5,C   4)     50.9008         0.008220   
    128. D(H  22,C   6,C   1,C   0)     27.2510         0.011074   
    129. D(C   7,C   6,C   1,C   2)     86.0772         0.011074   
    130. D(C   1,C   6,C   5,C  10)    173.7268         0.008220   
    131. D(C   7,C   6,C   1,C   0)    -89.8158         0.011074   
    132. D(C   5,C   6,C   1,C   2)    -37.8843         0.011074   
    133. D(C   7,C   6,C   5,C   4)    -69.6972         0.008220   
    134. D(C   5,C   6,C   1,C   0)    146.2228         0.011074   
    135. D(C   7,C   6,C   5,C  15)    172.3800         0.008220   
    136. D(C   7,C   6,C   5,C  10)     53.1289         0.008220   
    137. D(H  23,C   7,C   6,C   5)     80.2708         0.009381   
    138. D(H  23,C   7,C   6,C   1)    -41.5048         0.009381   
    139. D(C   8,C   7,C   6,H  22)     80.4999         0.009381   
    140. D(C   8,C   7,C   6,C   5)    -39.3936         0.009381   
    141. D(H  23,C   7,C   6,H  22)   -159.8357         0.009381   
    142. D(C   8,C   7,C   6,C   1)   -161.1692         0.009381   
    143. D(C  13,C   8,C   7,H  23)     65.5927         0.013496   
    144. D(C  13,C   8,C   7,C   6)   -172.8045         0.013496   
    145. D(C   9,C   8,C   7,H  24)    139.9512         0.013496   
    146. D(C   9,C   8,C   7,H  23)   -103.2244         0.013496   
    147. D(C   9,C   8,C   7,C   6)     18.3785         0.013496   
    148. D(O  11,C   9,C   8,C  13)      1.1266         0.031974   
    149. D(O  11,C   9,C   8,C   7)    172.0919         0.031974   
    150. D(C  10,C   9,C   8,C  13)    178.7070         0.031974   
    151. D(C  10,C   9,C   8,C   7)    -10.3276         0.031974   
    152. D(H  25,C  10,C   9,O  11)     79.2272         0.013708   
    153. D(H  25,C  10,C   9,C   8)    -97.9820         0.013708   
    154. D(C   5,C  10,C   9,O  11)   -160.2679         0.013708   
    155. D(C   5,C  10,C   9,C   8)     22.5229         0.013708   
    156. D(H  25,C  10,C   5,C  15)    -44.7977         0.009179   
    157. D(H  25,C  10,C   5,C   6)     75.9040         0.009179   
    158. D(H  25,C  10,C   5,C   4)   -162.5698         0.009179   
    159. D(C   9,C  10,C   5,C  15)   -163.4378         0.009179   
    160. D(C   9,C  10,C   5,C   6)    -42.7361         0.009179   
    161. D(H  26,C  10,C   9,C   8)    146.0005         0.013708   
    162. D(C   9,C  10,C   5,C   4)     78.7902         0.009179   
    163. D(C  12,O  11,C   9,C  10)   -178.7879         0.041612   
    164. D(C  12,O  11,C   9,C   8)     -1.2575         0.041612   
    165. D(H  27,C  12,O  11,C   9)   -178.4664         0.040548   
    166. D(C  13,C  12,O  11,C   9)      0.8779         0.040548   
    167. D(C  14,C  13,C  12,O  11)   -173.9856         0.028249   
    168. D(C   8,C  13,C  12,H  27)    179.1539         0.028249   
    169. D(C   8,C  13,C  12,O  11)     -0.1756         0.028249   
    170. D(C  14,C  13,C   8,C   9)    173.2037         0.029376   
    171. D(C  14,C  13,C   8,C   7)      2.7695         0.029376   
    172. D(C  12,C  13,C   8,C   9)     -0.5584         0.029376   
    173. D(C  14,C  13,C  12,H  27)      5.3439         0.028249   
    174. D(C  12,C  13,C   8,C   7)   -170.9926         0.029376   
    175. D(H  30,C  14,C  13,C   8)     43.9392         0.013422   
    176. D(H  29,C  14,C  13,C  12)     96.3842         0.013422   
    177. D(H  29,C  14,C  13,C   8)    -76.1323         0.013422   
    178. D(H  28,C  14,C  13,C  12)    -23.7193         0.013422   
    179. D(H  28,C  14,C  13,C   8)    163.7642         0.013422   
    180. D(H  32,C  15,C   5,C  10)   -176.7984         0.009906   
    181. D(H  32,C  15,C   5,C   6)     61.3274         0.009906   
    182. D(H  32,C  15,C   5,C   4)    -57.0714         0.009906   
    183. D(H  31,C  15,C   5,C  10)    -56.8585         0.009906   
    184. D(H  31,C  15,C   5,C   6)   -178.7327         0.009906   
    185. D(H  31,C  15,C   5,C   4)     62.8685         0.009906   
    -----------------------------------------------------------------

Number of atoms                         .... 34
Number of degrees of freedom            .... 185


         *************************************************************
         *                GEOMETRY OPTIMIZATION CYCLE   1            *
         *************************************************************
---------------------------------
CARTESIAN COORDINATES (ANGSTROEM)
---------------------------------
  C     -1.647541    2.608052    1.555788
  C     -1.521297    1.526449    0.523499
  C     -2.183544    1.629302   -0.643077
  C     -2.096282    0.555079   -1.655969
  C     -1.580555   -0.640977   -1.339856
  C     -1.183152   -0.948438    0.095113
  C     -0.576495    0.353997    0.741168
  C      0.809213    0.746760    0.154238
  C      1.670293   -0.446942   -0.098145
  C      1.206442   -1.730907   -0.195819
  C     -0.183574   -2.142837    0.153146
  O      2.168096   -2.536252   -0.585650
  C      3.256219   -1.820073   -0.777465
  C      2.994752   -0.493349   -0.480820
  C      3.917615    0.663997   -0.683942
  C     -2.458267   -1.372702    0.861862
  H     -1.346111    3.583400    1.118548
  H     -2.700089    2.672184    1.903464
  H     -0.997249    2.401406    2.431454
  H     -2.794388    2.498753   -0.853153
  H     -2.454327    0.739625   -2.660433
  H     -1.511071   -1.406062   -2.103602
  H     -0.444984    0.174988    1.832073
  H      0.687634    1.277350   -0.815644
  H      1.326831    1.434298    0.857273
  H     -0.146099   -2.556440    1.184525
  H     -0.508627   -2.963336   -0.523087
  H      4.198397   -2.222659   -1.125288
  H      4.971743    0.315673   -0.701660
  H      3.681356    1.160588   -1.647896
  H      3.798076    1.394193    0.143396
  H     -2.880956   -2.304555    0.426951
  H     -3.244638   -0.589671    0.815705
  H     -2.227423   -1.560897    1.932523

----------------------------
CARTESIAN COORDINATES (A.U.)
----------------------------
  NO LB      ZA    FRAG     MASS         X           Y           Z
   0 C     4.0000*   0    12.011   -3.113401    4.928504    2.940013
   1 C     4.0000*   0    12.011   -2.874835    2.884571    0.989270
   2 C     4.0000*   0    12.011   -4.126300    3.078935   -1.215239
   3 C     4.0000*   0    12.011   -3.961399    1.048947   -3.129328
   4 C     4.0000*   0    12.011   -2.986816   -1.211271   -2.531961
   5 C     4.0000*   0    12.011   -2.235833   -1.792288    0.179738
   6 C     4.0000*   0    12.011   -1.089418    0.668957    1.400605
   7 C     4.0000*   0    12.011    1.529191    1.411172    0.291468
   8 C     4.0000*   0    12.011    3.156396   -0.844598   -0.185467
   9 C     4.0000*   0    12.011    2.279845   -3.270940   -0.370044
  10 C     4.0000*   0    12.011   -0.346905   -4.049375    0.289404
  11 O     6.0000*   0    15.999    4.097108   -4.792822   -1.106718
  12 C     4.0000*   0    12.011    6.153362   -3.439440   -1.469196
  13 C     4.0000*   0    12.011    5.659261   -0.932294   -0.908618
  14 C     4.0000*   0    12.011    7.403219    1.254772   -1.292463
  15 C     4.0000*   0    12.011   -4.645451   -2.594031    1.628683
  16 H     1.0000    0     1.008   -2.543781    6.771645    2.113749
  17 H     1.0000    0     1.008   -5.102429    5.049696    3.597026
  18 H     1.0000    0     1.008   -1.884527    4.538000    4.594782
  19 H     1.0000    0     1.008   -5.280628    4.721959   -1.612226
  20 H     1.0000    0     1.008   -4.638006    1.397689   -5.027490
  21 H     1.0000    0     1.008   -2.855510   -2.657072   -3.975232
  22 H     1.0000    0     1.008   -0.840898    0.330679    3.462116
  23 H     1.0000    0     1.008    1.299440    2.413842   -1.541344
  24 H     1.0000    0     1.008    2.507347    2.710430    1.620011
  25 H     1.0000    0     1.008   -0.276087   -4.830971    2.238428
  26 H     1.0000    0     1.008   -0.961166   -5.599893   -0.988491
  27 H     1.0000    0     1.008    7.933821   -4.200217   -2.126486
  28 H     1.0000    0     1.008    9.395233    0.596536   -1.325945
  29 H     1.0000    0     1.008    6.956755    2.193193   -3.114072
  30 H     1.0000    0     1.008    7.177323    2.634643    0.270979
  31 H     1.0000    0     1.008   -5.444218   -4.354978    0.806820
  32 H     1.0000    0     1.008   -6.131477   -1.114317    1.541459
  33 H     1.0000    0     1.008   -4.209219   -2.949668    3.651939
* core charge reduced due to ECP

--------------------------------
INTERNAL COORDINATES (ANGSTROEM)
--------------------------------
 C      0   0   0     0.000000000000     0.00000000     0.00000000
 C      1   0   0     1.500474317230     0.00000000     0.00000000
 C      2   1   0     1.345380761121   120.00124897     0.00000000
 C      3   2   1     1.479026677933   120.61409541   181.56655938
 C      4   3   2     1.340317769200   120.61812231    13.05170765
 C      5   4   3     1.520393844335   120.24050587     5.06706367
 C      2   1   3     1.521405371710   120.61898494   175.86225594
 C      7   2   1     1.555292982153   107.73952740   270.18424268
 C      8   7   2     1.493345375288   112.06486100   198.83076834
 C      9   8   7     1.368672379243   124.50789174    18.37846478
 C     10   9   8     1.491176507453   123.94260407   349.67235075
 O     10   9   8     1.313517108112   110.37936186   172.09190064
 C     12  10   9     1.316706883629   108.34699998   358.74250664
 C      9   8   7     1.379414878836   128.85976662   187.19549119
 C     14   9   8     1.494116604342   127.20810278     2.76948566
 C      6   5   4     1.547198188314   107.92458976    82.27195334
 H      1   2   3     1.110559581294   109.83896646   303.07942254
 H      1   2   3     1.110337249084   109.68296687    63.17755872
 H      1   2   3     1.110123055402   111.05153573   183.22842667
 H      3   2   1     1.083146970412   120.47340381     1.21394103
 H      4   3   2     1.082220576147   119.48917652   192.97289920
 H      5   4   3     1.083277912632   119.25190680   181.08082037
 H      7   2   1     1.113289308413   109.72255121    27.25097191
 H      8   7   2     1.112195259505   110.61995829   318.49520969
 H      8   7   2     1.111258343768   109.42072873    77.24430684
 H     11  10   9     1.111851815160   106.76370771   262.01796168
 H     11  10   9     1.111831431512   109.51483612   146.00054581
 H     13  12  10     1.082014653509   124.33633408   181.53358376
 H     15  14   9     1.110328499537   110.21646071   163.76422594
 H     15  14   9     1.109787479871   109.46300691   283.86770506
 H     15  14   9     1.109938708750   109.98243092    43.93918451
 H     16   6   5     1.111828935696   110.44409522    62.86845731
 H     16   6   5     1.110696792672   111.68969317   302.92857987
 H     16   6   5     1.111315116104   110.65179569   182.76938711

---------------------------
INTERNAL COORDINATES (A.U.)
---------------------------
 C      0   0   0     0.000000000000     0.00000000     0.00000000
 C      1   0   0     2.835485530547     0.00000000     0.00000000
 C      2   1   0     2.542401184365   120.00124897     0.00000000
 C      3   2   1     2.794955366056   120.61409541   181.56655938
 C      4   3   2     2.532833516217   120.61812231    13.05170765
 C      5   4   3     2.873127981492   120.24050587     5.06706367
 C      2   1   3     2.875039491209   120.61898494   175.86225594
 C      7   2   1     2.939077794278   107.73952740   270.18424268
 C      8   7   2     2.822013782652   112.06486100   198.83076834
 C      9   8   7     2.586415963831   124.50789174    18.37846478
 C     10   9   8     2.817915216424   123.94260407   349.67235075
 O     10   9   8     2.482187606551   110.37936186   172.09190064
 C     12  10   9     2.488215408707   108.34699998   358.74250664
 C      9   8   7     2.606716346057   128.85976662   187.19549119
 C     14   9   8     2.823471194350   127.20810278     2.76948566
 C      6   5   4     2.923780850813   107.92458976    82.27195334
 H      1   2   3     2.098653464048   109.83896646   303.07942254
 H      1   2   3     2.098233317061   109.68296687    63.17755872
 H      1   2   3     2.097828549662   111.05153573   183.22842667
 H      3   2   1     2.046851136865   120.47340381     1.21394103
 H      4   3   2     2.045100505413   119.48917652   192.97289920
 H      5   4   3     2.047098581801   119.25190680   181.08082037
 H      7   2   1     2.103811900723   109.72255121    27.25097191
 H      8   7   2     2.101744447910   110.61995829   318.49520969
 H      8   7   2     2.099973933756   109.42072873    77.24430684
 H     11  10   9     2.101095432156   106.76370771   262.01796168
 H     11  10   9     2.101056912644   109.51483612   146.00054581
 H     13  12  10     2.044711368022   124.33633408   181.53358376
 H     15  14   9     2.098216782813   110.21646071   163.76422594
 H     15  14   9     2.097194403810   109.46300691   283.86770506
 H     15  14   9     2.097480184975   109.98243092    43.93918451
 H     16   6   5     2.101052196235   110.44409522    62.86845731
 H     16   6   5     2.098912755974   111.68969317   302.92857987
 H     16   6   5     2.100081217924   110.65179569   182.76938711

---------------------
BASIS SET INFORMATION
---------------------
There are 3 groups of distinct atoms

 Group   1 Type C   : 6s6p2d contracted to 2s2p1d pattern {42/42/2}
 Group   2 Type O   : 6s6p2d contracted to 2s2p1d pattern {42/42/2}
 Group   3 Type H   : 8s2p contracted to 2s1p pattern {53/2}

Atom   0C    basis set group =>   1
Atom   1C    basis set group =>   1
Atom   2C    basis set group =>   1
Atom   3C    basis set group =>   1
Atom   4C    basis set group =>   1
Atom   5C    basis set group =>   1
Atom   6C    basis set group =>   1
Atom   7C    basis set group =>   1
Atom   8C    basis set group =>   1
Atom   9C    basis set group =>   1
Atom  10C    basis set group =>   1
Atom  11O    basis set group =>   2
Atom  12C    basis set group =>   1
Atom  13C    basis set group =>   1
Atom  14C    basis set group =>   1
Atom  15C    basis set group =>   1
Atom  16H    basis set group =>   3
Atom  17H    basis set group =>   3
Atom  18H    basis set group =>   3
Atom  19H    basis set group =>   3
Atom  20H    basis set group =>   3
Atom  21H    basis set group =>   3
Atom  22H    basis set group =>   3
Atom  23H    basis set group =>   3
Atom  24H    basis set group =>   3
Atom  25H    basis set group =>   3
Atom  26H    basis set group =>   3
Atom  27H    basis set group =>   3
Atom  28H    basis set group =>   3
Atom  29H    basis set group =>   3
Atom  30H    basis set group =>   3
Atom  31H    basis set group =>   3
Atom  32H    basis set group =>   3
Atom  33H    basis set group =>   3
---------------------------------
AUXILIARY/J BASIS SET INFORMATION
---------------------------------
There are 3 groups of distinct atoms

 Group   1 Type C   : 12s5p4d2f1g contracted to 6s4p3d1f1g pattern {711111/2111/211/2/1}
 Group   2 Type O   : 12s5p4d2f1g contracted to 6s4p3d1f1g pattern {711111/2111/211/2/1}
 Group   3 Type H   : 5s2p1d contracted to 3s1p1d pattern {311/2/1}

Atom   0C    basis set group =>   1
Atom   1C    basis set group =>   1
Atom   2C    basis set group =>   1
Atom   3C    basis set group =>   1
Atom   4C    basis set group =>   1
Atom   5C    basis set group =>   1
Atom   6C    basis set group =>   1
Atom   7C    basis set group =>   1
Atom   8C    basis set group =>   1
Atom   9C    basis set group =>   1
Atom  10C    basis set group =>   1
Atom  11O    basis set group =>   2
Atom  12C    basis set group =>   1
Atom  13C    basis set group =>   1
Atom  14C    basis set group =>   1
Atom  15C    basis set group =>   1
Atom  16H    basis set group =>   3
Atom  17H    basis set group =>   3
Atom  18H    basis set group =>   3
Atom  19H    basis set group =>   3
Atom  20H    basis set group =>   3
Atom  21H    basis set group =>   3
Atom  22H    basis set group =>   3
Atom  23H    basis set group =>   3
Atom  24H    basis set group =>   3
Atom  25H    basis set group =>   3
Atom  26H    basis set group =>   3
Atom  27H    basis set group =>   3
Atom  28H    basis set group =>   3
Atom  29H    basis set group =>   3
Atom  30H    basis set group =>   3
Atom  31H    basis set group =>   3
Atom  32H    basis set group =>   3
Atom  33H    basis set group =>   3
-------------------------
ECP PARAMETER INFORMATION
-------------------------

 Group 1, Type C  ECP vDZP-ECP (replacing 2 core electrons, lmax=3)
 Group 2, Type O  ECP vDZP-ECP (replacing 2 core electrons, lmax=3)

Atom   0C    ECP group =>   1
Atom   1C    ECP group =>   1
Atom   2C    ECP group =>   1
Atom   3C    ECP group =>   1
Atom   4C    ECP group =>   1
Atom   5C    ECP group =>   1
Atom   6C    ECP group =>   1
Atom   7C    ECP group =>   1
Atom   8C    ECP group =>   1
Atom   9C    ECP group =>   1
Atom  10C    ECP group =>   1
Atom  11O    ECP group =>   2
Atom  12C    ECP group =>   1
Atom  13C    ECP group =>   1
Atom  14C    ECP group =>   1
Atom  15C    ECP group =>   1



           ************************************************************
           *        Program running with 40 parallel MPI-processes    *
           *              working on a common directory               *
           ************************************************************
------------------------------------------------------------------------------
                             ORCA STARTUP CALCULATIONS
                           -- RI-GTO INTEGRALS CHOSEN --
------------------------------------------------------------------------------
------------------------------------------------------------------------------
                   ___                                                        
                  /   \      - P O W E R E D   B Y -                         
                 /     \                                                     
                 |  |  |   _    _      __       _____    __    __             
                 |  |  |  | |  | |    /  \     |  _  \  |  |  /  |          
                  \  \/   | |  | |   /    \    | | | |  |  | /  /          
                 / \  \   | |__| |  /  /\  \   | |_| |  |  |/  /          
                |  |  |   |  __  | /  /__\  \  |    /   |      \           
                |  |  |   | |  | | |   __   |  |    \   |  |\   \          
                \     /   | |  | | |  |  |  |  | |\  \  |  | \   \       
                 \___/    |_|  |_| |__|  |__|  |_| \__\ |__|  \__/        
                                                                              
                      - O R C A' S   B I G   F R I E N D -                    
                                      &                                       
                       - I N T E G R A L  F E E D E R -                       
                                                                              
 v1 FN, 2020, v2 2021, v3 2022-2024                                           
------------------------------------------------------------------------------


----------------------
SHARK INTEGRAL PACKAGE
----------------------

Number of atoms                             ...     34
Number of basis functions                   ...    298
Number of shells                            ...    134
Maximum angular momentum                    ...      2
Integral batch strategy                     ... SHARK/LIBINT Hybrid
RI-J (if used) integral strategy            ... SPLIT-RIJ (Revised 2003 algorithm where possible)
Printlevel                                  ...      1
Contraction scheme used                     ... SEGMENTED contraction
Prescreening option                         ... SCHWARTZ
   Thresh                                   ... 2.500e-11
   Tcut                                     ... 2.500e-12
   Tpresel                                  ... 2.500e-12 
Coulomb Range Separation                    ... NOT USED
Exchange Range Separation                   ... Long Range
   Mu parameter                             ... 3.000e-01
   Scaling (regular/separated)              ... 1.670e-01 8.330e-01
Multipole approximations                    ... NOT USED
Finite Nucleus Model                        ... NOT USED
CABS basis                                  ... NOT available
Auxiliary Coulomb fitting basis             ... AVAILABLE
   # of basis functions in Aux-J            ...    982
   # of shells in Aux-J                     ...    330
   Maximum angular momentum in Aux-J        ...      4
Auxiliary J/K fitting basis                 ... NOT available
Auxiliary Correlation fitting basis         ... NOT available
Auxiliary 'external' fitting basis          ... NOT available

Checking pre-screening integrals            ... done (  0.0 sec) Dimension = 134
Check shell pair data                       ... done (  0.0 sec)
Shell pair information
Shell pair cut-off parameter TPreSel        ...   2.5e-12
Total number of shell pairs                 ...      9045
Shell pairs after pre-screening             ...      8969
Total number of primitive shell pairs       ...     82302
Primitive shell pairs kept                  ...     63367
          la=0 lb=0:   2339 shell pairs
          la=1 lb=0:   3370 shell pairs
          la=1 lb=1:   1243 shell pairs
          la=2 lb=0:   1086 shell pairs
          la=2 lb=1:    795 shell pairs
          la=2 lb=2:    136 shell pairs

Calculating one electron integrals          ... done (  0.0 sec)
Calculating ECP integrals                   ... done (  0.2 sec)
Calculating RI/J V-Matrix + Cholesky decomp.... done (  0.1 sec)
Calculating Nuclear repulsion               ... done (  0.0 sec) ENN=    577.924638709890 Eh

Diagonalization of the overlap matrix:
Smallest eigenvalue                        ... 5.319e-04
Time for diagonalization                   ...    0.013 sec
Threshold for overlap eigenvalues          ... 1.000e-07
Number of eigenvalues below threshold      ... 0
Time for construction of square roots      ...    0.008 sec
Total time needed                          ...    0.025 sec

-------------------
DFT GRID GENERATION
-------------------

General Integration Accuracy     IntAcc      ... 4.388
Radial Grid Type                 RadialGrid  ... OptM3 with GC (2021)
Angular Grid (max. ang.)         AngularGrid ... 4 (Lebedev-302)
Angular grid pruning method      GridPruning ... 4 (adaptive)
Weight generation scheme         WeightScheme... mBecke (2022)
Basis function cutoff            BFCut       ... 1.0000e-11
Integration weight cutoff        WCut        ... 1.0000e-14
Partially contracted basis set               ... off
Rotationally invariant grid construction     ... off
Angular grids for H and He will be reduced by one unit

Total number of grid points                  ...   152315
Total number of batches                      ...     2398
Average number of points per batch           ...       63
Average number of grid points per atom       ...     4480

--------------------
COSX GRID GENERATION
--------------------

GRIDX 1
-------
General Integration Accuracy     IntAcc      ... 3.816
Radial Grid Type                 RadialGrid  ... OptM3 with GC (2021)
Angular Grid (max. ang.)         AngularGrid ... 1 (Lebedev-50)
Angular grid pruning method      GridPruning ... 4 (adaptive)
Weight generation scheme         WeightScheme... mBecke (2022)
Basis function cutoff            BFCut       ... 1.0000e-11
Integration weight cutoff        WCut        ... 1.0000e-14
Partially contracted basis set               ... on
Rotationally invariant grid construction     ... off
Angular grids for H and He will be reduced by one unit

Total number of grid points                  ...    19387
Total number of batches                      ...      174
Average number of points per batch           ...      111
Average number of grid points per atom       ...      570
UseSFitting                                  ... on

GRIDX 2
-------
General Integration Accuracy     IntAcc      ... 4.020
Radial Grid Type                 RadialGrid  ... OptM3 with GC (2021)
Angular Grid (max. ang.)         AngularGrid ... 2 (Lebedev-110)
Angular grid pruning method      GridPruning ... 4 (adaptive)
Weight generation scheme         WeightScheme... mBecke (2022)
Basis function cutoff            BFCut       ... 1.0000e-11
Integration weight cutoff        WCut        ... 1.0000e-14
Partially contracted basis set               ... on
Rotationally invariant grid construction     ... off
Angular grids for H and He will be reduced by one unit

Total number of grid points                  ...    41128
Total number of batches                      ...      338
Average number of points per batch           ...      121
Average number of grid points per atom       ...     1210
UseSFitting                                  ... on

GRIDX 3
-------
General Integration Accuracy     IntAcc      ... 4.338
Radial Grid Type                 RadialGrid  ... OptM3 with GC (2021)
Angular Grid (max. ang.)         AngularGrid ... 3 (Lebedev-194)
Angular grid pruning method      GridPruning ... 4 (adaptive)
Weight generation scheme         WeightScheme... mBecke (2022)
Basis function cutoff            BFCut       ... 1.0000e-11
Integration weight cutoff        WCut        ... 1.0000e-14
Partially contracted basis set               ... on
Rotationally invariant grid construction     ... off
Angular grids for H and He will be reduced by one unit

Total number of grid points                  ...    89682
Total number of batches                      ...      717
Average number of points per batch           ...      125
Average number of grid points per atom       ...     2638
UseSFitting                                  ... on
Initializing property integral containers    ... done (  0.0 sec)

SHARK setup successfully completed in   5.0 seconds

Maximum memory used throughout the entire STARTUP-calculation: 48.4 MB


           ************************************************************
           *        Program running with 40 parallel MPI-processes    *
           *              working on a common directory               *
           ************************************************************
-------------------------------------------------------------------------------
                                 ORCA GUESS
                   Start orbitals & Density for SCF / CASSCF
-------------------------------------------------------------------------------

------------
SCF SETTINGS
------------
Hamiltonian:
 Density Functional     Method          .... DFT(GTOs)
 Exchange Functional    Exchange        .... WB97X-V
 Correlation Functional Correlation     .... WB97X-V
 Gradients option       PostSCFGGA      .... off
 Hybrid DFT is turned on
   Fraction HF Exchange ScalHFX         ....  0.167000
   Scaling of DF-GGA-X  ScalDFX         ....  0.000000
   Scaling of DF-GGA-C  ScalDFC         ....  1.000000
   Scaling of DF-LDA-C  ScalLDAC        ....  1.000000
   Perturbative correction              ....  0.000000
 Long-range corrected/Screened/Range-Separated Hybrid DFT is turned on
   Amount of maximum screened exact exchange              ....  0.833000
   Range separation parameter mu (erf(mu*r12)/r12)        ....  0.300000
   NL short-range parameter             ....  6.000000
   NL long-range parameter              ....  0.010000
 RI-approximation to the Coulomb term is turned on
   Number of AuxJ basis functions       .... 982
   RIJ-COSX (HFX calculated with COS-X)).... on


General Settings:
 Integral files         IntName         .... ./output/furanoeudesma_1_3_diene/furanoeudesma_1_3_diene
 Hartree-Fock type      HFTyp           .... RHF
 Total Charge           Charge          ....    0
 Multiplicity           Mult            ....    1
 Number of Electrons    NEL             ....   84
 Basis Dimension        Dim             ....  298
 Nuclear Repulsion      ENuc            ....    577.9246387099 Eh

Convergence Acceleration:
 AO-DIIS                CNVDIIS         .... on
   Start iteration      DIISMaxIt       ....    12
   Startup error        DIISStart       ....  0.200000
   # of expansion vecs  DIISMaxEq       ....     5
   Bias factor          DIISBfac        ....   1.050
   Max. coefficient     DIISMaxC        ....  10.000
 MO-DIIS                CNVKDIIS        .... off
 Trust-Rad. Augm. Hess. CNVTRAH         .... auto
   Auto Start mean grad. ratio tolernc. ....  1.125000
   Auto Start start iteration           ....    50
   Auto Start num. interpolation iter.  ....    10
   Max. Number of Micro iterations      ....    24
   Max. Number of Macro iterations      .... Maxiter - #DIIS iter
   Number of Davidson start vectors     ....     2
   Converg. threshold    (grad. norm)   ....   1.000e-05
   Grad. Scal. Fac. for Micro threshold ....   0.100
   Minimum threshold for Micro iter.    ....   1.000e-02
   NR start threshold (gradient norm)   ....   1.000e-04
   Initial trust radius                 ....   0.400
   Minimum AH scaling param. (alpha)    ....   1.000
   Maximum AH scaling param. (alpha)    .... 1000.000
   Quad. conv. algorithm                .... NR
   White noise on init. David. guess    .... on
   Maximum white noise                  ....   0.010
   Pseudo random numbers                .... off
   Inactive MOs                         .... canonical
   Orbital update algorithm             .... Taylor
   Preconditioner                       .... Diag
   Full preconditioner red. dimension   ....   250
 SOSCF                  CNVSOSCF        .... on
   Start iteration      SOSCFMaxIt      ....   150
   Startup grad/error   SOSCFStart      ....  0.003300
   Hessian update       SOSCFHessUp     .... L-BFGS
 Level Shifting         CNVShift        .... on
   Level shift para.    LevelShift      ....    0.2500
   Turn off err/grad.   ShiftErr        ....    0.0010
 Zerner damping         CNVZerner       .... off
 Static damping         CNVDamp         .... on
   Fraction old density DampFac         ....    0.7000
   Max. Damping (<1)    DampMax         ....    0.9800
   Min. Damping (>=0)   DampMin         ....    0.0000
   Turn off err/grad.   DampErr         ....    0.1000

SCF Procedure:
 Maximum # iterations   MaxIter         ....   125
 SCF integral mode      SCFMode         .... Direct
   Integral package                     .... SHARK and LIBINT hybrid scheme
 Reset frequency        DirectResetFreq ....    20
 Integral Threshold     Thresh          ....  2.500e-11 Eh
 Primitive CutOff       TCut            ....  2.500e-12 Eh

Convergence Tolerance:
 Convergence Check Mode ConvCheckMode   .... Total+1el-Energy
 Convergence forced     ConvForced      .... 0
 Energy Change          TolE            ....  1.000e-08 Eh
 1-El. energy change                    ....  1.000e-05 Eh
 Orbital Gradient       TolG            ....  1.000e-05
 Orbital Rotation angle TolX            ....  1.000e-05
 DIIS Error             TolErr          ....  5.000e-07

------------------------------
INITIAL GUESS: MODEL POTENTIAL
------------------------------
Loading Hartree-Fock densities                     ... done
Atomic calculation to generate a density for atom 0 (C  with ECP)
  Multiplicity assumed   :    1
  Atomic configuration   : 1s2 2s2 2p2 
  Number of open shells  : 1
  Command: /home/aspe232/Project/Software/ORCA/6_0_1/build/orca ./output/furanoeudesma_1_3_diene/furanoeudesma_1_3_diene_atom6.inp "" > ./output/furanoeudesma_1_3_diene/furanoeudesma_1_3_diene_atom6.out
Returned from the atomic calculation with res=0
Atomic calculation to generate a density for atom 11 (O  with ECP)
  Multiplicity assumed   :    3
  Atomic configuration   : 1s2 2s2 2p4 
  Number of open shells  : 1
  Command: /home/aspe232/Project/Software/ORCA/6_0_1/build/orca ./output/furanoeudesma_1_3_diene/furanoeudesma_1_3_diene_atom8.inp "" > ./output/furanoeudesma_1_3_diene/furanoeudesma_1_3_diene_atom8.out
Returned from the atomic calculation with res=0
Calculating cut-offs                               ... done
Initializing the effective Hamiltonian             ... done
Setting up the integral package (SHARK)            ... done
Starting the Coulomb interaction                   ... done (   0.1 sec)
Making the grid                                    ... done (   1.0 sec)
Mapping shells                                     ... done
Starting the XC term evaluation                    ... done (   0.1 sec)
  promolecular density results
     # of electrons  =    115.990232027
     EX              =    -60.403147203
     EC              =     -4.745572636
     EX+EC           =    -65.148719839
Transforming the Hamiltonian                       ... done (   0.0 sec)
Diagonalizing the Hamiltonian                      ... done (   0.0 sec)
Back transforming the eigenvectors                 ... done (   0.0 sec)
Now organizing SCF variables                       ... done
                      ------------------
                      INITIAL GUESS DONE (   2.2 sec)
                      ------------------
             **** ENERGY FILE WAS UPDATED (./output/furanoeudesma_1_3_diene/furanoeudesma_1_3_diene.en.tmp) ****
Finished Guess after   3.1 sec
Maximum memory used throughout the entire GUESS-calculation: 31.2 MB


           ************************************************************
           *        Program running with 40 parallel MPI-processes    *
           *              working on a common directory               *
           ************************************************************

-------------------------------------------------------------------------------------------
                                      ORCA LEAN-SCF
                              memory conserving SCF solver
-------------------------------------------------------------------------------------------

----------------------------------------D-I-I-S--------------------------------------------
Iteration    Energy (Eh)           Delta-E    RMSDP     MaxDP     DIISErr   Damp  Time(sec)
-------------------------------------------------------------------------------------------
               ***  Starting incremental Fock matrix formation  ***
    1    -111.6860247855199759     0.00e+00  3.91e-03  8.63e-02  1.78e-01  0.700   7.5
    2    -111.9140637066955151    -2.28e-01  2.88e-03  6.20e-02  1.09e-01  0.700   5.6
                               ***Turning on AO-DIIS***
    3    -112.0349828701087063    -1.21e-01  1.60e-03  3.40e-02  5.77e-02  0.700   5.0
    4    -112.1068927856739492    -7.19e-02  3.50e-03  7.40e-02  3.67e-02  0.000   5.3
    5    -112.2585452255993914    -1.52e-01  2.37e-04  7.08e-03  4.95e-03  0.000   5.3
                              *** Initializing SOSCF ***
---------------------------------------S-O-S-C-F--------------------------------------
Iteration    Energy (Eh)           Delta-E    RMSDP     MaxDP     MaxGrad    Time(sec)
--------------------------------------------------------------------------------------
    6    -112.2589953035181907    -4.50e-04  1.07e-04  3.24e-03  1.94e-03     5.3
               *** Restarting incremental Fock matrix formation ***
    7    -112.2591472235383208    -1.52e-04  6.75e-05  2.38e-03  7.78e-04     7.2
    8    -112.2591678898204464    -2.07e-05  5.18e-05  1.48e-03  4.87e-04     6.7
    9    -112.2591744301289509    -6.54e-06  1.89e-05  3.05e-04  9.36e-05     6.5
   10    -112.2591755052424105    -1.08e-06  3.98e-06  7.10e-05  2.73e-05     6.1
   11    -112.2591755339493602    -2.87e-08  1.20e-06  3.13e-05  1.94e-05     5.8
   12    -112.2591755457157205    -1.18e-08  5.53e-07  1.94e-05  6.01e-06     5.2
   13    -112.2591755364908295     9.22e-09  1.83e-07  5.14e-06  1.68e-06     4.9
                 **** Energy Check signals convergence ****

               *****************************************************
               *                     SUCCESS                       *
               *           SCF CONVERGED AFTER  13 CYCLES          *
               *****************************************************

Recomputing exchange energy using gridx3       ... done (    8.029 sec)
Old exchange energy                            :    -16.114966220 Eh
New exchange energy                            :    -16.114960271 Eh
Exchange energy change after final integration :      0.000005950 Eh
Total energy after final integration           :   -112.259169587 Eh
             **** ENERGY FILE WAS UPDATED (./output/furanoeudesma_1_3_diene/furanoeudesma_1_3_diene.en.tmp) ****

----------------
TOTAL SCF ENERGY
----------------

Total Energy       :       -112.25916958669247 Eh           -3054.72730 eV

Components:
Nuclear Repulsion  :        577.92463870988990 Eh           15726.12892 eV
Electronic Energy  :       -690.18381424638073 Eh          -18780.85639 eV
One Electron Energy:      -1316.70472260725228 Eh          -35829.35703 eV
Two Electron Energy:        626.52090836087154 Eh           17048.50065 eV

Virial components:
Potential Energy   :       -199.50503574354968 Eh           -5428.80802 eV
Kinetic Energy     :         87.24586615685722 Eh            2374.08071 eV
Virial Ratio       :          2.28669900972574

DFT components:
N(Alpha)           :       42.000062408040 electrons
N(Beta)            :       42.000062408040 electrons
N(Total)           :       84.000124816080 electrons
E(X)               :      -17.108668039467 Eh       
E(C)               :       -3.210394028476 Eh       
E(XC)              :      -20.319062067943 Eh       

---------------
SCF CONVERGENCE
---------------

  Last Energy change         ...   -9.2249e-09  Tolerance :   1.0000e-08
  Last MAX-Density change    ...    5.1352e-06  Tolerance :   1.0000e-07
  Last RMS-Density change    ...    1.8269e-07  Tolerance :   5.0000e-09
  Last DIIS Error            ...    1.9437e-03  Tolerance :   5.0000e-07
  Last Orbital Gradient      ...    1.6832e-06  Tolerance :   1.0000e-05
  Last Orbital Rotation      ...    2.2344e-06  Tolerance :   1.0000e-05


----------------
ORBITAL ENERGIES
----------------

  NO   OCC          E(Eh)            E(eV) 
   0   2.0000      -1.260472       -34.2992 
   1   2.0000      -1.008836       -27.4518 
   2   2.0000      -0.959435       -26.1075 
   3   2.0000      -0.940864       -25.6022 
   4   2.0000      -0.912074       -24.8188 
   5   2.0000      -0.883941       -24.0533 
   6   2.0000      -0.870834       -23.6966 
   7   2.0000      -0.829518       -22.5723 
   8   2.0000      -0.809804       -22.0359 
   9   2.0000      -0.806469       -21.9451 
  10   2.0000      -0.774653       -21.0794 
  11   2.0000      -0.722427       -19.6582 
  12   2.0000      -0.695579       -18.9277 
  13   2.0000      -0.673011       -18.3135 
  14   2.0000      -0.659775       -17.9534 
  15   2.0000      -0.626524       -17.0486 
  16   2.0000      -0.615360       -16.7448 
  17   2.0000      -0.598518       -16.2865 
  18   2.0000      -0.577854       -15.7242 
  19   2.0000      -0.572209       -15.5706 
  20   2.0000      -0.560136       -15.2421 
  21   2.0000      -0.540052       -14.6956 
  22   2.0000      -0.534808       -14.5529 
  23   2.0000      -0.531056       -14.4508 
  24   2.0000      -0.526483       -14.3263 
  25   2.0000      -0.521823       -14.1995 
  26   2.0000      -0.515329       -14.0228 
  27   2.0000      -0.507632       -13.8134 
  28   2.0000      -0.501197       -13.6383 
  29   2.0000      -0.490073       -13.3356 
  30   2.0000      -0.480148       -13.0655 
  31   2.0000      -0.474025       -12.8989 
  32   2.0000      -0.468135       -12.7386 
  33   2.0000      -0.460740       -12.5374 
  34   2.0000      -0.456515       -12.4224 
  35   2.0000      -0.424182       -11.5426 
  36   2.0000      -0.421156       -11.4602 
  37   2.0000      -0.406064       -11.0496 
  38   2.0000      -0.401216       -10.9177 
  39   2.0000      -0.355076        -9.6621 
  40   2.0000      -0.305155        -8.3037 
  41   2.0000      -0.293942        -7.9986 
  42   0.0000       0.046400         1.2626 
  43   0.0000       0.080295         2.1849 
  44   0.0000       0.092226         2.5096 
  45   0.0000       0.095519         2.5992 
  46   0.0000       0.097316         2.6481 
  47   0.0000       0.101338         2.7575 
  48   0.0000       0.114650         3.1198 
  49   0.0000       0.120630         3.2825 
  50   0.0000       0.124057         3.3758 
  51   0.0000       0.128556         3.4982 
  52   0.0000       0.141219         3.8428 
*Only the first 10 virtual orbitals were printed.

                    ********************************
                    * MULLIKEN POPULATION ANALYSIS *
                    ********************************

-----------------------
MULLIKEN ATOMIC CHARGES
-----------------------
   0 C :   -0.081496
   1 C :   -0.055898
   2 C :   -0.026726
   3 C :   -0.054449
   4 C :    0.077310
   5 C :   -0.239851
   6 C :   -0.068310
   7 C :   -0.057472
   8 C :   -0.004661
   9 C :    0.091025
  10 C :   -0.055131
  11 O :   -0.152442
  12 C :    0.065235
  13 C :   -0.081362
  14 C :   -0.095316
  15 C :   -0.027899
  16 H :    0.055637
  17 H :    0.056803
  18 H :    0.034507
  19 H :    0.016276
  20 H :    0.018751
  21 H :    0.017478
  22 H :    0.048793
  23 H :    0.069931
  24 H :    0.049066
  25 H :    0.057636
  26 H :    0.053106
  27 H :    0.021056
  28 H :    0.041977
  29 H :    0.056208
  30 H :    0.043288
  31 H :    0.041819
  32 H :    0.053606
  33 H :    0.031504
Sum of atomic charges:   -0.0000000

--------------------------------
MULLIKEN REDUCED ORBITAL CHARGES
--------------------------------
  0 C s       :     0.954963  s :     0.954963
      pz      :     1.007018  p :     3.053377
      px      :     1.044382
      py      :     1.001978
      dz2     :     0.013473  d :     0.073155
      dxz     :     0.018106
      dyz     :     0.015930
      dx2y2   :     0.018075
      dxy     :     0.007572

  1 C s       :     1.076778  s :     1.076778
      pz      :     0.961666  p :     2.858956
      px      :     0.976484
      py      :     0.920807
      dz2     :     0.030304  d :     0.120164
      dxz     :     0.020818
      dyz     :     0.030190
      dx2y2   :     0.020462
      dxy     :     0.018391

  2 C s       :     0.994795  s :     0.994795
      pz      :     0.964713  p :     2.941101
      px      :     0.999258
      py      :     0.977130
      dz2     :     0.024678  d :     0.090830
      dxz     :     0.015224
      dyz     :     0.024382
      dx2y2   :     0.009303
      dxy     :     0.017242

  3 C s       :     1.011686  s :     1.011686
      pz      :     0.973512  p :     2.948169
      px      :     0.975651
      py      :     0.999005
      dz2     :     0.022413  d :     0.094594
      dxz     :     0.011641
      dyz     :     0.025428
      dx2y2   :     0.016666
      dxy     :     0.018446

  4 C s       :     0.999833  s :     0.999833
      pz      :     0.910903  p :     2.831955
      px      :     0.950553
      py      :     0.970498
      dz2     :     0.018164  d :     0.090902
      dxz     :     0.012050
      dyz     :     0.032932
      dx2y2   :     0.013843
      dxy     :     0.013912

  5 C s       :     1.080762  s :     1.080762
      pz      :     1.010843  p :     3.015014
      px      :     1.012647
      py      :     0.991524
      dz2     :     0.032099  d :     0.144075
      dxz     :     0.029245
      dyz     :     0.025250
      dx2y2   :     0.024945
      dxy     :     0.032537

  6 C s       :     1.023722  s :     1.023722
      pz      :     1.036110  p :     2.925269
      px      :     0.947881
      py      :     0.941278
      dz2     :     0.029924  d :     0.119319
      dxz     :     0.016118
      dyz     :     0.016839
      dx2y2   :     0.026071
      dxy     :     0.030367

  7 C s       :     0.994160  s :     0.994160
      pz      :     1.040585  p :     2.962181
      px      :     0.920321
      py      :     1.001274
      dz2     :     0.015492  d :     0.101131
      dxz     :     0.016765
      dyz     :     0.026655
      dx2y2   :     0.017261
      dxy     :     0.024958

  8 C s       :     0.976005  s :     0.976005
      pz      :     1.028345  p :     2.906160
      px      :     0.949165
      py      :     0.928650
      dz2     :     0.008666  d :     0.122496
      dxz     :     0.021838
      dyz     :     0.024212
      dx2y2   :     0.034119
      dxy     :     0.033660

  9 C s       :     1.051612  s :     1.051612
      pz      :     0.965902  p :     2.686078
      px      :     0.848364
      py      :     0.871811
      dz2     :     0.014321  d :     0.171285
      dxz     :     0.025912
      dyz     :     0.035612
      dx2y2   :     0.046033
      dxy     :     0.049407

 10 C s       :     0.983701  s :     0.983701
      pz      :     1.064732  p :     2.972358
      px      :     0.920303
      py      :     0.987323
      dz2     :     0.017908  d :     0.099072
      dxz     :     0.017262
      dyz     :     0.022295
      dx2y2   :     0.023231
      dxy     :     0.018376

 11 O s       :     1.640927  s :     1.640927
      pz      :     1.625570  p :     4.453679
      px      :     1.247258
      py      :     1.580851
      dz2     :     0.007084  d :     0.057837
      dxz     :     0.013472
      dyz     :     0.008264
      dx2y2   :     0.010209
      dxy     :     0.018807

 12 C s       :     1.048726  s :     1.048726
      pz      :     1.055209  p :     2.749912
      px      :     0.828490
      py      :     0.866213
      dz2     :     0.008209  d :     0.136127
      dxz     :     0.019528
      dyz     :     0.028087
      dx2y2   :     0.038398
      dxy     :     0.041904

 13 C s       :     1.023085  s :     1.023085
      pz      :     1.011546  p :     2.933754
      px      :     0.986265
      py      :     0.935942
      dz2     :     0.011333  d :     0.124523
      dxz     :     0.020125
      dyz     :     0.025209
      dx2y2   :     0.036045
      dxy     :     0.031811

 14 C s       :     0.949963  s :     0.949963
      pz      :     1.043833  p :     3.069763
      px      :     1.026523
      py      :     0.999407
      dz2     :     0.013015  d :     0.075591
      dxz     :     0.005205
      dyz     :     0.025223
      dx2y2   :     0.017433
      dxy     :     0.014715

 15 C s       :     0.951701  s :     0.951701
      pz      :     0.993577  p :     3.002759
      px      :     0.978495
      py      :     1.030686
      dz2     :     0.022705  d :     0.073438
      dxz     :     0.010761
      dyz     :     0.008102
      dx2y2   :     0.009609
      dxy     :     0.022262

 16 H s       :     0.900176  s :     0.900176
      pz      :     0.011965  p :     0.044188
      px      :     0.011183
      py      :     0.021039

 17 H s       :     0.899001  s :     0.899001
      pz      :     0.011539  p :     0.044196
      px      :     0.022378
      py      :     0.010279

 18 H s       :     0.921466  s :     0.921466
      pz      :     0.019015  p :     0.044027
      px      :     0.014650
      py      :     0.010362

 19 H s       :     0.934449  s :     0.934449
      pz      :     0.010694  p :     0.049274
      px      :     0.017734
      py      :     0.020846

 20 H s       :     0.932604  s :     0.932604
      pz      :     0.023581  p :     0.048645
      px      :     0.014773
      py      :     0.010291

 21 H s       :     0.933364  s :     0.933364
      pz      :     0.017623  p :     0.049159
      px      :     0.013385
      py      :     0.018151

 22 H s       :     0.911476  s :     0.911476
      pz      :     0.022357  p :     0.039730
      px      :     0.008881
      py      :     0.008492

 23 H s       :     0.887244  s :     0.887244
      pz      :     0.020971  p :     0.042824
      px      :     0.008996
      py      :     0.012858

 24 H s       :     0.907976  s :     0.907976
      pz      :     0.015424  p :     0.042959
      px      :     0.012592
      py      :     0.014942

 25 H s       :     0.899328  s :     0.899328
      pz      :     0.021833  p :     0.043036
      px      :     0.010180
      py      :     0.011023

 26 H s       :     0.904016  s :     0.904016
      pz      :     0.014939  p :     0.042879
      px      :     0.010618
      py      :     0.017321

 27 H s       :     0.927356  s :     0.927356
      pz      :     0.019267  p :     0.051588
      px      :     0.021593
      py      :     0.010728

 28 H s       :     0.913971  s :     0.913971
      pz      :     0.010259  p :     0.044052
      px      :     0.022539
      py      :     0.011253

 29 H s       :     0.899881  s :     0.899881
      pz      :     0.020538  p :     0.043911
      px      :     0.010369
      py      :     0.013003

 30 H s       :     0.912355  s :     0.912355
      pz      :     0.017675  p :     0.044357
      px      :     0.010310
      py      :     0.016371

 31 H s       :     0.915206  s :     0.915206
      pz      :     0.011495  p :     0.042975
      px      :     0.011938
      py      :     0.019542

 32 H s       :     0.901935  s :     0.901935
      pz      :     0.009423  p :     0.044460
      px      :     0.017016
      py      :     0.018021

 33 H s       :     0.925437  s :     0.925437
      pz      :     0.022656  p :     0.043059
      px      :     0.009640
      py      :     0.010763



                     *******************************
                     * LOEWDIN POPULATION ANALYSIS *
                     *******************************

----------------------
LOEWDIN ATOMIC CHARGES
----------------------
   0 C :   -0.115241
   1 C :   -0.026854
   2 C :   -0.062063
   3 C :   -0.054022
   4 C :   -0.025350
   5 C :   -0.057263
   6 C :   -0.041497
   7 C :   -0.065506
   8 C :   -0.071741
   9 C :   -0.039783
  10 C :   -0.069982
  11 O :    0.075596
  12 C :   -0.048981
  13 C :   -0.079948
  14 C :   -0.115165
  15 C :   -0.105106
  16 H :    0.056625
  17 H :    0.057302
  18 H :    0.050387
  19 H :    0.038025
  20 H :    0.040288
  21 H :    0.037359
  22 H :    0.052906
  23 H :    0.059288
  24 H :    0.052158
  25 H :    0.055553
  26 H :    0.056966
  27 H :    0.036639
  28 H :    0.055768
  29 H :    0.054461
  30 H :    0.052650
  31 H :    0.050363
  32 H :    0.052221
  33 H :    0.043949

-------------------------------
LOEWDIN REDUCED ORBITAL CHARGES
-------------------------------
  0 C s       :     0.775804  s :     0.775804
      pz      :     1.019460  p :     3.102156
      px      :     1.062553
      py      :     1.020143
      dz2     :     0.044435  d :     0.237281
      dxz     :     0.059288
      dyz     :     0.049103
      dx2y2   :     0.060148
      dxy     :     0.024307

  1 C s       :     0.792082  s :     0.792082
      pz      :     1.001111  p :     2.856434
      px      :     0.921072
      py      :     0.934250
      dz2     :     0.093871  d :     0.378338
      dxz     :     0.067291
      dyz     :     0.093404
      dx2y2   :     0.063188
      dxy     :     0.060584

  2 C s       :     0.798334  s :     0.798334
      pz      :     1.003845  p :     2.967927
      px      :     0.974354
      py      :     0.989728
      dz2     :     0.084047  d :     0.295802
      dxz     :     0.052671
      dyz     :     0.077032
      dx2y2   :     0.026571
      dxy     :     0.055481

  3 C s       :     0.803783  s :     0.803783
      pz      :     1.013410  p :     2.946354
      px      :     0.916304
      py      :     1.016640
      dz2     :     0.073250  d :     0.303885
      dxz     :     0.036915
      dyz     :     0.083783
      dx2y2   :     0.053227
      dxy     :     0.056711

  4 C s       :     0.804456  s :     0.804456
      pz      :     0.984823  p :     2.921834
      px      :     0.895834
      py      :     1.041177
      dz2     :     0.060339  d :     0.299060
      dxz     :     0.044241
      dyz     :     0.113424
      dx2y2   :     0.041522
      dxy     :     0.039533

  5 C s       :     0.753334  s :     0.753334
      pz      :     0.976304  p :     2.877976
      px      :     0.953764
      py      :     0.947908
      dz2     :     0.094562  d :     0.425953
      dxz     :     0.083548
      dyz     :     0.078218
      dx2y2   :     0.074517
      dxy     :     0.095108

  6 C s       :     0.756635  s :     0.756635
      pz      :     1.020672  p :     2.918529
      px      :     0.945636
      py      :     0.952222
      dz2     :     0.094643  d :     0.366333
      dxz     :     0.049064
      dyz     :     0.052090
      dx2y2   :     0.078441
      dxy     :     0.092096

  7 C s       :     0.757693  s :     0.757693
      pz      :     1.045748  p :     2.991411
      px      :     0.949976
      py      :     0.995687
      dz2     :     0.048317  d :     0.316403
      dxz     :     0.052217
      dyz     :     0.083763
      dx2y2   :     0.056582
      dxy     :     0.075524

  8 C s       :     0.758768  s :     0.758768
      pz      :     0.938204  p :     2.918108
      px      :     0.989034
      py      :     0.990869
      dz2     :     0.031685  d :     0.394864
      dxz     :     0.065389
      dyz     :     0.069288
[...]
 58:   1266.54   0.000741    3.74  0.000182  ( 0.011422 -0.007213  0.000067)
 59:   1296.54   0.001120    5.66  0.000270  ( 0.010455  0.012498 -0.002034)
 60:   1319.47   0.000466    2.36  0.000110  ( 0.002027  0.009918  0.002790)
 61:   1332.90   0.001904    9.62  0.000446  ( 0.015629 -0.014197 -0.000231)
 62:   1347.12   0.000172    0.87  0.000040  (-0.002823 -0.005022 -0.002579)
 63:   1362.50   0.000645    3.26  0.000148  (-0.009865 -0.006563  0.002692)
 64:   1392.16   0.000902    4.56  0.000202  ( 0.012373  0.004819 -0.005097)
 65:   1421.64   0.002292   11.59  0.000503  ( 0.007713 -0.021042 -0.000987)
 66:   1425.95   0.000911    4.60  0.000199  (-0.009084  0.008507  0.006666)
 67:   1433.15   0.001845    9.32  0.000402  (-0.013479 -0.012212  0.008416)
 68:   1450.96   0.001641    8.29  0.000353  ( 0.007851 -0.014068 -0.009662)
 69:   1453.75   0.001859    9.40  0.000399  (-0.009591 -0.017085  0.003895)
 70:   1461.99   0.000753    3.81  0.000161  (-0.010502 -0.006662 -0.002462)
 71:   1503.84   0.002277   11.51  0.000472  (-0.015980  0.014710  0.000842)
 72:   1508.00   0.002446   12.36  0.000506  (-0.006610 -0.019130  0.009825)
 73:   1512.28   0.002492   12.60  0.000514  ( 0.011937  0.000661 -0.019271)
 74:   1515.15   0.002770   14.00  0.000570  ( 0.019806  0.001541  0.013259)
 75:   1518.37   0.000886    4.48  0.000182  ( 0.000667  0.002185 -0.013300)
 76:   1518.76   0.002745   13.87  0.000564  ( 0.021532 -0.008636  0.005086)
 77:   1526.52   0.000936    4.73  0.000191  (-0.002351 -0.013630  0.000289)
 78:   1530.57   0.000816    4.12  0.000166  ( 0.005189  0.006623  0.009774)
 79:   1545.00   0.000415    2.10  0.000084  (-0.004503 -0.006733  0.004260)
 80:   1671.59   0.001174    5.94  0.000219  ( 0.007349  0.012841 -0.000605)
 81:   1723.65   0.001823    9.21  0.000330  (-0.003810 -0.007026 -0.016317)
 82:   1764.00   0.001681    8.50  0.000297  ( 0.012649  0.011707  0.000577)
 83:   1775.15   0.001532    7.74  0.000269  (-0.005602 -0.006638 -0.013922)
 84:   3092.16   0.003098   15.66  0.000313  ( 0.004090 -0.013486 -0.010678)
 85:   3092.41   0.001519    7.68  0.000153  ( 0.001455  0.012260 -0.000928)
 86:   3095.05   0.005407   27.32  0.000545  ( 0.011349  0.015050  0.013778)
 87:   3098.15   0.013853   70.01  0.001395  (-0.014150 -0.021490  0.027080)
 88:   3104.72   0.001522    7.69  0.000153  ( 0.002791 -0.011247 -0.004323)
 89:   3105.51   0.009580   48.41  0.000963  ( 0.017660  0.025509  0.000305)
 90:   3146.77   0.001668    8.43  0.000165  ( 0.004026  0.005903  0.010694)
 91:   3153.96   0.002384   12.05  0.000236  (-0.004676 -0.003064 -0.014306)
 92:   3168.67   0.001736    8.77  0.000171  (-0.010504 -0.006667  0.004028)
 93:   3182.21   0.003331   16.83  0.000327  ( 0.009296  0.005511  0.014486)
 94:   3186.21   0.001518    7.67  0.000149  (-0.001830  0.000229 -0.012053)
 95:   3205.23   0.002469   12.48  0.000240  ( 0.010050 -0.011068  0.004109)
 96:   3207.40   0.001983   10.02  0.000193  ( 0.011856 -0.006792 -0.002506)
 97:   3213.23   0.001947    9.84  0.000189  ( 0.009051 -0.010090  0.002306)
 98:   3230.49   0.000020    0.10  0.000002  ( 0.000615  0.000257 -0.001237)
 99:   3240.05   0.003863   19.52  0.000372  ( 0.007392 -0.016982 -0.005383)
100:   3259.07   0.003397   17.17  0.000325  ( 0.008866 -0.002265  0.015542)
101:   3341.51   0.000048    0.24  0.000005  ( 0.000729  0.001994  0.000087)

* The epsilon (eps) is given for a Dirac delta lineshape.
** The dipole moment derivative (T) already includes vibrational overlap.

The first frequency considered to be a vibration is 6
The total number of vibrations considered is 96


--------------------------
THERMOCHEMISTRY AT 298.15K
--------------------------

Temperature         ...   298.15 K
Pressure            ...     1.00 atm
Total Mass          ...   214.31 AMU
Quasi RRHO          ...     True
Cut-Off Frequency   ...     1.00 cm^-1

Throughout the following assumptions are being made:
  (1) The electronic state is orbitally nondegenerate
  (2) There are no thermally accessible electronically excited states
  (3) Hindered rotations indicated by low frequency modes are not
      treated as such but are treated as vibrations and this may
      cause some error
  (4) All equations used are the standard statistical mechanics
      equations for an ideal gas
  (5) All vibrations are strictly harmonic

freq.      54.60  E(vib)   ...       0.52 
freq.      91.17  E(vib)   ...       0.47 
freq.     125.63  E(vib)   ...       0.43 
freq.     143.09  E(vib)   ...       0.41 
freq.     163.56  E(vib)   ...       0.39 
freq.     185.35  E(vib)   ...       0.37 
freq.     209.28  E(vib)   ...       0.34 
freq.     232.18  E(vib)   ...       0.32 
freq.     250.58  E(vib)   ...       0.30 
freq.     272.93  E(vib)   ...       0.29 
freq.     281.53  E(vib)   ...       0.28 
freq.     298.68  E(vib)   ...       0.26 
freq.     322.99  E(vib)   ...       0.25 
freq.     330.19  E(vib)   ...       0.24 
freq.     371.47  E(vib)   ...       0.21 
freq.     414.93  E(vib)   ...       0.19 
freq.     440.41  E(vib)   ...       0.17 
freq.     501.40  E(vib)   ...       0.14 
freq.     507.49  E(vib)   ...       0.14 
freq.     552.01  E(vib)   ...       0.12 
freq.     569.57  E(vib)   ...       0.11 
freq.     628.37  E(vib)   ...       0.09 
freq.     634.04  E(vib)   ...       0.09 
freq.     650.58  E(vib)   ...       0.08 
freq.     686.04  E(vib)   ...       0.07 
freq.     715.85  E(vib)   ...       0.07 
freq.     753.59  E(vib)   ...       0.06 
freq.     776.09  E(vib)   ...       0.05 
freq.     787.73  E(vib)   ...       0.05 
freq.     807.92  E(vib)   ...       0.05 
freq.     843.85  E(vib)   ...       0.04 
freq.     892.21  E(vib)   ...       0.03 
freq.     903.70  E(vib)   ...       0.03 
freq.     960.88  E(vib)   ...       0.03 
freq.     986.51  E(vib)   ...       0.02 
freq.     996.86  E(vib)   ...       0.02 
freq.    1007.31  E(vib)   ...       0.02 
freq.    1009.24  E(vib)   ...       0.02 
freq.    1031.09  E(vib)   ...       0.02 
freq.    1033.14  E(vib)   ...       0.02 
freq.    1066.18  E(vib)   ...       0.02 
freq.    1079.75  E(vib)   ...       0.02 
freq.    1086.03  E(vib)   ...       0.02 
freq.    1092.22  E(vib)   ...       0.02 
freq.    1111.51  E(vib)   ...       0.01 
freq.    1147.59  E(vib)   ...       0.01 
freq.    1175.53  E(vib)   ...       0.01 
freq.    1186.76  E(vib)   ...       0.01 
freq.    1193.73  E(vib)   ...       0.01 
freq.    1219.78  E(vib)   ...       0.01 
freq.    1232.96  E(vib)   ...       0.01 
freq.    1251.02  E(vib)   ...       0.01 
freq.    1266.54  E(vib)   ...       0.01 
freq.    1296.54  E(vib)   ...       0.01 
freq.    1319.47  E(vib)   ...       0.01 
freq.    1332.90  E(vib)   ...       0.01 
freq.    1347.12  E(vib)   ...       0.01 
freq.    1362.50  E(vib)   ...       0.01 
freq.    1392.16  E(vib)   ...       0.00 
freq.    1421.64  E(vib)   ...       0.00 
freq.    1425.95  E(vib)   ...       0.00 
freq.    1433.15  E(vib)   ...       0.00 
freq.    1450.96  E(vib)   ...       0.00 
freq.    1453.75  E(vib)   ...       0.00 
freq.    1461.99  E(vib)   ...       0.00 
freq.    1503.84  E(vib)   ...       0.00 
freq.    1508.00  E(vib)   ...       0.00 
freq.    1512.28  E(vib)   ...       0.00 
freq.    1515.15  E(vib)   ...       0.00 
freq.    1518.37  E(vib)   ...       0.00 
freq.    1518.76  E(vib)   ...       0.00 
freq.    1526.52  E(vib)   ...       0.00 
freq.    1530.57  E(vib)   ...       0.00 
freq.    1545.00  E(vib)   ...       0.00 
freq.    1671.59  E(vib)   ...       0.00 
freq.    1723.65  E(vib)   ...       0.00 
freq.    1764.00  E(vib)   ...       0.00 
freq.    1775.15  E(vib)   ...       0.00 
freq.    3092.16  E(vib)   ...       0.00 
freq.    3092.41  E(vib)   ...       0.00 
freq.    3095.05  E(vib)   ...       0.00 
freq.    3098.15  E(vib)   ...       0.00 
freq.    3104.72  E(vib)   ...       0.00 
freq.    3105.51  E(vib)   ...       0.00 
freq.    3146.77  E(vib)   ...       0.00 
freq.    3153.96  E(vib)   ...       0.00 
freq.    3168.67  E(vib)   ...       0.00 
freq.    3182.21  E(vib)   ...       0.00 
freq.    3186.21  E(vib)   ...       0.00 
freq.    3205.23  E(vib)   ...       0.00 
freq.    3207.40  E(vib)   ...       0.00 
freq.    3213.23  E(vib)   ...       0.00 
freq.    3230.49  E(vib)   ...       0.00 
freq.    3240.05  E(vib)   ...       0.00 
freq.    3259.07  E(vib)   ...       0.00 
freq.    3341.51  E(vib)   ...       0.00 

------------
INNER ENERGY
------------

The inner energy is: U= E(el) + E(ZPE) + E(vib) + E(rot) + E(trans)
    E(el)   - is the total energy from the electronic structure calculation
              = E(kin-el) + E(nuc-el) + E(el-el) + E(nuc-nuc)
    E(ZPE)  - the the zero temperature vibrational energy from the frequency calculation
    E(vib)  - the the finite temperature correction to E(ZPE) due to population
              of excited vibrational states
    E(rot)  - is the rotational thermal energy
    E(trans)- is the translational thermal energy

Summary of contributions to the inner energy U:
Electronic energy                ...   -112.33035856 Eh
Zero point energy                ...      0.30064398 Eh     188.66 kcal/mol
Thermal vibrational correction   ...      0.01129605 Eh       7.09 kcal/mol
Thermal rotational correction    ...      0.00141627 Eh       0.89 kcal/mol
Thermal translational correction ...      0.00141627 Eh       0.89 kcal/mol
-----------------------------------------------------------------------
Total thermal energy                   -112.01558598 Eh


Summary of corrections to the electronic energy:
(perhaps to be used in another calculation)
Total thermal correction                  0.01412860 Eh       8.87 kcal/mol
Non-thermal (ZPE) correction              0.30064398 Eh     188.66 kcal/mol
-----------------------------------------------------------------------
Total correction                          0.31477258 Eh     197.52 kcal/mol


--------
ENTHALPY
--------

The enthalpy is H = U + kB*T
                kB is Boltzmann's constant
Total thermal energy              ...   -112.01558598 Eh 
Thermal Enthalpy correction       ...      0.00094421 Eh       0.59 kcal/mol
-----------------------------------------------------------------------
Total Enthalpy                    ...   -112.01464178 Eh


Note: Only C1 symmetry has been detected, increase convergence thresholds 
      if your molecule has a higher symmetry. Symmetry factor of 1.0 is   
      used for the rotational entropy correction. 
 

Note: Rotational entropy computed according to Herzberg 
Infrared and Raman Spectra, Chapter V,1, Van Nostrand Reinhold, 1945 
Point Group:  C1, Symmetry Number:   1  
Rotational constants in cm-1:     0.031685     0.013770     0.011447 

Vibrational entropy computed according to the QRRHO of S. Grimme
Chem.Eur.J. 2012 18 9955 using a reference frequency of 100.0 cm-1


-------
ENTROPY
-------

The entropy contributions are T*S = T*(S(el)+S(vib)+S(rot)+S(trans))
     S(el)   - electronic entropy
     S(vib)  - vibrational entropy
     S(rot)  - rotational entropy
     S(trans)- translational entropy
The entropies will be listed as multiplied by the temperature to get
units of energy

Electronic entropy                ...      0.00000000 Eh      0.00 kcal/mol
Vibrational entropy               ...      0.01893195 Eh     11.88 kcal/mol
Rotational entropy                ...      0.01527370 Eh      9.58 kcal/mol
Translational entropy             ...      0.01995079 Eh     12.52 kcal/mol
-----------------------------------------------------------------------
Final entropy term                ...      0.05415643 Eh     33.98 kcal/mol

In case the symmetry of your molecule has not been determined correctly
or in case you have a reason to use a different symmetry number we print 
out the resulting rotational entropy values for sn=1,12:

 non-linear molecules -----------------------------------
|  sn= 1 | S(rot)=       0.01527370 Eh      9.58 kcal/mol|
|  sn= 2 | S(rot)=       0.01461924 Eh      9.17 kcal/mol|
|  sn= 3 | S(rot)=       0.01423641 Eh      8.93 kcal/mol|
|  sn= 4 | S(rot)=       0.01396479 Eh      8.76 kcal/mol|
|  sn= 5 | S(rot)=       0.01375410 Eh      8.63 kcal/mol|
|  sn= 6 | S(rot)=       0.01358195 Eh      8.52 kcal/mol|
|  sn= 7 | S(rot)=       0.01343641 Eh      8.43 kcal/mol|
|  sn= 8 | S(rot)=       0.01331033 Eh      8.35 kcal/mol|
|  sn= 9 | S(rot)=       0.01319912 Eh      8.28 kcal/mol|
|  sn=10 | S(rot)=       0.01309964 Eh      8.22 kcal/mol|
|  sn=11 | S(rot)=       0.01300965 Eh      8.16 kcal/mol|
|  sn=12 | S(rot)=       0.01292750 Eh      8.11 kcal/mol|
 linear molecules ---------------------------------------
|  Dinfh | S(rot)=       0.00954632 Eh      5.99 kcal/mol|
|  Cinfv | S(rot)=       0.01020078 Eh      6.40 kcal/mol|
 --------------------------------------------------------


-------------------
GIBBS FREE ENERGY
-------------------

The Gibbs free energy is G = H - T*S

Total enthalpy                    ...   -112.01464178 Eh 
Total entropy correction          ...     -0.05415643 Eh    -33.98 kcal/mol
-----------------------------------------------------------------------
Final Gibbs free energy         ...   -112.06879821 Eh

For completeness - the Gibbs free energy minus the electronic energy
G-E(el)                           ...      0.26156035 Eh    164.13 kcal/mol


Maximum memory used throughout the entire PROP-calculation: 204.4 MB

--------------------------------
SUGGESTED CITATIONS FOR THIS RUN
--------------------------------

Below you find a list of papers that are relevant to this ORCA run
We neither can nor want to force you to cite these papers, but we appreciate if you do
You receive ORCA, which is the product of decades of hard work by many enthusiastic individuals, for free
The only thing we kindly ask in return is that you cite our papers,
We deeply appreciate it, if you show your appreciation for ORCA by not just citing the generic ORCA reference.

Please note that relegating all ORCA citations to the supporting information does *not* help us.
SI sections are not indexed - citations you put there will not count into any citation statistics
But we need these citations in order to attract the funding resources that allow us to do what we are doing

Therefore, if you are a happy ORCA user, please consider citing a few of the papers listed below in the main body of your paper

In addition to the list printed below, the program has created the file ./output/furanoeudesma_1_3_diene/furanoeudesma_1_3_diene.bibtex that contains the list in bibtex format
You can import this file easily into all common literature databanks and citation aid programs


List of essential papers. We consider these as the minimum necessary citations

  1. Neese,F.
     Software update: the ORCA program system, version 5.0
     WIRES Comput. Molec. Sci., 2022 12(1)e1606
     doi.org/10.1002/wcms.1606
  2. Mueller,M.; Hansen,A.; Grimme,S.
     wB97X-3c: A composite range-separated hybrid DFT method with a molecule-optimized polarized valence double-zeta basis set
     J. Chem. Phys., 2023 158 014103
     doi.org/10.1063/5.0133026

List of papers to cite with high priority. The work reported in these papers was absolutely
necessary for this run to complete.
Our perspective: the developers of density functionals and basis sets usually get cited in chemistry papers
Good! But without the algorithms to do something with them, the functionals or basis sets would not do anything.
Hence, in our opinion, the algorithm design and method developments papers are equally worthy of getting cited

  1. Neese,F.
     An improvement of the resolution of the identity approximation for the formation of the Coulomb matrix
     J. Comp. Chem., 2003 24(14)1740-1747
     doi.org/10.1002/jcc.10318
  2. Neese,F.; Wennmohs,F.; Hansen,A.; Becker,U.
     Efficient, approximate and parallel Hartree-Fock and hybrid DFT calculations. A 'chain-of-spheres' algorithm for the Hartree-Fock exchange
     Chem. Phys., 2009 356(1-3)98-109
     doi.org/10.1016/j.chemphys.2008.10.036
  3. Bykov,D.; Petrenko,T.; Izsak,R.; Kossmann,S.; Becker,U.; Valeev,E.; Neese,F.
     Efficient implementation of the analytic second derivatives of Hartree-Fock and hybrid DFT energies: a detailed analysis of different approximations
     Molec. Phys., 2015 113 1961-1977
     doi.org/10.1080/00268976.2015.1025114
  4. Helmich-Paris,B.; de Souza,B.; Neese,F.; Izsák,R.
     An improved chain of spheres for exchange algorithm
     J. Chem. Phys., 2021 155 104109
     doi.org/doi: 10.1063/5.0058766.
  5. Neese,F.
     The SHARK Integral Generation and Digestion System
     J. Comp. Chem., 2022  1-16
     doi.org/10.1002/jcc.26942
  6. Caldeweyher,E.; Bannwarth,C.; Grimme,S.
     Extension of the D3 dispersion coefficient model
     J. Chem. Phys., 2017 147 034112
     doi.org/10.1063/1.4993215
  7. Caldeweyher,E.; Ehlert,S.; Hansen,A.; Neugebauer,H.; Spicher,S.; Bannwarth,C.; Grimme,S.
     A generally applicable atomic-charge dependent London dispersion correction
     J. Chem. Phys., 2019 150 154122
     doi.org/10.1063/1.5090222
  8. Caldeweyher,E.; Mewes,J.; Ehlert,S.; Grimme,S.
     Extension and evaluation of the D4 London-dispersion model for periodic systems
     Phys. Chem. Chem. Phys., 2020 22(16)8499-8512
     doi.org/10.1039/D0CP00502A
  9. Wittmann,L.; Gordiy,I.; Friede,M.; Helmich-Paris,B.; Grimme,S.; Hansen,A.; Bursch,M.
     Extension of the D3 and D4 London Dispersion Corrections to the full Actinides Series
     Phys. Chem. Chem. Phys., 2024 26(32)21379-21394
     doi.org/https://doi.org/10.1039/D4CP01514B 

List of suggested additional citations. These are papers that are important in the 'surrounding' of 
of this run, or papers that preceded the highly important papers. If you like your results we are grateful for a citation.

  1. Izsak,R.; Neese,F.
     An overlap fitted chain of spheres exchange method
     J. Chem. Phys., 2011 135 144105
     doi.org/10.1063/1.3646921
  2. Izsak,R.; Hansen,A.; Neese,F.
     The resolution of identity and chain of spheres approximations for the LPNO-CCSD singles Fock term
     Molec. Phys., 2012 110 2413-2417
     doi.org/10.1080/00268976.2012.687466
  3. Neese,F.
     The ORCA program system
     WIRES Comput. Molec. Sci., 2012 2(1)73-78
     doi.org/10.1002/wcms.81
  4. Izsak,R.; Neese,F.; Klopper,W.
     Robust fitting techniques in the chain of spheres approximation to the Fock exchange: The role of the complementary space
     J. Chem. Phys., 2013 139 
     doi.org/10.1063/1.4819264
  5. Neese,F.
     Software update: the ORCA program system, version 4.0
     WIRES Comput. Molec. Sci., 2018 8(1)1-6
     doi.org/10.1002/wcms.1327
  6. Neese,F.; Wennmohs,F.; Becker,U.; Riplinger,C.
     The ORCA quantum chemistry program package
     J. Chem. Phys., 2020 152 Art. No. L224108
     doi.org/10.1063/5.0004608

List of optional additional citations

  1. Neese,F.
     Approximate second-order SCF convergence for spin unrestricted wavefunctions
     Chem. Phys. Lett., 2000 325(1-3)93-98
     doi.org/10.1016/s0009-2614(00)00662-x

Timings for individual modules:

Sum of individual times          ...     1890.814 sec (=  31.514 min)
Startup calculation              ...       84.809 sec (=   1.413 min)   4.5 %
SCF iterations                   ...     1157.443 sec (=  19.291 min)  61.2 %
Property integrals               ...      112.793 sec (=   1.880 min)   6.0 %
SCF Response                     ...       77.130 sec (=   1.286 min)   4.1 %
Property calculations            ...      193.510 sec (=   3.225 min)  10.2 %
SCF Gradient evaluation          ...      264.689 sec (=   4.411 min)  14.0 %
Geometry relaxation              ...        0.441 sec (=   0.007 min)   0.0 %
                             ****ORCA TERMINATED NORMALLY****
TOTAL RUN TIME: 0 days 0 hours 31 minutes 39 seconds 484 msec
