
                                 *****************
                                 * O   R   C   A *
                                 *****************

                                            #,                                       
                                            ###                                      
                                            ####                                     
                                            #####                                    
                                            ######                                   
                                           ########,                                 
                                     ,,################,,,,,                         
                               ,,#################################,,                 
                          ,,##########################################,,             
                       ,#########################################, ''#####,          
                    ,#############################################,,   '####,        
                  ,##################################################,,,,####,       
                ,###########''''           ''''###############################       
              ,#####''   ,,,,##########,,,,          '''####'''          '####       
            ,##' ,,,,###########################,,,                        '##       
           ' ,,###''''                  '''############,,,                           
         ,,##''                                '''############,,,,        ,,,,,,###''
      ,#''                                            '''#######################'''  
     '                                                          ''''####''''         
             ,#######,   #######,   ,#######,      ##                                
            ,#'     '#,  ##    ##  ,#'     '#,    #''#        ,####,   ,####,        
            ##       ##  ##   ,#'  ##            #'  '#       #'       #'  '#        
            ##       ##  #######   ##           ,######,      #####,   #    #        
            '#,     ,#'  ##    ##  '#,     ,#' ,#      #,     #,   #   #,  ,#        
             '#######'   ##     ##  '#######'  #'      '#     '####' # '####'        



                #########################################################
                #                        -***-                          #
                #          Department of theory and spectroscopy        #
                #                                                       #
                #                      Frank Neese                      #
                #                                                       #
                #     Directorship, Architecture, Infrastructure        #
                #                    SHARK, DRIVERS                     #
                #        Core code/Algorithms in most modules           #
                #                                                       #
                #        Max Planck Institute fuer Kohlenforschung      #
                #                Kaiser Wilhelm Platz 1                 #
                #                 D-45470 Muelheim/Ruhr                 #
                #                      Germany                          #
                #                                                       #
                #                  All rights reserved                  #
                #                        -***-                          #
                #########################################################


                         Program Version 6.0.1  -  RELEASE   -


 With contributions from (in alphabetic order):
[Max-Planck-Institut fuer Kohlenforschung]                               
  Daniel Aravena         : Magnetic Suceptibility                        
  Michael Atanasov       : Ab Initio Ligand Field Theory (pilot matlab implementation)
  Alexander A. Auer      : GIAO ZORA, VPT2 properties, NMR spectrum      
  Ute Becker             : All parallelization in ORCA, NUMFREQ, NUMCALC 
  Giovanni Bistoni       : ED, misc. LED, open-shell LED, HFLD           
  Martin Brehm           : Molecular dynamics                            
  Dmytro Bykov           : pre 5.0 version of the SCF Hessian            
  Marcos Casanova-Páez   : Triplet and SCS-CIS(D). UHF-(DLPNO)-IP/EA/STEOM-CCSD. UHF-CVS-IP/STEOM-CCSD   
  Vijay G. Chilkuri      : MRCI spin determinant printing, contributions to CSF-ICE 
  Pauline Colinet        : FMM embedding                                 
  Dipayan Datta          : RHF DLPNO-CCSD density                        
  Achintya Kumar Dutta   : EOM-CC, STEOM-CC                              
  Nicolas Foglia         : Exact transition moments, OPA infrastructure, MCD improvements    
  Dmitry Ganyushin       : Spin-Orbit,Spin-Spin,Magnetic field MRCI      
  Miquel Garcia-Rates    : C-PCM and meta-GGA Hessian, CCSD/C-PCM, Gaussian charge scheme 
  Tiago L. C. Gouveia    : GS-ROHF, GS-ROCIS                             
  Yang Guo               : DLPNO-NEVPT2, F12-NEVPT2, CIM, IAO-localization        
  Andreas Hansen         : Spin unrestricted coupled pair/coupled cluster methods 
  Ingolf Harden          : AUTO-CI MPn and infrastructure                
  Benjamin Helmich-Paris : MC-RPA, TRAH-(SCF,CASSCF), AVAS, COSX integrals, SCF dyn. polar. 
  Lee Huntington         : MR-EOM, pCC                                   
  Robert Izsak           : Overlap fitted RIJCOSX, COSX-SCS-MP3, EOM     
  Riya Kayal             : Wick's Theorem for AUTO-CI, AUTO-CI UHF-CCSDT 
  Emily Kempfer          : AUTO-CI, RHF CISDT and CCSDT                  
  Christian Kollmar      : KDIIS, OOCD, Brueckner-CCSD(T), CCSD density, CASPT2, CASPT2-K, improved NEVPT2 
  Axel Koslowski         : Symmetry handling                             
  Simone Kossmann        : meta-GGA functionals, TD-DFT gradient, OOMP2, (MP2 Hessian; deprecated post 5.0) 
  Lucas Lang             : DCDCAS                                        
  Marvin Lechner         : AUTO-CI (C++ implementation), FIC-MRCC        
  Spencer Leger          : CASSCF response                               
  Dagmar Lenk            : GEPOL surface, SMD, ORCA-2-JSON               
  Dimitrios Liakos       : Extrapolation schemes; Compound Job, initial MDCI parallelization 
  Dimitrios Manganas     : Further ROCIS development; embedding schemes. LFT, Crystal Embedding 
  Dimitrios Pantazis     : SARC Basis sets                               
  Anastasios Papadopoulos: AUTO-CI, single reference methods and gradients 
  Taras Petrenko         : pre 6.0 DFT Hessian and TD-DFT gradient, (ASA, deprecated), ECA, 1-Electron XAS/XES, NRVS 
  Peter Pinski           : DLPNO-MP2, DLPNO-MP2 Gradient                 
  Christoph Reimann      : Effective Core Potentials                     
  Marius Retegan         : Local ZFS, SOC                                
  Christoph Riplinger    : Optimizer, TS searches, QM/MM, DLPNO-CCSD(T), (RO)-DLPNO pert. Triples 
  Michael Roemelt        : Original ROCIS implementation                 
  Masaaki Saitow         : Open-shell DLPNO-CCSD energy and density      
  Barbara Sandhoefer     : DKH picture change effects                    
  Kantharuban Sivalingam : CASSCF convergence/infrastructure, NEVPT2 and variants, FIC-MRCI 
  Bernardo de Souza      : ESD, SOC TD-DFT                               
  Georgi L. Stoychev     : AutoAux, RI-MP2 NMR, DLPNO-MP2 response, X2C  
  Van Anh Tran           : RI-MP2 g-tensors                              
  Willem Van den Heuvel  : Paramagnetic NMR                              
  Zikuan Wang            : NOTCH, Electric field optimization            
  Frank Wennmohs         : Technical directorship and infrastructure     
  Hang Xu                : AUTO-CI-Response properties                   
                                                                         
[FACCTs GmbH]                                                            
  Markus Bursch, Miquel Garcia-Rates, Christoph Riplinger, Bernardo de Souza, Georgi L. Stoychev 
                                                                 
  APM, Basis sets (HGBS, AHGBS, def-TZVP (Ac-Lr), def2-XVPD (La-Lu)), CI-OPT, improved COSX, DLPNO-Multilevel,           
  DOCKER, DRACO, updates on ESD, GOAT, IRC, LR-CPCM, MBIS, meta-GGA TD-DFT gradient, ML-optimized integration grids, 
  MM, NACMEs, nearIR, NEB, NEB-TS, NL-DFT gradient (VV10), 2- and 3-layer-ONIOM, interface openCOSMO-RS, QMMM,   
  Crystal-QMMM, SF, symmetry and pop. for TD-DFT, r2SCAN hybrids, SOLVATOR                                   
                                                                         
[Other institutions]                                                     
  V. Asgeirsson          : NEB                                           
  Christoph Bannwarth    : sTDA-DFT, sTD-DFT, PBEh-3c, B97-3c, D3        
  Sebastian Ehlert       : rSCAN, r2SCAN, r2SCAN-3c, D4, dhf basis sets  
  Marvin Friede          : D4 for Fr, Ra, Ac-Lr                          
  Lars Goerigk           : TD-DFT with DH, B97 family of functionals     
  Stefan Grimme          : VdW corrections, initial TS optimization, DFT functionals, gCP, sTDA/sTD-DF 
  Waldemar Hujo          : DFT-NL                                        
  H. Jonsson             : NEB                                           
  Holger Kruse           : gCP                                           
  Marcel Mueller         : wB97X-3c, vDZP basis set                      
  Hagen Neugebauer       : wr2SCAN                                       
  Tobias Risthaus        : range-separated hybrid DFT                    
  Lukas Wittmann         : regularized MP2, r2SCAN double-hybrids, wr2SCAN        
                                                                         
We gratefully acknowledge several colleagues who have allowed us to      
interface, adapt or use parts of their codes:                            
  Ed Valeev, F. Pavosevic, A. Kumar             : LibInt (2-el integral package), F12 methods 
  Garnet Chan, S. Sharma, J. Yang, R. Olivares  : DMRG                   
  Ulf Ekstrom                                   : XCFun DFT Library      
  Mihaly Kallay                                 : mrcc  (arbitrary order and MRCC methods)
  Frank Weinhold                                : gennbo (NPA and NBO analysis)           
  Simon Mueller                                 : openCOSMO-RS                            
  Christopher J. Cramer and Donald G. Truhlar   : smd solvation model                     
  S Lehtola, MJT Oliveira, MAL Marques          : LibXC Library                           
  Liviu Ungur et al                             : ANISO software                          


 Your calculation uses the libint2 library for the computation of 2-el integrals
 For citations please refer to: http://libint.valeyev.net

 Your ORCA version has been built with support for libXC version: 6.2.2
 For citations please refer to: https://libxc.gitlab.io

 This ORCA versions uses:
   CBLAS   interface :  Fast vector & matrix operations
   LAPACKE interface :  Fast linear algebra routines
   SCALAPACK package :  Parallel linear algebra routines
   Shared memory     :  Shared parallel matrices
   BLAS/LAPACK       :  OpenBLAS 0.3.27  USE64BITINT DYNAMIC_ARCH NO_AFFINITY SkylakeX SINGLE_THREADED
        Core in use  :  SkylakeX
   Copyright (c) 2011-2014, The OpenBLAS Project


Your calculation utilizes the atom-pairwise dispersion correction
based on EEQ partial charges (D4)


================================================================================

cite the ECPs for C  [vDZP-ECP], O  [vDZP-ECP] as follows:
   B-Ne (ecp-2-mwb), Al-Ar (ecp-10-mwb), Ga-Kr (ecp-28-mwb), Y-Cd (ecp-28-mwb), In-Xe (ecp-46-mwb):
     A. Bergner, M. Dolg, W. Küchle, H. Stoll, and H. Preuß, Mol. Phys. 80, 1431 (1993)., T. Leininger, A. Berning, A. Nicklass, H. Stoll, H.-J. Werner, and H.-J.Flad, Chem. Phys. 217, 19 (1997).
   Na-Mg, K-Ca, Rb-Sr, Cs-Ba (CRENBL):
     L. Fernandez Pacios and P. A. Christiansen, J. Chem. Phys. 82, 2664 (1985)., M. M. Hurley, L. F. Pacios, P. A. Christiansen, R. B. Ross, and W. C. Ermler, J. Chem. Phys. 84, 6840 (1986)., L. A. LaJohn, P. A. Christiansen, R. B. Ross, T. Atashroo, and W. C. Ermler, J. Chem. Phys. 87, 2812 (1987)., R. B. Ross, J. M. Powers, T. Atashroo, W. C. Ermler, L. A. LaJohn, and P. A. Christiansen, J. Chem. Phys. 93, 6654 (1990). 
   Sc-Zn (ecp-10-mdf):
     M. Dolg, U. Wedig, H. Stoll, and H. Preuss, J. Chem. Phys. 86, 866 (1986). 
   Y-Cd (ecp-28-mwb), Hf-Hg (ecp-60-mwb):
     D. Andrae, U. Häußermann, M. Dolg, H. Stoll, and H. Preuß, Theor. Chim. Acta 77, 123 (1990). 
   La (ecp-46-mwb):
     M. Dolg, H. Stoll, and H. Preuss, J. Chem. Phys. 90, 1730 (1989)., M. Dolg, H. Stoll, and H. Preuss, Theor. Chim. Acta 85, 441 (1993).
   Ce-Lu (SBKJC-ecp):
     T. R. Cundari and W. J. Stevens, J. Chem. Phys. 98, 5555 (1993).
   Tl-Rn (ecp-78-mwb):
     W. Küchle, M. Dolg, H. Stoll, and H. Preuss, Mol. Phys. 74, 1245 (1991).

ECP parameters for C  [vDZP-ECP], O  [vDZP-ECP] have been obtained from:
MM, AH, SG, J. Chem. Phys. 158, 014103 (2023), 10.1063/5.0133026

----- Orbital basis set information -----
Your calculation utilizes the basis: vDZP
   Marcel Mueller, Andreas Hansen, Stefan Grimme 
   J. Chem. Phys. 158, 014103 (2023). DOI: 10.1063/5.0133026

----- AuxJ basis set information -----
Your calculation utilizes the auxiliary basis: def2/J
   F. Weigend, Phys. Chem. Chem. Phys. 8, 1057 (2006).

================================================================================
                                        WARNINGS
                       Please study these warnings very carefully!
================================================================================

WARNING: Frozen-Core approximation turned on, but there are no core electrons.
  ===> : Turning off frozen-core approximation


WARNING: Geometry Optimization
  ===> : Switching off AutoStart
         For restart on a previous wavefunction, please use MOREAD

================================================================================
                                       INPUT FILE
================================================================================
NAME = ./output/_z_cinnamyl_acetate/_z_cinnamyl_acetate.inp
|  1> ! wB97X-3c OPT FREQ TightSCF
|  2> %pal
|  3>   nprocs 40
|  4> end
|  5> * xyz 0 1
|  6> C     -4.695464    -0.620879     1.259854
|  7> C     -3.549088    -0.585523     0.307518
|  8> O     -3.028772    -1.665896    -0.083080
|  9> O     -3.094026     0.645498    -0.178503
| 10> C     -2.005374     0.770985    -1.091351
| 11> C     -0.703443     0.470103    -0.408833
| 12> C      0.448474     0.516615    -1.088230
| 13> C      1.776625     0.243627    -0.486004
| 14> C      1.933221    -0.493380     0.706613
| 15> C      3.209276    -0.732505     1.226923
| 16> C      4.339639    -0.249925     0.564241
| 17> C      4.197552     0.467720    -0.624897
| 18> C      2.924668     0.709376    -1.150461
| 19> H     -4.547511    -1.431223     2.004551
| 20> H     -5.635888    -0.804144     0.699909
| 21> H     -4.773191     0.348226     1.795792
| 22> H     -1.981758     1.813982    -1.471888
| 23> H     -2.155022     0.086630    -1.955060
| 24> H     -0.719065     0.242329     0.648185
| 25> H      0.418335     0.808019    -2.132624
| 26> H      1.082987    -0.907577     1.229787
| 27> H      3.321920    -1.299397     2.142142
| 28> H      5.325830    -0.437601     0.968839
| 29> H      5.074477     0.836590    -1.141136
| 30> H      2.835597     1.268351    -2.074192
| 31> *
| 32> 
| 33>                          ****END OF INPUT****
================================================================================

                       *****************************
                       * Geometry Optimization Run *
                       *****************************

Geometry optimization settings:
Update method            Update   .... BFGS
Choice of coordinates    CoordSys .... (2022) Redundant Internals
Initial Hessian          InHess   .... Almloef's Model
Max. no of cycles        MaxIter  .... 75

Convergence Tolerances:
Energy Change            TolE     ....  5.0000e-06 Eh
Max. Gradient            TolMAXG  ....  3.0000e-04 Eh/bohr
RMS Gradient             TolRMSG  ....  1.0000e-04 Eh/bohr
Max. Displacement        TolMAXD  ....  4.0000e-03 bohr
RMS Displacement         TolRMSD  ....  2.0000e-03 bohr
Strict Convergence                .... False

------------------------------------------------------------------------------
                        ORCA OPTIMIZATION COORDINATE SETUP
------------------------------------------------------------------------------

The optimization will be done in redundant internal coordinates (2022)
Making redundant internal coordinates   ...  (2022 redundants) done
Evaluating the initial hessian          ...  (Almloef) done
Evaluating the coordinates              ...  done
Calculating the B-matrix                .... done
Calculating the G-matrix                .... done
Diagonalizing the G-matrix              .... done
Small eigenvalue found = 3.384e-03
Small eigenvalue found = 1.212e-02
Small eigenvalue found = 2.621e-02
The first mode is                       ....   43
The number of degrees of freedom        ....   69

    -----------------------------------------------------------------
                    Redundant Internal Coordinates


    -----------------------------------------------------------------
         Definition                    Initial Value    Approx d2E/dq
    -----------------------------------------------------------------
      1. B(C   1,C   0)                  1.4908         0.431498   
      2. B(O   2,C   1)                  1.2612         0.898351   
      3. B(O   3,C   1)                  1.3995         0.540326   
      4. B(C   4,O   3)                  1.4263         0.489817   
      5. B(C   5,C   4)                  1.5005         0.416394   
      6. B(C   6,C   5)                  1.3382         0.755884   
      7. B(C   7,C   6)                  1.4836         0.442939   
      8. B(C   8,C   7)                  1.4107         0.579074   
      9. B(C   9,C   8)                  1.3986         0.605256   
     10. B(C  10,C   9)                  1.3963         0.610424   
     11. B(C  11,C  10)                  1.3962         0.610825   
     12. B(C  12,C  11)                  1.3982         0.606347   
     13. B(C  12,C   7)                  1.4059         0.589445   
     14. B(H  13,C   0)                  1.1105         0.334026   
     15. B(H  14,C   0)                  1.1097         0.334911   
     16. B(H  15,C   0)                  1.1102         0.334405   
     17. B(H  16,C   4)                  1.1105         0.333978   
     18. B(H  17,C   4)                  1.1121         0.332040   
     19. B(H  18,C   5)                  1.0814         0.371667   
     20. B(H  19,C   6)                  1.0847         0.367174   
     21. B(H  20,C   8)                  1.0808         0.372453   
     22. B(H  21,C   9)                  1.0824         0.370238   
     23. B(H  22,C  10)                  1.0824         0.370355   
     24. B(H  23,C  11)                  1.0824         0.370311   
     25. B(H  24,C  12)                  1.0834         0.368994   
     26. A(H  13,C   0,H  14)          109.3158         0.284204   
     27. A(C   1,C   0,H  14)          109.4657         0.328165   
     28. A(C   1,C   0,H  13)          110.0756         0.328022   
     29. A(H  13,C   0,H  15)          108.8204         0.284138   
     30. A(C   1,C   0,H  15)          109.9705         0.328083   
     31. A(H  14,C   0,H  15)          109.1727         0.284255   
     32. A(C   0,C   1,O   3)          119.5211         0.394608   
     33. A(O   2,C   1,O   3)          120.7840         0.446814   
     34. A(C   0,C   1,O   2)          119.6565         0.431877   
     35. A(C   1,O   3,C   4)          123.2190         0.400916   
     36. A(O   3,C   4,H  17)          109.8909         0.332626   
     37. A(C   5,C   4,H  17)          110.2820         0.325782   
     38. A(O   3,C   4,H  16)          108.5534         0.332947   
     39. A(O   3,C   4,C   5)          110.7031         0.385494   
     40. A(H  16,C   4,H  17)          108.3425         0.283818   
     41. A(C   5,C   4,H  16)          109.0114         0.326094   
     42. A(C   6,C   5,H  18)          121.0660         0.366998   
     43. A(C   4,C   5,H  18)          118.3151         0.331902   
     44. A(C   4,C   5,C   6)          120.5981         0.418800   
     45. A(C   7,C   6,H  19)          117.7187         0.334646   
     46. A(C   5,C   6,H  19)          118.3114         0.366234   
     47. A(C   5,C   6,C   7)          123.9264         0.423446   
     48. A(C   8,C   7,C  12)          118.8165         0.424909   
     49. A(C   6,C   7,C  12)          118.5697         0.405139   
     50. A(C   6,C   7,C   8)          122.5929         0.403872   
     51. A(C   7,C   8,H  20)          121.4743         0.350853   
     52. A(C   7,C   8,C   9)          120.3381         0.426928   
     53. A(C   9,C   8,H  20)          118.1716         0.353487   
     54. A(C   8,C   9,C  10)          120.1939         0.430984   
     55. A(C  10,C   9,H  21)          119.8694         0.353639   
     56. A(C   8,C   9,H  21)          119.9352         0.353130   
     57. A(C   9,C  10,C  11)          119.9654         0.431694   
     58. A(C  11,C  10,H  22)          120.0159         0.353697   
     59. A(C   9,C  10,H  22)          120.0175         0.353658   
     60. A(C  10,C  11,C  12)          120.1094         0.431175   
     61. A(C  12,C  11,H  23)          119.9603         0.353249   
     62. A(C  10,C  11,H  23)          119.9302         0.353690   
     63. A(C   7,C  12,C  11)          120.5656         0.428426   
     64. A(C  11,C  12,H  24)          118.9823         0.353036   
     65. A(C   7,C  12,H  24)          120.4503         0.351352   
     66. D(O   2,C   1,C   0,H  13)     38.1063         0.013749   
     67. D(O   2,C   1,C   0,H  15)    157.9907         0.013749   
     68. D(O   2,C   1,C   0,H  14)    -82.0721         0.013749   
     69. D(O   3,C   1,C   0,H  13)   -144.1296         0.013749   
     70. D(O   3,C   1,C   0,H  14)     95.6920         0.013749   
     71. D(C   4,O   3,C   1,O   2)     -2.2502         0.021082   
     72. D(C   4,O   3,C   1,C   0)   -179.9886         0.021082   
     73. D(H  17,C   4,O   3,C   1)     50.3743         0.018945   
     74. D(H  16,C   4,O   3,C   1)    168.6976         0.018945   
     75. D(C   5,C   4,O   3,C   1)    -71.6866         0.018945   
     76. D(H  18,C   5,C   4,O   3)     -2.2863         0.012828   
     77. D(C   6,C   5,C   4,H  17)     57.5230         0.012828   
     78. D(C   6,C   5,C   4,H  16)    -61.3052         0.012828   
     79. D(H  18,C   5,C   4,H  16)    117.0539         0.012828   
     80. D(C   6,C   5,C   4,O   3)    179.3546         0.012828   
     81. D(H  19,C   6,C   5,H  18)   -176.3541         0.040809   
     82. D(H  19,C   6,C   5,C   4)      1.9595         0.040809   
     83. D(C   7,C   6,C   5,H  18)      1.1899         0.040809   
     84. D(C   7,C   6,C   5,C   4)    179.5034         0.040809   
     85. D(C  12,C   7,C   6,C   5)   -160.6435         0.013383   
     86. D(C   8,C   7,C   6,H  19)   -161.4022         0.013383   
     87. D(C   8,C   7,C   6,C   5)     21.0404         0.013383   
     88. D(C  12,C   7,C   6,H  19)     16.9139         0.013383   
     89. D(H  20,C   8,C   7,C  12)   -177.3707         0.023035   
     90. D(H  20,C   8,C   7,C   6)      0.9415         0.023035   
     91. D(C   9,C   8,C   7,C  12)      1.1475         0.023035   
     92. D(C   9,C   8,C   7,C   6)    179.4596         0.023035   
     93. D(H  21,C   9,C   8,H  20)     -1.3925         0.025278   
     94. D(H  21,C   9,C   8,C   7)   -179.9589         0.025278   
     95. D(C  10,C   9,C   8,H  20)    178.1643         0.025278   
     96. D(C  10,C   9,C   8,C   7)     -0.4020         0.025278   
     97. D(H  22,C  10,C   9,H  21)     -0.3734         0.025737   
     98. D(H  22,C  10,C   9,C   8)   -179.9306         0.025737   
     99. D(C  11,C  10,C   9,H  21)    179.2316         0.025737   
    100. D(C  11,C  10,C   9,C   8)     -0.3256         0.025737   
    101. D(H  23,C  11,C  10,H  22)     -0.0403         0.025772   
    102. D(H  23,C  11,C  10,C   9)   -179.6453         0.025772   
    103. D(C  12,C  11,C  10,H  22)    179.8941         0.025772   
    104. D(C  12,C  11,C  10,C   9)      0.2891         0.025772   
    105. D(H  24,C  12,C  11,C  10)    179.9911         0.025375   
    106. D(C   7,C  12,C  11,H  23)   -179.5874         0.025375   
    107. D(C   7,C  12,C  11,C  10)      0.4782         0.025375   
    108. D(H  24,C  12,C   7,C   8)    179.3079         0.023908   
    109. D(H  24,C  12,C   7,C   6)      0.9271         0.023908   
    110. D(C  11,C  12,C   7,C   8)     -1.1864         0.023908   
    111. D(H  24,C  12,C  11,H  23)     -0.0745         0.025375   
    112. D(C  11,C  12,C   7,C   6)   -179.5672         0.023908   
    -----------------------------------------------------------------

Number of atoms                         .... 25
Number of degrees of freedom            .... 112


         *************************************************************
         *                GEOMETRY OPTIMIZATION CYCLE   1            *
         *************************************************************
---------------------------------
CARTESIAN COORDINATES (ANGSTROEM)
---------------------------------
  C     -4.695464   -0.620879    1.259854
  C     -3.549088   -0.585523    0.307518
  O     -3.028772   -1.665896   -0.083080
  O     -3.094026    0.645498   -0.178503
  C     -2.005374    0.770985   -1.091351
  C     -0.703443    0.470103   -0.408833
  C      0.448474    0.516615   -1.088230
  C      1.776625    0.243627   -0.486004
  C      1.933221   -0.493380    0.706613
  C      3.209276   -0.732505    1.226923
  C      4.339639   -0.249925    0.564241
  C      4.197552    0.467720   -0.624897
  C      2.924668    0.709376   -1.150461
  H     -4.547511   -1.431223    2.004551
  H     -5.635888   -0.804144    0.699909
  H     -4.773191    0.348226    1.795792
  H     -1.981758    1.813982   -1.471888
  H     -2.155022    0.086630   -1.955060
  H     -0.719065    0.242329    0.648185
  H      0.418335    0.808019   -2.132624
  H      1.082987   -0.907577    1.229787
  H      3.321920   -1.299397    2.142142
  H      5.325830   -0.437601    0.968839
  H      5.074477    0.836590   -1.141136
  H      2.835597    1.268351   -2.074192

----------------------------
CARTESIAN COORDINATES (A.U.)
----------------------------
  NO LB      ZA    FRAG     MASS         X           Y           Z
   0 C     4.0000*   0    12.011   -8.873141   -1.173291    2.380779
   1 C     4.0000*   0    12.011   -6.706804   -1.106478    0.581125
   2 O     6.0000*   0    15.999   -5.723550   -3.148087   -0.156998
   3 O     6.0000*   0    15.999   -5.846862    1.219814   -0.337322
   4 C     4.0000*   0    12.011   -3.789608    1.456951   -2.062355
   5 C     4.0000*   0    12.011   -1.329315    0.888366   -0.772582
   6 C     4.0000*   0    12.011    0.847493    0.976261   -2.056457
   7 C     4.0000*   0    12.011    3.357335    0.460388   -0.918414
   8 C     4.0000*   0    12.011    3.653258   -0.932353    1.335305
   9 C     4.0000*   0    12.011    6.064653   -1.384234    2.318548
  10 C     4.0000*   0    12.011    8.200729   -0.472290    1.066261
  11 C     4.0000*   0    12.011    7.932224    0.883863   -1.180884
  12 C     4.0000*   0    12.011    5.526822    1.340526   -2.174056
  13 H     1.0000    0     1.008   -8.593550   -2.704620    3.788052
  14 H     1.0000    0     1.008  -10.650285   -1.519612    1.322636
  15 H     1.0000    0     1.008   -9.020024    0.658052    3.393555
  16 H     1.0000    0     1.008   -3.744980    3.427929   -2.781465
  17 H     1.0000    0     1.008   -4.072401    0.163707   -3.694528
  18 H     1.0000    0     1.008   -1.358836    0.457935    1.224892
  19 H     1.0000    0     1.008    0.790539    1.526935   -4.030075
  20 H     1.0000    0     1.008    2.046549   -1.715072    2.323961
  21 H     1.0000    0     1.008    6.277519   -2.455504    4.048062
  22 H     1.0000    0     1.008   10.064360   -0.826946    1.830840
  23 H     1.0000    0     1.008    9.589372    1.580926   -2.156435
  24 H     1.0000    0     1.008    5.358502    2.396836   -3.919655
* core charge reduced due to ECP

--------------------------------
INTERNAL COORDINATES (ANGSTROEM)
--------------------------------
 C      0   0   0     0.000000000000     0.00000000     0.00000000
 C      1   0   0     1.490762166480     0.00000000     0.00000000
 O      2   1   0     1.261150806442   119.65653087     0.00000000
 O      2   1   3     1.399539402349   119.52109714   177.76417931
 C      4   2   1     1.426254407663   123.21900792   180.01143992
 C      5   4   2     1.500461637966   110.70307686   288.31335753
 C      6   5   4     1.338154110946   120.59810684   179.35458672
 C      7   6   5     1.483638662890   123.92642439   179.50340186
 C      8   7   6     1.410686688799   122.59292356    21.04041069
 C      9   8   7     1.398649214331   120.33805675   179.45959954
 C     10   9   8     1.396334988924   120.19385696   359.59796560
 C     11  10   9     1.396156239336   119.96541381   359.67444494
 C     12  11  10     1.398159081753   120.10944282     0.28910708
 H      1   2   3     1.110459864360   110.07558198    38.10626532
 H      1   2   3     1.109739502327   109.46573575   277.92785414
 H      1   2   3     1.110151128179   109.97053707   157.99066487
 H      5   4   2     1.110499376782   108.55341906   168.69756445
 H      5   4   2     1.112083417110   109.89085906    50.37428512
 H      6   5   4     1.081393588979   118.31514248   357.71368509
 H      7   6   5     1.084704327351   118.31141186     1.95947964
 H      9   8   7     1.080818228862   121.47433702     0.94147872
 H     10   9   8     1.082442159360   119.93522098   180.04113536
 H     11  10   9     1.082356000150   120.01749186   180.06943922
 H     12  11  10     1.082388672172   119.93022323   180.35465348
 H     13  12  11     1.083358506694   118.98234248   179.99105480

---------------------------
INTERNAL COORDINATES (A.U.)
---------------------------
 C      0   0   0     0.000000000000     0.00000000     0.00000000
 C      1   0   0     2.817132225458     0.00000000     0.00000000
 O      2   1   0     2.383229637749   119.65653087     0.00000000
 O      2   1   3     2.644746184070   119.52109714   177.76417931
 C      4   2   1     2.695230227780   123.21900792   180.01143992
 C      5   4   2     2.835461570212   110.70307686   288.31335753
 C      6   5   4     2.528744794669   120.59810684   179.35458672
 C      7   6   5     2.803670754559   123.92642439   179.50340186
 C      8   7   6     2.665811502598   122.59292356    21.04041069
 C      9   8   7     2.643063972511   120.33805675   179.45959954
 C     10   9   8     2.638690720278   120.19385696   359.59796560
 C     11  10   9     2.638352932511   119.96541381   359.67444494
 C     12  11  10     2.642137756168   120.10944282     0.28910708
 H      1   2   3     2.098465026351   110.07558198    38.10626532
 H      1   2   3     2.097103739393   109.46573575   277.92785414
 H      1   2   3     2.097881599523   109.97053707   157.99066487
 H      5   4   2     2.098539694009   108.55341906   168.69756445
 H      5   4   2     2.101533096412   109.89085906    50.37428512
 H      6   5   4     2.043537726148   118.31514248   357.71368509
 H      7   6   5     2.049794114972   118.31141186     1.95947964
 H      9   8   7     2.042450453100   121.47433702     0.94147872
 H     10   9   8     2.045519237002   119.93522098   180.04113536
 H     11  10   9     2.045356419690   120.01749186   180.06943922
 H     12  11  10     2.045418160864   119.93022323   180.35465348
 H     13  12  11     2.047250882506   118.98234248   179.99105480

---------------------
BASIS SET INFORMATION
---------------------
There are 3 groups of distinct atoms

 Group   1 Type C   : 6s6p2d contracted to 2s2p1d pattern {42/42/2}
 Group   2 Type O   : 6s6p2d contracted to 2s2p1d pattern {42/42/2}
 Group   3 Type H   : 8s2p contracted to 2s1p pattern {53/2}

Atom   0C    basis set group =>   1
Atom   1C    basis set group =>   1
Atom   2O    basis set group =>   2
Atom   3O    basis set group =>   2
Atom   4C    basis set group =>   1
Atom   5C    basis set group =>   1
Atom   6C    basis set group =>   1
Atom   7C    basis set group =>   1
Atom   8C    basis set group =>   1
Atom   9C    basis set group =>   1
Atom  10C    basis set group =>   1
Atom  11C    basis set group =>   1
Atom  12C    basis set group =>   1
Atom  13H    basis set group =>   3
Atom  14H    basis set group =>   3
Atom  15H    basis set group =>   3
Atom  16H    basis set group =>   3
Atom  17H    basis set group =>   3
Atom  18H    basis set group =>   3
Atom  19H    basis set group =>   3
Atom  20H    basis set group =>   3
Atom  21H    basis set group =>   3
Atom  22H    basis set group =>   3
Atom  23H    basis set group =>   3
Atom  24H    basis set group =>   3
---------------------------------
AUXILIARY/J BASIS SET INFORMATION
---------------------------------
There are 3 groups of distinct atoms

 Group   1 Type C   : 12s5p4d2f1g contracted to 6s4p3d1f1g pattern {711111/2111/211/2/1}
 Group   2 Type O   : 12s5p4d2f1g contracted to 6s4p3d1f1g pattern {711111/2111/211/2/1}
 Group   3 Type H   : 5s2p1d contracted to 3s1p1d pattern {311/2/1}

Atom   0C    basis set group =>   1
Atom   1C    basis set group =>   1
Atom   2O    basis set group =>   2
Atom   3O    basis set group =>   2
Atom   4C    basis set group =>   1
Atom   5C    basis set group =>   1
Atom   6C    basis set group =>   1
Atom   7C    basis set group =>   1
Atom   8C    basis set group =>   1
Atom   9C    basis set group =>   1
Atom  10C    basis set group =>   1
Atom  11C    basis set group =>   1
Atom  12C    basis set group =>   1
Atom  13H    basis set group =>   3
Atom  14H    basis set group =>   3
Atom  15H    basis set group =>   3
Atom  16H    basis set group =>   3
Atom  17H    basis set group =>   3
Atom  18H    basis set group =>   3
Atom  19H    basis set group =>   3
Atom  20H    basis set group =>   3
Atom  21H    basis set group =>   3
Atom  22H    basis set group =>   3
Atom  23H    basis set group =>   3
Atom  24H    basis set group =>   3
-------------------------
ECP PARAMETER INFORMATION
-------------------------

 Group 1, Type C  ECP vDZP-ECP (replacing 2 core electrons, lmax=3)
 Group 2, Type O  ECP vDZP-ECP (replacing 2 core electrons, lmax=3)

Atom   0C    ECP group =>   1
Atom   1C    ECP group =>   1
Atom   2O    ECP group =>   2
Atom   3O    ECP group =>   2
Atom   4C    ECP group =>   1
Atom   5C    ECP group =>   1
Atom   6C    ECP group =>   1
Atom   7C    ECP group =>   1
Atom   8C    ECP group =>   1
Atom   9C    ECP group =>   1
Atom  10C    ECP group =>   1
Atom  11C    ECP group =>   1
Atom  12C    ECP group =>   1



           ************************************************************
           *        Program running with 40 parallel MPI-processes    *
           *              working on a common directory               *
           ************************************************************
------------------------------------------------------------------------------
                             ORCA STARTUP CALCULATIONS
                           -- RI-GTO INTEGRALS CHOSEN --
------------------------------------------------------------------------------
------------------------------------------------------------------------------
                   ___                                                        
                  /   \      - P O W E R E D   B Y -                         
                 /     \                                                     
                 |  |  |   _    _      __       _____    __    __             
                 |  |  |  | |  | |    /  \     |  _  \  |  |  /  |          
                  \  \/   | |  | |   /    \    | | | |  |  | /  /          
                 / \  \   | |__| |  /  /\  \   | |_| |  |  |/  /          
                |  |  |   |  __  | /  /__\  \  |    /   |      \           
                |  |  |   | |  | | |   __   |  |    \   |  |\   \          
                \     /   | |  | | |  |  |  |  | |\  \  |  | \   \       
                 \___/    |_|  |_| |__|  |__|  |_| \__\ |__|  \__/        
                                                                              
                      - O R C A' S   B I G   F R I E N D -                    
                                      &                                       
                       - I N T E G R A L  F E E D E R -                       
                                                                              
 v1 FN, 2020, v2 2021, v3 2022-2024                                           
------------------------------------------------------------------------------


----------------------
SHARK INTEGRAL PACKAGE
----------------------

Number of atoms                             ...     25
Number of basis functions                   ...    229
Number of shells                            ...    101
Maximum angular momentum                    ...      2
Integral batch strategy                     ... SHARK/LIBINT Hybrid
RI-J (if used) integral strategy            ... SPLIT-RIJ (Revised 2003 algorithm where possible)
Printlevel                                  ...      1
Contraction scheme used                     ... SEGMENTED contraction
Prescreening option                         ... SCHWARTZ
   Thresh                                   ... 2.500e-11
   Tcut                                     ... 2.500e-12
   Tpresel                                  ... 2.500e-12 
Coulomb Range Separation                    ... NOT USED
Exchange Range Separation                   ... Long Range
   Mu parameter                             ... 3.000e-01
   Scaling (regular/separated)              ... 1.670e-01 8.330e-01
Multipole approximations                    ... NOT USED
Finite Nucleus Model                        ... NOT USED
CABS basis                                  ... NOT available
Auxiliary Coulomb fitting basis             ... AVAILABLE
   # of basis functions in Aux-J            ...    769
   # of shells in Aux-J                     ...    255
   Maximum angular momentum in Aux-J        ...      4
Auxiliary J/K fitting basis                 ... NOT available
Auxiliary Correlation fitting basis         ... NOT available
Auxiliary 'external' fitting basis          ... NOT available

Checking pre-screening integrals            ... done (  0.0 sec) Dimension = 101
Check shell pair data                       ... done (  0.0 sec)
Shell pair information
Shell pair cut-off parameter TPreSel        ...   2.5e-12
Total number of shell pairs                 ...      5151
Shell pairs after pre-screening             ...      4907
Total number of primitive shell pairs       ...     46116
Primitive shell pairs kept                  ...     33195
          la=0 lb=0:   1244 shell pairs
          la=1 lb=0:   1814 shell pairs
          la=1 lb=1:    685 shell pairs
          la=2 lb=0:    627 shell pairs
          la=2 lb=1:    451 shell pairs
          la=2 lb=2:     86 shell pairs

Calculating one electron integrals          ... done (  0.0 sec)
Calculating ECP integrals                   ... done (  0.1 sec)
Calculating RI/J V-Matrix + Cholesky decomp.... done (  0.0 sec)
Calculating Nuclear repulsion               ... done (  0.0 sec) ENN=    364.126471081596 Eh

Diagonalization of the overlap matrix:
Smallest eigenvalue                        ... 4.478e-04
Time for diagonalization                   ...    0.067 sec
Threshold for overlap eigenvalues          ... 1.000e-07
Number of eigenvalues below threshold      ... 0
Time for construction of square roots      ...    0.007 sec
Total time needed                          ...    0.085 sec

-------------------
DFT GRID GENERATION
-------------------

General Integration Accuracy     IntAcc      ... 4.388
Radial Grid Type                 RadialGrid  ... OptM3 with GC (2021)
Angular Grid (max. ang.)         AngularGrid ... 4 (Lebedev-302)
Angular grid pruning method      GridPruning ... 4 (adaptive)
Weight generation scheme         WeightScheme... mBecke (2022)
Basis function cutoff            BFCut       ... 1.0000e-11
Integration weight cutoff        WCut        ... 1.0000e-14
Partially contracted basis set               ... off
Rotationally invariant grid construction     ... off
Angular grids for H and He will be reduced by one unit

Total number of grid points                  ...   116898
Total number of batches                      ...     1839
Average number of points per batch           ...       63
Average number of grid points per atom       ...     4676

--------------------
COSX GRID GENERATION
--------------------

GRIDX 1
-------
General Integration Accuracy     IntAcc      ... 3.816
Radial Grid Type                 RadialGrid  ... OptM3 with GC (2021)
Angular Grid (max. ang.)         AngularGrid ... 1 (Lebedev-50)
Angular grid pruning method      GridPruning ... 4 (adaptive)
Weight generation scheme         WeightScheme... mBecke (2022)
Basis function cutoff            BFCut       ... 1.0000e-11
Integration weight cutoff        WCut        ... 1.0000e-14
Partially contracted basis set               ... on
Rotationally invariant grid construction     ... off
Angular grids for H and He will be reduced by one unit

Total number of grid points                  ...    14918
Total number of batches                      ...      130
Average number of points per batch           ...      114
Average number of grid points per atom       ...      597
UseSFitting                                  ... on

GRIDX 2
-------
General Integration Accuracy     IntAcc      ... 4.020
Radial Grid Type                 RadialGrid  ... OptM3 with GC (2021)
Angular Grid (max. ang.)         AngularGrid ... 2 (Lebedev-110)
Angular grid pruning method      GridPruning ... 4 (adaptive)
Weight generation scheme         WeightScheme... mBecke (2022)
Basis function cutoff            BFCut       ... 1.0000e-11
Integration weight cutoff        WCut        ... 1.0000e-14
Partially contracted basis set               ... on
Rotationally invariant grid construction     ... off
Angular grids for H and He will be reduced by one unit

Total number of grid points                  ...    32402
Total number of batches                      ...      265
Average number of points per batch           ...      122
Average number of grid points per atom       ...     1296
UseSFitting                                  ... on

GRIDX 3
-------
General Integration Accuracy     IntAcc      ... 4.338
Radial Grid Type                 RadialGrid  ... OptM3 with GC (2021)
Angular Grid (max. ang.)         AngularGrid ... 3 (Lebedev-194)
Angular grid pruning method      GridPruning ... 4 (adaptive)
Weight generation scheme         WeightScheme... mBecke (2022)
Basis function cutoff            BFCut       ... 1.0000e-11
Integration weight cutoff        WCut        ... 1.0000e-14
Partially contracted basis set               ... on
Rotationally invariant grid construction     ... off
Angular grids for H and He will be reduced by one unit

Total number of grid points                  ...    71042
Total number of batches                      ...      569
Average number of points per batch           ...      124
Average number of grid points per atom       ...     2842
UseSFitting                                  ... on
Initializing property integral containers    ... done (  0.0 sec)

SHARK setup successfully completed in   3.7 seconds

Maximum memory used throughout the entire STARTUP-calculation: 33.4 MB


           ************************************************************
           *        Program running with 40 parallel MPI-processes    *
           *              working on a common directory               *
           ************************************************************
-------------------------------------------------------------------------------
                                 ORCA GUESS
                   Start orbitals & Density for SCF / CASSCF
-------------------------------------------------------------------------------

------------
SCF SETTINGS
------------
Hamiltonian:
 Density Functional     Method          .... DFT(GTOs)
 Exchange Functional    Exchange        .... WB97X-V
 Correlation Functional Correlation     .... WB97X-V
 Gradients option       PostSCFGGA      .... off
 Hybrid DFT is turned on
   Fraction HF Exchange ScalHFX         ....  0.167000
   Scaling of DF-GGA-X  ScalDFX         ....  0.000000
   Scaling of DF-GGA-C  ScalDFC         ....  1.000000
   Scaling of DF-LDA-C  ScalLDAC        ....  1.000000
   Perturbative correction              ....  0.000000
 Long-range corrected/Screened/Range-Separated Hybrid DFT is turned on
   Amount of maximum screened exact exchange              ....  0.833000
   Range separation parameter mu (erf(mu*r12)/r12)        ....  0.300000
   NL short-range parameter             ....  6.000000
   NL long-range parameter              ....  0.010000
 RI-approximation to the Coulomb term is turned on
   Number of AuxJ basis functions       .... 769
   RIJ-COSX (HFX calculated with COS-X)).... on


General Settings:
 Integral files         IntName         .... ./output/_z_cinnamyl_acetate/_z_cinnamyl_acetate
 Hartree-Fock type      HFTyp           .... RHF
 Total Charge           Charge          ....    0
 Multiplicity           Mult            ....    1
 Number of Electrons    NEL             ....   68
 Basis Dimension        Dim             ....  229
 Nuclear Repulsion      ENuc            ....    364.1264710816 Eh

Convergence Acceleration:
 AO-DIIS                CNVDIIS         .... on
   Start iteration      DIISMaxIt       ....    12
   Startup error        DIISStart       ....  0.200000
   # of expansion vecs  DIISMaxEq       ....     5
   Bias factor          DIISBfac        ....   1.050
   Max. coefficient     DIISMaxC        ....  10.000
 MO-DIIS                CNVKDIIS        .... off
 Trust-Rad. Augm. Hess. CNVTRAH         .... auto
   Auto Start mean grad. ratio tolernc. ....  1.125000
   Auto Start start iteration           ....    50
   Auto Start num. interpolation iter.  ....    10
   Max. Number of Micro iterations      ....    24
   Max. Number of Macro iterations      .... Maxiter - #DIIS iter
   Number of Davidson start vectors     ....     2
   Converg. threshold    (grad. norm)   ....   1.000e-05
   Grad. Scal. Fac. for Micro threshold ....   0.100
   Minimum threshold for Micro iter.    ....   1.000e-02
   NR start threshold (gradient norm)   ....   1.000e-04
   Initial trust radius                 ....   0.400
   Minimum AH scaling param. (alpha)    ....   1.000
   Maximum AH scaling param. (alpha)    .... 1000.000
   Quad. conv. algorithm                .... NR
   White noise on init. David. guess    .... on
   Maximum white noise                  ....   0.010
   Pseudo random numbers                .... off
   Inactive MOs                         .... canonical
   Orbital update algorithm             .... Taylor
   Preconditioner                       .... Diag
   Full preconditioner red. dimension   ....   250
 SOSCF                  CNVSOSCF        .... on
   Start iteration      SOSCFMaxIt      ....   150
   Startup grad/error   SOSCFStart      ....  0.003300
   Hessian update       SOSCFHessUp     .... L-BFGS
 Level Shifting         CNVShift        .... on
   Level shift para.    LevelShift      ....    0.2500
   Turn off err/grad.   ShiftErr        ....    0.0010
 Zerner damping         CNVZerner       .... off
 Static damping         CNVDamp         .... on
   Fraction old density DampFac         ....    0.7000
   Max. Damping (<1)    DampMax         ....    0.9800
   Min. Damping (>=0)   DampMin         ....    0.0000
   Turn off err/grad.   DampErr         ....    0.1000

SCF Procedure:
 Maximum # iterations   MaxIter         ....   125
 SCF integral mode      SCFMode         .... Direct
   Integral package                     .... SHARK and LIBINT hybrid scheme
 Reset frequency        DirectResetFreq ....    20
 Integral Threshold     Thresh          ....  2.500e-11 Eh
 Primitive CutOff       TCut            ....  2.500e-12 Eh

Convergence Tolerance:
 Convergence Check Mode ConvCheckMode   .... Total+1el-Energy
 Convergence forced     ConvForced      .... 0
 Energy Change          TolE            ....  1.000e-08 Eh
 1-El. energy change                    ....  1.000e-05 Eh
 Orbital Gradient       TolG            ....  1.000e-05
 Orbital Rotation angle TolX            ....  1.000e-05
 DIIS Error             TolErr          ....  5.000e-07

------------------------------
INITIAL GUESS: MODEL POTENTIAL
------------------------------
Loading Hartree-Fock densities                     ... done
Atomic calculation to generate a density for atom 0 (C  with ECP)
  Multiplicity assumed   :    1
  Atomic configuration   : 1s2 2s2 2p2 
  Number of open shells  : 1
  Command: /home/aspe232/Project/Software/ORCA/6_0_1/build/orca ./output/_z_cinnamyl_acetate/_z_cinnamyl_acetate_atom6.inp "" > ./output/_z_cinnamyl_acetate/_z_cinnamyl_acetate_atom6.out
Returned from the atomic calculation with res=0
Atomic calculation to generate a density for atom 2 (O  with ECP)
  Multiplicity assumed   :    3
  Atomic configuration   : 1s2 2s2 2p4 
  Number of open shells  : 1
  Command: /home/aspe232/Project/Software/ORCA/6_0_1/build/orca ./output/_z_cinnamyl_acetate/_z_cinnamyl_acetate_atom8.inp "" > ./output/_z_cinnamyl_acetate/_z_cinnamyl_acetate_atom8.out
Returned from the atomic calculation with res=0
Calculating cut-offs                               ... done
Initializing the effective Hamiltonian             ... done
Setting up the integral package (SHARK)            ... done
Starting the Coulomb interaction                   ... done (   0.0 sec)
Making the grid                                    ... done (   0.8 sec)
Mapping shells                                     ... done
Starting the XC term evaluation                    ... done (   0.0 sec)
  promolecular density results
     # of electrons  =     93.990021670
     EX              =    -51.275109847
     EC              =     -3.862273147
     EX+EC           =    -55.137382994
Transforming the Hamiltonian                       ... done (   0.0 sec)
Diagonalizing the Hamiltonian                      ... done (   0.1 sec)
Back transforming the eigenvectors                 ... done (   0.0 sec)
Now organizing SCF variables                       ... done
                      ------------------
                      INITIAL GUESS DONE (   2.0 sec)
                      ------------------
             **** ENERGY FILE WAS UPDATED (./output/_z_cinnamyl_acetate/_z_cinnamyl_acetate.en.tmp) ****
Finished Guess after   2.5 sec
Maximum memory used throughout the entire GUESS-calculation: 20.5 MB


           ************************************************************
           *        Program running with 40 parallel MPI-processes    *
           *              working on a common directory               *
           ************************************************************

-------------------------------------------------------------------------------------------
                                      ORCA LEAN-SCF
                              memory conserving SCF solver
-------------------------------------------------------------------------------------------

----------------------------------------D-I-I-S--------------------------------------------
Iteration    Energy (Eh)           Delta-E    RMSDP     MaxDP     DIISErr   Damp  Time(sec)
-------------------------------------------------------------------------------------------
               ***  Starting incremental Fock matrix formation  ***
    1    -101.5306812988583260     0.00e+00  3.84e-03  8.74e-02  2.00e-01  0.700   4.0
    2    -101.6941970359891911    -1.64e-01  2.83e-03  5.50e-02  1.04e-01  0.700   3.3
                               ***Turning on AO-DIIS***
    3    -101.7797199465210838    -8.55e-02  1.58e-03  2.94e-02  5.89e-02  0.700   3.2
    4    -101.8310040893655923    -5.13e-02  3.37e-03  6.14e-02  3.72e-02  0.000   3.2
    5    -101.9407029390388288    -1.10e-01  2.61e-04  9.92e-03  6.72e-03  0.000   3.0
    6    -101.9410722010425729    -3.69e-04  1.18e-04  6.34e-03  5.23e-03  0.000   3.2
                              *** Initializing SOSCF ***
---------------------------------------S-O-S-C-F--------------------------------------
Iteration    Energy (Eh)           Delta-E    RMSDP     MaxDP     MaxGrad    Time(sec)
--------------------------------------------------------------------------------------
    7    -101.9411715606036068    -9.94e-05  6.43e-05  1.47e-03  1.12e-03     3.1
               *** Restarting incremental Fock matrix formation ***
    8    -101.9411600458399789     1.15e-05  3.93e-05  1.08e-03  4.12e-04     4.0
    9    -101.9411661447758775    -6.10e-06  3.31e-05  8.65e-04  4.17e-04     3.6
   10    -101.9411677787273334    -1.63e-06  1.22e-05  3.61e-04  2.12e-04     3.8
   11    -101.9411682483510049    -4.70e-07  4.28e-06  1.23e-04  3.73e-05     3.7
   12    -101.9411682701370410    -2.18e-08  2.05e-06  6.65e-05  2.19e-05     3.6
   13    -101.9411682986279288    -2.85e-08  4.47e-07  1.56e-05  2.67e-06     3.2
   14    -101.9411683035913256    -4.96e-09  1.98e-07  4.12e-06  2.53e-06     3.2
                 **** Energy Check signals convergence ****

               *****************************************************
               *                     SUCCESS                       *
               *           SCF CONVERGED AFTER  14 CYCLES          *
               *****************************************************

Recomputing exchange energy using gridx3       ... done (    3.596 sec)
Old exchange energy                            :    -13.231525029 Eh
New exchange energy                            :    -13.231544511 Eh
Exchange energy change after final integration :     -0.000019482 Eh
Total energy after final integration           :   -101.941187786 Eh
             **** ENERGY FILE WAS UPDATED (./output/_z_cinnamyl_acetate/_z_cinnamyl_acetate.en.tmp) ****

----------------
TOTAL SCF ENERGY
----------------

Total Energy       :       -101.94118778556006 Eh           -2773.96075 eV

Components:
Nuclear Repulsion  :        364.12647108159621 Eh            9908.38501 eV
Electronic Energy  :       -466.06763938518753 Eh          -12682.34523 eV
One Electron Energy:       -878.67972369260815 Eh          -23910.09085 eV
Two Electron Energy:        412.61208430742062 Eh           11227.74562 eV

Virial components:
Potential Energy   :       -180.32286568268458 Eh           -4906.83463 eV
Kinetic Energy     :         78.38167789712452 Eh            2132.87389 eV
Virial Ratio       :          2.30057419693614

DFT components:
N(Alpha)           :       34.000057174298 electrons
N(Beta)            :       34.000057174298 electrons
N(Total)           :       68.000114348596 electrons
E(X)               :      -14.692325375816 Eh       
E(C)               :       -2.603700646413 Eh       
E(XC)              :      -17.296026022229 Eh       

---------------
SCF CONVERGENCE
---------------

  Last Energy change         ...    4.9634e-09  Tolerance :   1.0000e-08
  Last MAX-Density change    ...    4.1209e-06  Tolerance :   1.0000e-07
  Last RMS-Density change    ...    1.9761e-07  Tolerance :   5.0000e-09
  Last DIIS Error            ...    1.1224e-03  Tolerance :   5.0000e-07
  Last Orbital Gradient      ...    2.5300e-06  Tolerance :   1.0000e-05
  Last Orbital Rotation      ...    3.9314e-06  Tolerance :   1.0000e-05


----------------
ORBITAL ENERGIES
----------------

  NO   OCC          E(Eh)            E(eV) 
   0   2.0000      -1.217591       -33.1323 
   1   2.0000      -1.125333       -30.6219 
   2   2.0000      -1.004411       -27.3314 
   3   2.0000      -0.951762       -25.8988 
   4   2.0000      -0.910922       -24.7874 
   5   2.0000      -0.887483       -24.1496 
   6   2.0000      -0.882349       -24.0099 
   7   2.0000      -0.826322       -22.4854 
   8   2.0000      -0.752187       -20.4680 
   9   2.0000      -0.735038       -20.0014 
  10   2.0000      -0.694804       -18.9066 
  11   2.0000      -0.686337       -18.6762 
  12   2.0000      -0.638974       -17.3874 
  13   2.0000      -0.622667       -16.9436 
  14   2.0000      -0.604609       -16.4522 
  15   2.0000      -0.600211       -16.3326 
  16   2.0000      -0.581431       -15.8215 
  17   2.0000      -0.571400       -15.5486 
  18   2.0000      -0.553287       -15.0557 
  19   2.0000      -0.543879       -14.7997 
  20   2.0000      -0.540517       -14.7082 
  21   2.0000      -0.534552       -14.5459 
  22   2.0000      -0.523268       -14.2388 
  23   2.0000      -0.497736       -13.5441 
  24   2.0000      -0.491583       -13.3766 
  25   2.0000      -0.479630       -13.0514 
  26   2.0000      -0.469077       -12.7642 
  27   2.0000      -0.451273       -12.2798 
  28   2.0000      -0.450900       -12.2696 
  29   2.0000      -0.412681       -11.2296 
  30   2.0000      -0.401735       -10.9318 
  31   2.0000      -0.386431       -10.5153 
  32   2.0000      -0.350490        -9.5373 
  33   2.0000      -0.316272        -8.6062 
  34   0.0000       0.033695         0.9169 
  35   0.0000       0.064195         1.7468 
  36   0.0000       0.065072         1.7707 
  37   0.0000       0.082399         2.2422 
  38   0.0000       0.088709         2.4139 
  39   0.0000       0.092251         2.5103 
  40   0.0000       0.108382         2.9492 
  41   0.0000       0.111226         3.0266 
  42   0.0000       0.116237         3.1630 
  43   0.0000       0.126676         3.4470 
  44   0.0000       0.137549         3.7429 
*Only the first 10 virtual orbitals were printed.

                    ********************************
                    * MULLIKEN POPULATION ANALYSIS *
                    ********************************

-----------------------
MULLIKEN ATOMIC CHARGES
-----------------------
   0 C :   -0.082940
   1 C :    0.264672
   2 O :   -0.351320
   3 O :   -0.317032
   4 C :    0.078618
   5 C :    0.037880
   6 C :   -0.020055
   7 C :   -0.083939
   8 C :   -0.008007
   9 C :   -0.011733
  10 C :   -0.016635
  11 C :   -0.009816
  12 C :   -0.002318
  13 H :    0.079677
  14 H :    0.078992
  15 H :    0.062887
  16 H :    0.079431
  17 H :    0.073676
  18 H :    0.035687
  19 H :    0.015639
  20 H :    0.023162
  21 H :    0.018826
  22 H :    0.018932
  23 H :    0.018141
  24 H :    0.017575
Sum of atomic charges:    0.0000000

--------------------------------
MULLIKEN REDUCED ORBITAL CHARGES
--------------------------------
  0 C s       :     0.962560  s :     0.962560
      pz      :     1.001172  p :     3.057357
      px      :     0.976545
      py      :     1.079640
      dz2     :     0.005987  d :     0.063023
      dxz     :     0.018012
      dyz     :     0.017169
      dx2y2   :     0.017539
      dxy     :     0.004316

  1 C s       :     1.152254  s :     1.152254
      pz      :     0.776256  p :     2.337397
      px      :     0.830081
      py      :     0.731060
      dz2     :     0.032167  d :     0.245676
      dxz     :     0.022825
      dyz     :     0.061777
      dx2y2   :     0.068117
      dxy     :     0.060790

  2 O s       :     1.795883  s :     1.795883
      pz      :     1.547695  p :     4.521733
      px      :     1.560462
      py      :     1.413576
      dz2     :     0.004531  d :     0.033704
      dxz     :     0.002013
      dyz     :     0.009341
      dx2y2   :     0.008162
      dxy     :     0.009656

  3 O s       :     1.701315  s :     1.701315
      pz      :     1.578066  p :     4.579648
      px      :     1.522040
      py      :     1.479542
      dz2     :     0.005526  d :     0.036069
      dxz     :     0.006875
      dyz     :     0.006880
      dx2y2   :     0.010280
      dxy     :     0.006509

  4 C s       :     1.029279  s :     1.029279
      pz      :     0.903959  p :     2.754041
      px      :     0.766343
      py      :     1.083740
      dz2     :     0.026077  d :     0.138061
      dxz     :     0.031588
      dyz     :     0.025264
      dx2y2   :     0.033821
      dxy     :     0.021310

  5 C s       :     1.043541  s :     1.043541
      pz      :     0.980123  p :     2.829900
      px      :     0.901103
      py      :     0.948673
      dz2     :     0.023953  d :     0.088680
      dxz     :     0.022283
      dyz     :     0.007178
      dx2y2   :     0.013094
      dxy     :     0.022171

  6 C s       :     1.005950  s :     1.005950
      pz      :     0.992167  p :     2.919748
      px      :     0.949688
      py      :     0.977893
      dz2     :     0.025601  d :     0.094358
      dxz     :     0.022753
      dyz     :     0.008129
      dx2y2   :     0.014371
      dxy     :     0.023504

  7 C s       :     1.035389  s :     1.035389
      pz      :     0.970054  p :     2.927205
      px      :     0.965545
      py      :     0.991606
      dz2     :     0.026607  d :     0.121345
      dxz     :     0.032738
      dyz     :     0.014184
      dx2y2   :     0.021583
      dxy     :     0.026235

  8 C s       :     1.003972  s :     1.003972
      pz      :     0.951302  p :     2.912052
      px      :     0.979145
      py      :     0.981605
      dz2     :     0.019675  d :     0.091982
      dxz     :     0.027612
      dyz     :     0.011215
      dx2y2   :     0.014470
      dxy     :     0.019010

  9 C s       :     1.011207  s :     1.011207
      pz      :     0.973679  p :     2.905936
      px      :     0.975915
      py      :     0.956341
      dz2     :     0.018283  d :     0.094590
      dxz     :     0.023807
      dyz     :     0.011392
      dx2y2   :     0.017964
      dxy     :     0.023144

 10 C s       :     1.006348  s :     1.006348
      pz      :     0.972952  p :     2.916718
      px      :     0.978782
      py      :     0.964984
      dz2     :     0.022651  d :     0.093569
      dxz     :     0.025615
      dyz     :     0.012406
      dx2y2   :     0.018216
      dxy     :     0.014681

 11 C s       :     1.009295  s :     1.009295
      pz      :     0.972801  p :     2.906198
      px      :     0.975174
      py      :     0.958223
      dz2     :     0.020682  d :     0.094323
      dxz     :     0.028516
      dyz     :     0.011491
      dx2y2   :     0.014626
      dxy     :     0.019008

 12 C s       :     1.006002  s :     1.006002
      pz      :     0.973472  p :     2.903501
      px      :     0.961044
      py      :     0.968985
      dz2     :     0.018191  d :     0.092815
      dxz     :     0.023316
      dyz     :     0.011201
      dx2y2   :     0.017762
      dxy     :     0.022345

 13 H s       :     0.876228  s :     0.876228
      pz      :     0.016174  p :     0.044095
      px      :     0.009536
      py      :     0.018385

 14 H s       :     0.875223  s :     0.875223
      pz      :     0.013554  p :     0.045785
      px      :     0.021137
      py      :     0.011094

 15 H s       :     0.892901  s :     0.892901
      pz      :     0.013011  p :     0.044212
      px      :     0.010034
      py      :     0.021167

 16 H s       :     0.879962  s :     0.879962
      pz      :     0.009503  p :     0.040607
      px      :     0.007527
      py      :     0.023577

 17 H s       :     0.885216  s :     0.885216
      pz      :     0.016515  p :     0.041108
      px      :     0.008080
      py      :     0.016513

 18 H s       :     0.913526  s :     0.913526
      pz      :     0.025580  p :     0.050787
      px      :     0.010464
      py      :     0.014743

 19 H s       :     0.934712  s :     0.934712
      pz      :     0.024918  p :     0.049649
      px      :     0.009713
      py      :     0.015017

 20 H s       :     0.925556  s :     0.925556
      pz      :     0.014673  p :     0.051282
      px      :     0.020644
      py      :     0.015965

 21 H s       :     0.931691  s :     0.931691
      pz      :     0.022536  p :     0.049482
      px      :     0.009544
      py      :     0.017402

 22 H s       :     0.931459  s :     0.931459
      pz      :     0.013027  p :     0.049609
      px      :     0.023049
      py      :     0.013534

 23 H s       :     0.932248  s :     0.932248
      pz      :     0.014462  p :     0.049611
      px      :     0.020257
      py      :     0.014891

 24 H s       :     0.932189  s :     0.932189
      pz      :     0.022707  p :     0.050236
      px      :     0.009734
      py      :     0.017795



                     *******************************
                     * LOEWDIN POPULATION ANALYSIS *
                     *******************************

----------------------
LOEWDIN ATOMIC CHARGES
----------------------
   0 C :   -0.091675
   1 C :    0.020859
   2 O :   -0.195847
   3 O :   -0.057447
   4 C :   -0.030752
   5 C :   -0.022920
   6 C :   -0.040721
   7 C :   -0.042018
   8 C :   -0.027231
   9 C :   -0.042153
  10 C :   -0.048248
  11 C :   -0.043957
  12 C :   -0.036146
  13 H :    0.076669
  14 H :    0.074133
  15 H :    0.063609
  16 H :    0.069738
  17 H :    0.061134
  18 H :    0.042377
  19 H :    0.045754
  20 H :    0.044603
  21 H :    0.046157
  22 H :    0.044294
  23 H :    0.045388
  24 H :    0.044400

-------------------------------
LOEWDIN REDUCED ORBITAL CHARGES
-------------------------------
  0 C s       :     0.783814  s :     0.783814
      pz      :     1.020715  p :     3.096494
      px      :     1.000742
      py      :     1.075036
      dz2     :     0.018342  d :     0.211367
      dxz     :     0.059061
      dyz     :     0.061258
      dx2y2   :     0.057098
      dxy     :     0.015608

  1 C s       :     0.787855  s :     0.787855
      pz      :     0.804048  p :     2.522477
      px      :     0.853335
      py      :     0.865094
      dz2     :     0.093164  d :     0.668809
      dxz     :     0.062631
      dyz     :     0.158882
      dx2y2   :     0.191488
      dxy     :     0.162643

  2 O s       :     1.562953  s :     1.562953
      pz      :     1.510188  p :     4.565218
      px      :     1.535494
      py      :     1.519536
      dz2     :     0.008514  d :     0.067675
      dxz     :     0.005140
      dyz     :     0.016735
      dx2y2   :     0.017508
      dxy     :     0.019778

  3 O s       :     1.400293  s :     1.400293
      pz      :     1.536050  p :     4.559169
      px      :     1.503256
      py      :     1.519864
      dz2     :     0.016238  d :     0.097985
      dxz     :     0.017476
      dyz     :     0.019484
      dx2y2   :     0.024770
      dxy     :     0.020017

  4 C s       :     0.766097  s :     0.766097
      pz      :     0.933957  p :     2.855197
      px      :     0.837420
      py      :     1.083820
      dz2     :     0.073367  d :     0.409457
      dxz     :     0.099896
      dyz     :     0.078314
      dx2y2   :     0.103643
      dxy     :     0.054237

  5 C s       :     0.811770  s :     0.811770
      pz      :     1.040865  p :     2.918971
      px      :     1.000541
      py      :     0.877564
      dz2     :     0.083717  d :     0.292180
      dxz     :     0.076117
      dyz     :     0.019808
      dx2y2   :     0.050086
      dxy     :     0.062453

  6 C s       :     0.800852  s :     0.800852
      pz      :     1.034186  p :     2.941159
      px      :     1.002915
      py      :     0.904058
      dz2     :     0.086004  d :     0.298710
      dxz     :     0.075451
      dyz     :     0.021364
      dx2y2   :     0.053799
      dxy     :     0.062092

  7 C s       :     0.784271  s :     0.784271
      pz      :     0.979369  p :     2.883663
      px      :     0.982993
      py      :     0.921301
      dz2     :     0.080380  d :     0.374084
      dxz     :     0.103719
      dyz     :     0.048535
      dx2y2   :     0.067755
      dxy     :     0.073695

  8 C s       :     0.799367  s :     0.799367
      pz      :     0.975815  p :     2.933678
      px      :     1.030083
      py      :     0.927781
      dz2     :     0.059814  d :     0.294186
      dxz     :     0.091744
      dyz     :     0.039183
      dx2y2   :     0.046840
      dxy     :     0.056604

  9 C s       :     0.802029  s :     0.802029
      pz      :     0.992795  p :     2.937332
      px      :     1.021033
      py      :     0.923505
      dz2     :     0.057600  d :     0.302792
      dxz     :     0.075067
      dyz     :     0.038173
      dx2y2   :     0.064738
      dxy     :     0.067214

 10 C s       :     0.801477  s :     0.801477
      pz      :     0.987074  p :     2.945605
      px      :     1.034124
      py      :     0.924407
      dz2     :     0.069251  d :     0.301165
      dxz     :     0.085170
      dyz     :     0.043950
      dx2y2   :     0.059657
      dxy     :     0.043137

 11 C s       :     0.802081  s :     0.802081
      pz      :     0.987847  p :     2.939487
      px      :     1.030812
      py      :     0.920828
      dz2     :     0.062019  d :     0.302389
      dxz     :     0.096353
      dyz     :     0.039414
      dx2y2   :     0.047634
      dxy     :     0.056968

 12 C s       :     0.799574  s :     0.799574
      pz      :     0.995952  p :     2.938316
      px      :     1.014102
      py      :     0.928262
      dz2     :     0.057739  d :     0.298257
      dxz     :     0.074409
      dyz     :     0.037541
      dx2y2   :     0.063816
      dxy     :     0.064752

 13 H s       :     0.782541  s :     0.782541
      pz      :     0.048743  p :     0.140790
      px      :     0.036392
      py      :     0.055655

 14 H s       :     0.780179  s :     0.780179
      pz      :     0.045265  p :     0.145688
      px      :     0.058833
      py      :     0.041591

 15 H s       :     0.791776  s :     0.791776
      pz      :     0.044553  p :     0.144616
      px      :     0.038541
      py      :     0.061521

 16 H s       :     0.794504  s :     0.794504
      pz      :     0.038284  p :     0.135758
      px      :     0.029291
      py      :     0.068183

 17 H s       :     0.799699  s :     0.799699
      pz      :     0.055814  p :     0.139167
      px      :     0.029803
      py      :     0.053549

 18 H s       :     0.804517  s :     0.804517
      pz      :     0.072913  p :     0.153106
      px      :     0.034158
      py      :     0.046034

 19 H s       :     0.805441  s :     0.805441
      pz      :     0.069845  p :     0.148804
      px      :     0.033205
      py      :     0.045754

 20 H s       :     0.802814  s :     0.802814
      pz      :     0.045095  p :     0.152582
      px      :     0.060381
      py      :     0.047107

 21 H s       :     0.804674  s :     0.804674
      pz      :     0.062935  p :     0.149170
      px      :     0.035174
      py      :     0.051060

 22 H s       :     0.805340  s :     0.805340
      pz      :     0.042611  p :     0.150366
      px      :     0.064676
      py      :     0.043079

 23 H s       :     0.805118  s :     0.805118
      pz      :     0.045534  p :     0.149494
      px      :     0.058382
      py      :     0.045578

 24 H s       :     0.805671  s :     0.805671
      pz      :     0.063676  p :     0.149929
      px      :     0.034386
      py      :     0.051867



                      *****************************
                      * MAYER POPULATION ANALYSIS *
                      *****************************

  NA   - Mulliken gross atomic population
  ZA   - Total nuclear charge
  QA   - Mulliken gross atomic charge
  VA   - Mayer's total valence
  BVA  - Mayer's bonded valence
  FA   - Mayer's free valence

  ATOM       NA         ZA         QA         VA         BVA        FA
  0 C      4.0829     4.0000    -0.0829     3.9543     3.9543     0.0000
  1 C      3.7353     4.0000     0.2647     4.0829     4.0829     0.0000
  2 O      6.3513     6.0000    -0.3513     2.0009     2.0009    -0.0000
  3 O      6.3170     6.0000    -0.3170     2.0038     2.0038     0.0000
  4 C      3.9214     4.0000     0.0786     3.9373     3.9373     0.0000
  5 C      3.9621     4.0000     0.0379     3.9403     3.9403     0.0000
  6 C      4.0201     4.0000    -0.0201     4.0512     4.0512     0.0000
  7 C      4.0839     4.0000    -0.0839     4.2064     4.2064     0.0000
  8 C      4.0080     4.0000    -0.0080     4.0919     4.0919     0.0000
  9 C      4.0117     4.0000    -0.0117     4.0804     4.0804     0.0000
 10 C      4.0166     4.0000    -0.0166     4.0711     4.0711    -0.0000
 11 C      4.0098     4.0000    -0.0098     4.0828     4.0828    -0.0000
 12 C      4.0023     4.0000    -0.0023     4.0614     4.0614    -0.0000
 13 H      0.9203     1.0000     0.0797     1.0328     1.0328     0.0000
 14 H      0.9210     1.0000     0.0790     1.0342     1.0342     0.0000
 15 H      0.9371     1.0000     0.0629     1.0352     1.0352     0.0000
 16 H      0.9206     1.0000     0.0794     1.0099     1.0099     0.0000
 17 H      0.9263     1.0000     0.0737     1.0138     1.0138     0.0000
 18 H      0.9643     1.0000     0.0357     1.0359     1.0359     0.0000
 19 H      0.9844     1.0000     0.0156     1.0504     1.0504     0.0000
 20 H      0.9768     1.0000     0.0232     1.0418     1.0418     0.0000
 21 H      0.9812     1.0000     0.0188     1.0449     1.0449     0.0000
 22 H      0.9811     1.0000     0.0189     1.0457     1.0457    -0.0000
 23 H      0.9819     1.0000     0.0181     1.0459     1.0459    -0.0000
 24 H      0.9824     1.0000     0.0176     1.0454     1.0454    -0.0000

  Mayer bond orders larger than 0.100000
B(  0-C ,  1-C ) :   1.0261 B(  0-C , 13-H ) :   0.9816 B(  0-C , 14-H ) :   0.9679 
B(  0-C , 15-H ) :   0.9832 B(  1-C ,  2-O ) :   1.9106 B(  1-C ,  3-O ) :   1.0910 
B(  3-O ,  4-C ) :   0.8866 B(  4-C ,  5-C ) :   0.9973 B(  4-C , 16-H ) :   0.9972 
B(  4-C , 17-H ) :   0.9870 B(  5-C ,  6-C ) :   1.8485 B(  5-C , 18-H ) :   0.9922 
B(  6-C ,  7-C ) :   1.1213 B(  6-C , 19-H ) :   0.9901 B(  7-C ,  8-C ) :   1.4257 
B(  7-C , 12-C ) :   1.4158 B(  8-C ,  9-C ) :   1.4630 B(  8-C , 20-H ) :   0.9885 
B(  9-C , 10-C ) :   1.4363 B(  9-C , 21-H ) :   0.9936 B( 10-C , 11-C ) :   1.4495 
B( 10-C , 22-H ) :   0.9954 B( 11-C , 12-C ) :   1.4489 B( 11-C , 23-H ) :   0.9933 
B( 12-C , 24-H ) :   0.9924 

-------
TIMINGS
-------

Total SCF time: 0 days 0 hours 0 min 56 sec 

Total time                  ....      56.292 sec
Sum of individual times     ....      54.279 sec  ( 96.4%)

SCF preparation             ....       2.369 sec  (  4.2%)
Fock matrix formation       ....      50.249 sec  ( 89.3%)
  Startup                   ....       0.260 sec  (  0.5% of F)
  Split-RI-J                ....       1.793 sec  (  3.6% of F)
  Chain of spheres X        ....      21.847 sec  ( 43.5% of F)
  XC integration            ....      25.581 sec  ( 50.9% of F)
    XC Preparation          ....       0.000 sec  (  0.0% of XC)
    Basis function eval.    ....       0.558 sec  (  2.2% of XC)
    Density eval.           ....       0.251 sec  (  1.0% of XC)
    XC-Functional eval.     ....       0.201 sec  (  0.8% of XC)
    XC-Potential eval.      ....       0.278 sec  (  1.1% of XC)
Diagonalization             ....       0.000 sec  (  0.0%)
Density matrix formation    ....       0.284 sec  (  0.5%)
Total Energy calculation    ....       0.342 sec  (  0.6%)
Population analysis         ....       0.110 sec  (  0.2%)
Orbital Transformation      ....       0.059 sec  (  0.1%)
Orbital Orthonormalization  ....       0.000 sec  (  0.0%)
DIIS solution               ....       0.598 sec  (  1.1%)
SOSCF solution              ....       0.267 sec  (  0.5%)
Finished LeanSCF after  56.4 sec

Maximum memory used throughout the entire LEANSCF-calculation: 38.6 MB


           ************************************************************
           *        Program running with 40 parallel MPI-processes    *
           *              working on a common directory               *
           ************************************************************

------------------------------------------------------------------------------
                         ORCA PROPERTY INTEGRAL CALCULATIONS
------------------------------------------------------------------------------

GBWName                                   ... ./output/_z_cinnamyl_acetate/_z_cinnamyl_acetate.gbw
Number of atoms                           ...     25
Number of basis functions                 ...    229
Max core memory                           ...   1024 MB

Dipole integrals                          ... YES
Quadrupole integrals                      ...  NO
Linear momentum integrals                 ...  NO
Angular momentum integrals                ...  NO
Higher moments length integrals           ...  NO
Higher moments velocity integrals         ...  NO
Kinetic energy integrals                  ...  NO
GIAO right hand sides                     ...  NO
GIAO dipole derivative integrals          ...  NO
SOC integrals                             ...  NO
EPR diamagnetic integrals (GIAO)          ...  NO
EPR gauge integrals                       ...  NO
Field gradient integrals                  ...  NO (   0 nuclei)
Spin-dipole/Fermi contact integrals       ...  NO (   0 nuclei)
Contact density integrals                 ...  NO (   0 nuclei)
Nucleus-orbit integrals                   ...  NO (   0 nuclei)
Geometric perturbations                   ...  NO (  25 nuclei)

Choice of electric origin   ... Center of mass
Position of electric origin ... ( -0.0550, -0.1055, -0.1382) 
Choice of magnetic origin   ... GIAO
Position of magnetic origin ... (  0.0000,  0.0000,  0.0000) 

Calculating integrals                     ... Electric Dipole (Length)     done (  0.0 sec)

Property integrals calculated in   0.1 sec

Maximum memory used throughout the entire PROPINT-calculation: 16.6 MB


-------------------------------------------------------------------------------
                          DFT DISPERSION CORRECTION                            
                                                                               
                                DFTD4 V3.4.0                                   
-------------------------------------------------------------------------------
The wB97X-3c composite method is recognized
Using three-body term ABC
Active option DFTDOPT                   ...         5   

-------------------------   ----------------
Dispersion correction           -0.029592881
-------------------------   ----------------


-------------------------   --------------------
FINAL SINGLE POINT ENERGY      -101.970780666169
-------------------------   --------------------



           ************************************************************
           *        Program running with 40 parallel MPI-processes    *
           *              working on a common directory               *
           ************************************************************
[...]
 15:    319.50   0.001550    7.83  0.001514  (-0.013056 -0.029960  0.021119)
 16:    403.34   0.000690    3.49  0.000534  (-0.019037 -0.008580 -0.009897)
 17:    419.21   0.000074    0.37  0.000055  ( 0.006889  0.001581  0.002237)
 18:    437.37   0.001928    9.75  0.001376  (-0.036646  0.000850  0.005674)
 19:    482.87   0.002459   12.43  0.001589  (-0.013415  0.010619  0.036004)
 20:    556.20   0.000169    0.85  0.000095  ( 0.002854 -0.006811 -0.006329)
 21:    626.04   0.001865    9.42  0.000930  ( 0.022802  0.004541  0.019725)
 22:    637.98   0.000125    0.63  0.000061  ( 0.006524  0.003410  0.002606)
 23:    644.80   0.000003    0.01  0.000001  ( 0.001028  0.000355  0.000309)
 24:    682.01   0.002948   14.90  0.001349  (-0.032963  0.009972  0.012765)
 25:    720.51   0.009023   45.60  0.003908  (-0.021985  0.026595  0.052129)
 26:    782.89   0.007308   36.93  0.002913  ( 0.012921 -0.024601 -0.046269)
 27:    841.98   0.000618    3.12  0.000229  ( 0.000129 -0.014263  0.005070)
 28:    872.55   0.000403    2.04  0.000144  ( 0.009878 -0.006282 -0.002673)
 29:    883.22   0.001335    6.74  0.000472  (-0.016683  0.012776  0.005477)
 30:    901.48   0.001674    8.46  0.000579  (-0.000564  0.023336 -0.005867)
 31:    956.81   0.000372    1.88  0.000121  ( 0.007301 -0.001517 -0.008108)
 32:   1009.88   0.000138    0.70  0.000043  (-0.003664 -0.003834 -0.003811)
 33:   1014.07   0.000007    0.04  0.000002  (-0.000604  0.000104 -0.001337)
 34:   1023.21   0.009507   48.05  0.002900  ( 0.026203 -0.030783 -0.035572)
 35:   1033.04   0.001379    6.97  0.000417  (-0.009205  0.012181  0.013546)
 36:   1038.15   0.001294    6.54  0.000389  ( 0.008476 -0.010948 -0.014045)
 37:   1042.02   0.001664    8.41  0.000498  (-0.013672  0.010115  0.014456)
 38:   1082.34   0.000644    3.25  0.000186  ( 0.008458  0.000612  0.010662)
 39:   1096.66   0.004700   23.75  0.001338  ( 0.009252 -0.002704 -0.035279)
 40:   1099.58   0.022137  111.87  0.006283  ( 0.069179  0.010341 -0.037282)
 41:   1130.14   0.001743    8.81  0.000481  ( 0.013025 -0.017256  0.003708)
 42:   1164.43   0.004000   20.21  0.001072  (-0.032352  0.003867 -0.003210)
 43:   1195.39   0.000145    0.73  0.000038  ( 0.005687  0.000080  0.002323)
 44:   1227.86   0.000104    0.53  0.000026  ( 0.004574  0.001164 -0.002047)
 45:   1261.48   0.000043    0.22  0.000011  ( 0.002066  0.002535 -0.000095)
 46:   1301.37   0.020788  105.06  0.004985  ( 0.054709  0.019644 -0.040074)
 47:   1330.04   0.054283  274.33  0.012736  ( 0.085577  0.038735 -0.062550)
 48:   1341.69   0.003066   15.49  0.000713  ( 0.024909  0.009548 -0.001229)
 49:   1353.54   0.021425  108.27  0.004940  (-0.059456 -0.020938  0.031083)
 50:   1376.83   0.002047   10.34  0.000464  (-0.021287 -0.000020 -0.003281)
 51:   1391.53   0.000779    3.94  0.000175  ( 0.012775  0.002873  0.001797)
 52:   1431.40   0.013378   67.61  0.002917  ( 0.048866  0.004847 -0.022476)
 53:   1458.71   0.014835   74.97  0.003174  (-0.035350 -0.003867  0.043694)
 54:   1502.49   0.004010   20.26  0.000833  (-0.010177  0.026959 -0.001586)
 55:   1508.81   0.002426   12.26  0.000502  ( 0.015532  0.004758  0.015424)
 56:   1514.46   0.006764   34.18  0.001394  (-0.018740  0.000667  0.032283)
 57:   1522.97   0.001238    6.26  0.000254  (-0.010144  0.012053  0.002340)
 58:   1574.05   0.002076   10.49  0.000412  ( 0.019486  0.000126  0.005647)
 59:   1692.81   0.000392    1.98  0.000072  (-0.006494 -0.005259  0.001556)
 60:   1719.92   0.000803    4.06  0.000146  ( 0.011950  0.001187  0.001229)
 61:   1792.39   0.001723    8.71  0.000300  ( 0.017297  0.000826 -0.000173)
 62:   1873.93   0.056975  287.93  0.009488  (-0.004815  0.096690 -0.010763)
 63:   3137.29   0.000332    1.68  0.000033  (-0.004431  0.002759  0.002403)
 64:   3143.18   0.003763   19.02  0.000374  (-0.002251 -0.000708 -0.019184)
 65:   3211.61   0.001920    9.70  0.000187  (-0.007149  0.005809 -0.010086)
 66:   3217.95   0.001178    5.95  0.000114  ( 0.000797 -0.007054  0.007988)
 67:   3232.01   0.000037    0.19  0.000004  ( 0.001430  0.000293  0.001220)
 68:   3243.69   0.000876    4.43  0.000084  (-0.006433  0.004429 -0.004826)
 69:   3250.96   0.000073    0.37  0.000007  (-0.002092 -0.000964 -0.001302)
 70:   3255.54   0.000763    3.86  0.000073  (-0.005802  0.002026 -0.005949)
 71:   3261.80   0.001211    6.12  0.000116  ( 0.001979 -0.008831  0.005825)
 72:   3266.09   0.000243    1.23  0.000023  ( 0.003761  0.000026 -0.003016)
 73:   3270.71   0.002432   12.29  0.000232  (-0.008417 -0.012387  0.002789)
 74:   3278.02   0.001503    7.59  0.000143  ( 0.010686 -0.003185  0.004328)

* The epsilon (eps) is given for a Dirac delta lineshape.
** The dipole moment derivative (T) already includes vibrational overlap.

The first frequency considered to be a vibration is 6
The total number of vibrations considered is 69


--------------------------
THERMOCHEMISTRY AT 298.15K
--------------------------

Temperature         ...   298.15 K
Pressure            ...     1.00 atm
Total Mass          ...   176.22 AMU
Quasi RRHO          ...     True
Cut-Off Frequency   ...     1.00 cm^-1

Throughout the following assumptions are being made:
  (1) The electronic state is orbitally nondegenerate
  (2) There are no thermally accessible electronically excited states
  (3) Hindered rotations indicated by low frequency modes are not
      treated as such but are treated as vibrations and this may
      cause some error
  (4) All equations used are the standard statistical mechanics
      equations for an ideal gas
  (5) All vibrations are strictly harmonic

freq.      26.16  E(vib)   ...       0.56 
freq.      45.04  E(vib)   ...       0.53 
freq.      52.16  E(vib)   ...       0.52 
freq.      70.18  E(vib)   ...       0.50 
freq.      85.43  E(vib)   ...       0.48 
freq.     132.76  E(vib)   ...       0.42 
freq.     156.69  E(vib)   ...       0.40 
freq.     246.75  E(vib)   ...       0.31 
freq.     274.85  E(vib)   ...       0.28 
freq.     319.50  E(vib)   ...       0.25 
freq.     403.34  E(vib)   ...       0.19 
freq.     419.21  E(vib)   ...       0.18 
freq.     437.37  E(vib)   ...       0.17 
freq.     482.87  E(vib)   ...       0.15 
freq.     556.20  E(vib)   ...       0.12 
freq.     626.04  E(vib)   ...       0.09 
freq.     637.98  E(vib)   ...       0.09 
freq.     644.80  E(vib)   ...       0.09 
freq.     682.01  E(vib)   ...       0.08 
freq.     720.51  E(vib)   ...       0.07 
freq.     782.89  E(vib)   ...       0.05 
freq.     841.98  E(vib)   ...       0.04 
freq.     872.55  E(vib)   ...       0.04 
freq.     883.22  E(vib)   ...       0.04 
freq.     901.48  E(vib)   ...       0.03 
freq.     956.81  E(vib)   ...       0.03 
freq.    1009.88  E(vib)   ...       0.02 
freq.    1014.07  E(vib)   ...       0.02 
freq.    1023.21  E(vib)   ...       0.02 
freq.    1033.04  E(vib)   ...       0.02 
freq.    1038.15  E(vib)   ...       0.02 
freq.    1042.02  E(vib)   ...       0.02 
freq.    1082.34  E(vib)   ...       0.02 
freq.    1096.66  E(vib)   ...       0.02 
freq.    1099.58  E(vib)   ...       0.02 
freq.    1130.14  E(vib)   ...       0.01 
freq.    1164.43  E(vib)   ...       0.01 
freq.    1195.39  E(vib)   ...       0.01 
freq.    1227.86  E(vib)   ...       0.01 
freq.    1261.48  E(vib)   ...       0.01 
freq.    1301.37  E(vib)   ...       0.01 
freq.    1330.04  E(vib)   ...       0.01 
freq.    1341.69  E(vib)   ...       0.01 
freq.    1353.54  E(vib)   ...       0.01 
freq.    1376.83  E(vib)   ...       0.01 
freq.    1391.53  E(vib)   ...       0.00 
freq.    1431.40  E(vib)   ...       0.00 
freq.    1458.71  E(vib)   ...       0.00 
freq.    1502.49  E(vib)   ...       0.00 
freq.    1508.81  E(vib)   ...       0.00 
freq.    1514.46  E(vib)   ...       0.00 
freq.    1522.97  E(vib)   ...       0.00 
freq.    1574.05  E(vib)   ...       0.00 
freq.    1692.81  E(vib)   ...       0.00 
freq.    1719.92  E(vib)   ...       0.00 
freq.    1792.39  E(vib)   ...       0.00 
freq.    1873.93  E(vib)   ...       0.00 
freq.    3137.29  E(vib)   ...       0.00 
freq.    3143.18  E(vib)   ...       0.00 
freq.    3211.61  E(vib)   ...       0.00 
freq.    3217.95  E(vib)   ...       0.00 
freq.    3232.01  E(vib)   ...       0.00 
freq.    3243.69  E(vib)   ...       0.00 
freq.    3250.96  E(vib)   ...       0.00 
freq.    3255.54  E(vib)   ...       0.00 
freq.    3261.80  E(vib)   ...       0.00 
freq.    3266.09  E(vib)   ...       0.00 
freq.    3270.71  E(vib)   ...       0.00 
freq.    3278.02  E(vib)   ...       0.00 

------------
INNER ENERGY
------------

The inner energy is: U= E(el) + E(ZPE) + E(vib) + E(rot) + E(trans)
    E(el)   - is the total energy from the electronic structure calculation
              = E(kin-el) + E(nuc-el) + E(el-el) + E(nuc-nuc)
    E(ZPE)  - the the zero temperature vibrational energy from the frequency calculation
    E(vib)  - the the finite temperature correction to E(ZPE) due to population
              of excited vibrational states
    E(rot)  - is the rotational thermal energy
    E(trans)- is the translational thermal energy

Summary of contributions to the inner energy U:
Electronic energy                ...   -101.99514268 Eh
Zero point energy                ...      0.20989410 Eh     131.71 kcal/mol
Thermal vibrational correction   ...      0.00953147 Eh       5.98 kcal/mol
Thermal rotational correction    ...      0.00141627 Eh       0.89 kcal/mol
Thermal translational correction ...      0.00141627 Eh       0.89 kcal/mol
-----------------------------------------------------------------------
Total thermal energy                   -101.77288457 Eh


Summary of corrections to the electronic energy:
(perhaps to be used in another calculation)
Total thermal correction                  0.01236401 Eh       7.76 kcal/mol
Non-thermal (ZPE) correction              0.20989410 Eh     131.71 kcal/mol
-----------------------------------------------------------------------
Total correction                          0.22225811 Eh     139.47 kcal/mol


--------
ENTHALPY
--------

The enthalpy is H = U + kB*T
                kB is Boltzmann's constant
Total thermal energy              ...   -101.77288457 Eh 
Thermal Enthalpy correction       ...      0.00094421 Eh       0.59 kcal/mol
-----------------------------------------------------------------------
Total Enthalpy                    ...   -101.77194036 Eh


Note: Only C1 symmetry has been detected, increase convergence thresholds 
      if your molecule has a higher symmetry. Symmetry factor of 1.0 is   
      used for the rotational entropy correction. 
 

Note: Rotational entropy computed according to Herzberg 
Infrared and Raman Spectra, Chapter V,1, Van Nostrand Reinhold, 1945 
Point Group:  C1, Symmetry Number:   1  
Rotational constants in cm-1:     0.073567     0.009760     0.009287 

Vibrational entropy computed according to the QRRHO of S. Grimme
Chem.Eur.J. 2012 18 9955 using a reference frequency of 100.0 cm-1


-------
ENTROPY
-------

The entropy contributions are T*S = T*(S(el)+S(vib)+S(rot)+S(trans))
     S(el)   - electronic entropy
     S(vib)  - vibrational entropy
     S(rot)  - rotational entropy
     S(trans)- translational entropy
The entropies will be listed as multiplied by the temperature to get
units of energy

Electronic entropy                ...      0.00000000 Eh      0.00 kcal/mol
Vibrational entropy               ...      0.01709885 Eh     10.73 kcal/mol
Rotational entropy                ...      0.01513722 Eh      9.50 kcal/mol
Translational entropy             ...      0.01967361 Eh     12.35 kcal/mol
-----------------------------------------------------------------------
Final entropy term                ...      0.05190968 Eh     32.57 kcal/mol

In case the symmetry of your molecule has not been determined correctly
or in case you have a reason to use a different symmetry number we print 
out the resulting rotational entropy values for sn=1,12:

 non-linear molecules -----------------------------------
|  sn= 1 | S(rot)=       0.01513722 Eh      9.50 kcal/mol|
|  sn= 2 | S(rot)=       0.01448277 Eh      9.09 kcal/mol|
|  sn= 3 | S(rot)=       0.01409993 Eh      8.85 kcal/mol|
|  sn= 4 | S(rot)=       0.01382831 Eh      8.68 kcal/mol|
|  sn= 5 | S(rot)=       0.01361762 Eh      8.55 kcal/mol|
|  sn= 6 | S(rot)=       0.01344548 Eh      8.44 kcal/mol|
|  sn= 7 | S(rot)=       0.01329993 Eh      8.35 kcal/mol|
|  sn= 8 | S(rot)=       0.01317385 Eh      8.27 kcal/mol|
|  sn= 9 | S(rot)=       0.01306265 Eh      8.20 kcal/mol|
|  sn=10 | S(rot)=       0.01296317 Eh      8.13 kcal/mol|
|  sn=11 | S(rot)=       0.01287318 Eh      8.08 kcal/mol|
|  sn=12 | S(rot)=       0.01279102 Eh      8.03 kcal/mol|
 linear molecules ---------------------------------------
|  Dinfh | S(rot)=       0.00974373 Eh      6.11 kcal/mol|
|  Cinfv | S(rot)=       0.01039819 Eh      6.52 kcal/mol|
 --------------------------------------------------------


-------------------
GIBBS FREE ENERGY
-------------------

The Gibbs free energy is G = H - T*S

Total enthalpy                    ...   -101.77194036 Eh 
Total entropy correction          ...     -0.05190968 Eh    -32.57 kcal/mol
-----------------------------------------------------------------------
Final Gibbs free energy         ...   -101.82385004 Eh

For completeness - the Gibbs free energy minus the electronic energy
G-E(el)                           ...      0.17129264 Eh    107.49 kcal/mol


Maximum memory used throughout the entire PROP-calculation: 118.2 MB

--------------------------------
SUGGESTED CITATIONS FOR THIS RUN
--------------------------------

Below you find a list of papers that are relevant to this ORCA run
We neither can nor want to force you to cite these papers, but we appreciate if you do
You receive ORCA, which is the product of decades of hard work by many enthusiastic individuals, for free
The only thing we kindly ask in return is that you cite our papers,
We deeply appreciate it, if you show your appreciation for ORCA by not just citing the generic ORCA reference.

Please note that relegating all ORCA citations to the supporting information does *not* help us.
SI sections are not indexed - citations you put there will not count into any citation statistics
But we need these citations in order to attract the funding resources that allow us to do what we are doing

Therefore, if you are a happy ORCA user, please consider citing a few of the papers listed below in the main body of your paper

In addition to the list printed below, the program has created the file ./output/_z_cinnamyl_acetate/_z_cinnamyl_acetate.bibtex that contains the list in bibtex format
You can import this file easily into all common literature databanks and citation aid programs


List of essential papers. We consider these as the minimum necessary citations

  1. Neese,F.
     Software update: the ORCA program system, version 5.0
     WIRES Comput. Molec. Sci., 2022 12(1)e1606
     doi.org/10.1002/wcms.1606
  2. Mueller,M.; Hansen,A.; Grimme,S.
     wB97X-3c: A composite range-separated hybrid DFT method with a molecule-optimized polarized valence double-zeta basis set
     J. Chem. Phys., 2023 158 014103
     doi.org/10.1063/5.0133026

List of papers to cite with high priority. The work reported in these papers was absolutely
necessary for this run to complete.
Our perspective: the developers of density functionals and basis sets usually get cited in chemistry papers
Good! But without the algorithms to do something with them, the functionals or basis sets would not do anything.
Hence, in our opinion, the algorithm design and method developments papers are equally worthy of getting cited

  1. Neese,F.
     An improvement of the resolution of the identity approximation for the formation of the Coulomb matrix
     J. Comp. Chem., 2003 24(14)1740-1747
     doi.org/10.1002/jcc.10318
  2. Neese,F.; Wennmohs,F.; Hansen,A.; Becker,U.
     Efficient, approximate and parallel Hartree-Fock and hybrid DFT calculations. A 'chain-of-spheres' algorithm for the Hartree-Fock exchange
     Chem. Phys., 2009 356(1-3)98-109
     doi.org/10.1016/j.chemphys.2008.10.036
  3. Bykov,D.; Petrenko,T.; Izsak,R.; Kossmann,S.; Becker,U.; Valeev,E.; Neese,F.
     Efficient implementation of the analytic second derivatives of Hartree-Fock and hybrid DFT energies: a detailed analysis of different approximations
     Molec. Phys., 2015 113 1961-1977
     doi.org/10.1080/00268976.2015.1025114
  4. Helmich-Paris,B.; de Souza,B.; Neese,F.; Izsák,R.
     An improved chain of spheres for exchange algorithm
     J. Chem. Phys., 2021 155 104109
     doi.org/doi: 10.1063/5.0058766.
  5. Neese,F.
     The SHARK Integral Generation and Digestion System
     J. Comp. Chem., 2022  1-16
     doi.org/10.1002/jcc.26942
  6. Caldeweyher,E.; Bannwarth,C.; Grimme,S.
     Extension of the D3 dispersion coefficient model
     J. Chem. Phys., 2017 147 034112
     doi.org/10.1063/1.4993215
  7. Caldeweyher,E.; Ehlert,S.; Hansen,A.; Neugebauer,H.; Spicher,S.; Bannwarth,C.; Grimme,S.
     A generally applicable atomic-charge dependent London dispersion correction
     J. Chem. Phys., 2019 150 154122
     doi.org/10.1063/1.5090222
  8. Caldeweyher,E.; Mewes,J.; Ehlert,S.; Grimme,S.
     Extension and evaluation of the D4 London-dispersion model for periodic systems
     Phys. Chem. Chem. Phys., 2020 22(16)8499-8512
     doi.org/10.1039/D0CP00502A
  9. Wittmann,L.; Gordiy,I.; Friede,M.; Helmich-Paris,B.; Grimme,S.; Hansen,A.; Bursch,M.
     Extension of the D3 and D4 London Dispersion Corrections to the full Actinides Series
     Phys. Chem. Chem. Phys., 2024 26(32)21379-21394
     doi.org/https://doi.org/10.1039/D4CP01514B 

List of suggested additional citations. These are papers that are important in the 'surrounding' of 
of this run, or papers that preceded the highly important papers. If you like your results we are grateful for a citation.

  1. Izsak,R.; Neese,F.
     An overlap fitted chain of spheres exchange method
     J. Chem. Phys., 2011 135 144105
     doi.org/10.1063/1.3646921
  2. Izsak,R.; Hansen,A.; Neese,F.
     The resolution of identity and chain of spheres approximations for the LPNO-CCSD singles Fock term
     Molec. Phys., 2012 110 2413-2417
     doi.org/10.1080/00268976.2012.687466
  3. Neese,F.
     The ORCA program system
     WIRES Comput. Molec. Sci., 2012 2(1)73-78
     doi.org/10.1002/wcms.81
  4. Izsak,R.; Neese,F.; Klopper,W.
     Robust fitting techniques in the chain of spheres approximation to the Fock exchange: The role of the complementary space
     J. Chem. Phys., 2013 139 
     doi.org/10.1063/1.4819264
  5. Neese,F.
     Software update: the ORCA program system, version 4.0
     WIRES Comput. Molec. Sci., 2018 8(1)1-6
     doi.org/10.1002/wcms.1327
  6. Neese,F.; Wennmohs,F.; Becker,U.; Riplinger,C.
     The ORCA quantum chemistry program package
     J. Chem. Phys., 2020 152 Art. No. L224108
     doi.org/10.1063/5.0004608

List of optional additional citations

  1. Neese,F.
     Approximate second-order SCF convergence for spin unrestricted wavefunctions
     Chem. Phys. Lett., 2000 325(1-3)93-98
     doi.org/10.1016/s0009-2614(00)00662-x

Timings for individual modules:

Sum of individual times          ...     1711.028 sec (=  28.517 min)
Startup calculation              ...      105.805 sec (=   1.763 min)   6.2 %
SCF iterations                   ...     1204.564 sec (=  20.076 min)  70.4 %
Property integrals               ...       61.252 sec (=   1.021 min)   3.6 %
SCF Response                     ...       39.735 sec (=   0.662 min)   2.3 %
Property calculations            ...       73.281 sec (=   1.221 min)   4.3 %
SCF Gradient evaluation          ...      225.969 sec (=   3.766 min)  13.2 %
Geometry relaxation              ...        0.422 sec (=   0.007 min)   0.0 %
                             ****ORCA TERMINATED NORMALLY****
TOTAL RUN TIME: 0 days 0 hours 28 minutes 44 seconds 738 msec
