
                                 *****************
                                 * O   R   C   A *
                                 *****************

                                            #,                                       
                                            ###                                      
                                            ####                                     
                                            #####                                    
                                            ######                                   
                                           ########,                                 
                                     ,,################,,,,,                         
                               ,,#################################,,                 
                          ,,##########################################,,             
                       ,#########################################, ''#####,          
                    ,#############################################,,   '####,        
                  ,##################################################,,,,####,       
                ,###########''''           ''''###############################       
              ,#####''   ,,,,##########,,,,          '''####'''          '####       
            ,##' ,,,,###########################,,,                        '##       
           ' ,,###''''                  '''############,,,                           
         ,,##''                                '''############,,,,        ,,,,,,###''
      ,#''                                            '''#######################'''  
     '                                                          ''''####''''         
             ,#######,   #######,   ,#######,      ##                                
            ,#'     '#,  ##    ##  ,#'     '#,    #''#        ,####,   ,####,        
            ##       ##  ##   ,#'  ##            #'  '#       #'       #'  '#        
            ##       ##  #######   ##           ,######,      #####,   #    #        
            '#,     ,#'  ##    ##  '#,     ,#' ,#      #,     #,   #   #,  ,#        
             '#######'   ##     ##  '#######'  #'      '#     '####' # '####'        



                #########################################################
                #                        -***-                          #
                #          Department of theory and spectroscopy        #
                #                                                       #
                #                      Frank Neese                      #
                #                                                       #
                #     Directorship, Architecture, Infrastructure        #
                #                    SHARK, DRIVERS                     #
                #        Core code/Algorithms in most modules           #
                #                                                       #
                #        Max Planck Institute fuer Kohlenforschung      #
                #                Kaiser Wilhelm Platz 1                 #
                #                 D-45470 Muelheim/Ruhr                 #
                #                      Germany                          #
                #                                                       #
                #                  All rights reserved                  #
                #                        -***-                          #
                #########################################################


                         Program Version 6.0.1  -  RELEASE   -


 With contributions from (in alphabetic order):
[Max-Planck-Institut fuer Kohlenforschung]                               
  Daniel Aravena         : Magnetic Suceptibility                        
  Michael Atanasov       : Ab Initio Ligand Field Theory (pilot matlab implementation)
  Alexander A. Auer      : GIAO ZORA, VPT2 properties, NMR spectrum      
  Ute Becker             : All parallelization in ORCA, NUMFREQ, NUMCALC 
  Giovanni Bistoni       : ED, misc. LED, open-shell LED, HFLD           
  Martin Brehm           : Molecular dynamics                            
  Dmytro Bykov           : pre 5.0 version of the SCF Hessian            
  Marcos Casanova-Páez   : Triplet and SCS-CIS(D). UHF-(DLPNO)-IP/EA/STEOM-CCSD. UHF-CVS-IP/STEOM-CCSD   
  Vijay G. Chilkuri      : MRCI spin determinant printing, contributions to CSF-ICE 
  Pauline Colinet        : FMM embedding                                 
  Dipayan Datta          : RHF DLPNO-CCSD density                        
  Achintya Kumar Dutta   : EOM-CC, STEOM-CC                              
  Nicolas Foglia         : Exact transition moments, OPA infrastructure, MCD improvements    
  Dmitry Ganyushin       : Spin-Orbit,Spin-Spin,Magnetic field MRCI      
  Miquel Garcia-Rates    : C-PCM and meta-GGA Hessian, CCSD/C-PCM, Gaussian charge scheme 
  Tiago L. C. Gouveia    : GS-ROHF, GS-ROCIS                             
  Yang Guo               : DLPNO-NEVPT2, F12-NEVPT2, CIM, IAO-localization        
  Andreas Hansen         : Spin unrestricted coupled pair/coupled cluster methods 
  Ingolf Harden          : AUTO-CI MPn and infrastructure                
  Benjamin Helmich-Paris : MC-RPA, TRAH-(SCF,CASSCF), AVAS, COSX integrals, SCF dyn. polar. 
  Lee Huntington         : MR-EOM, pCC                                   
  Robert Izsak           : Overlap fitted RIJCOSX, COSX-SCS-MP3, EOM     
  Riya Kayal             : Wick's Theorem for AUTO-CI, AUTO-CI UHF-CCSDT 
  Emily Kempfer          : AUTO-CI, RHF CISDT and CCSDT                  
  Christian Kollmar      : KDIIS, OOCD, Brueckner-CCSD(T), CCSD density, CASPT2, CASPT2-K, improved NEVPT2 
  Axel Koslowski         : Symmetry handling                             
  Simone Kossmann        : meta-GGA functionals, TD-DFT gradient, OOMP2, (MP2 Hessian; deprecated post 5.0) 
  Lucas Lang             : DCDCAS                                        
  Marvin Lechner         : AUTO-CI (C++ implementation), FIC-MRCC        
  Spencer Leger          : CASSCF response                               
  Dagmar Lenk            : GEPOL surface, SMD, ORCA-2-JSON               
  Dimitrios Liakos       : Extrapolation schemes; Compound Job, initial MDCI parallelization 
  Dimitrios Manganas     : Further ROCIS development; embedding schemes. LFT, Crystal Embedding 
  Dimitrios Pantazis     : SARC Basis sets                               
  Anastasios Papadopoulos: AUTO-CI, single reference methods and gradients 
  Taras Petrenko         : pre 6.0 DFT Hessian and TD-DFT gradient, (ASA, deprecated), ECA, 1-Electron XAS/XES, NRVS 
  Peter Pinski           : DLPNO-MP2, DLPNO-MP2 Gradient                 
  Christoph Reimann      : Effective Core Potentials                     
  Marius Retegan         : Local ZFS, SOC                                
  Christoph Riplinger    : Optimizer, TS searches, QM/MM, DLPNO-CCSD(T), (RO)-DLPNO pert. Triples 
  Michael Roemelt        : Original ROCIS implementation                 
  Masaaki Saitow         : Open-shell DLPNO-CCSD energy and density      
  Barbara Sandhoefer     : DKH picture change effects                    
  Kantharuban Sivalingam : CASSCF convergence/infrastructure, NEVPT2 and variants, FIC-MRCI 
  Bernardo de Souza      : ESD, SOC TD-DFT                               
  Georgi L. Stoychev     : AutoAux, RI-MP2 NMR, DLPNO-MP2 response, X2C  
  Van Anh Tran           : RI-MP2 g-tensors                              
  Willem Van den Heuvel  : Paramagnetic NMR                              
  Zikuan Wang            : NOTCH, Electric field optimization            
  Frank Wennmohs         : Technical directorship and infrastructure     
  Hang Xu                : AUTO-CI-Response properties                   
                                                                         
[FACCTs GmbH]                                                            
  Markus Bursch, Miquel Garcia-Rates, Christoph Riplinger, Bernardo de Souza, Georgi L. Stoychev 
                                                                 
  APM, Basis sets (HGBS, AHGBS, def-TZVP (Ac-Lr), def2-XVPD (La-Lu)), CI-OPT, improved COSX, DLPNO-Multilevel,           
  DOCKER, DRACO, updates on ESD, GOAT, IRC, LR-CPCM, MBIS, meta-GGA TD-DFT gradient, ML-optimized integration grids, 
  MM, NACMEs, nearIR, NEB, NEB-TS, NL-DFT gradient (VV10), 2- and 3-layer-ONIOM, interface openCOSMO-RS, QMMM,   
  Crystal-QMMM, SF, symmetry and pop. for TD-DFT, r2SCAN hybrids, SOLVATOR                                   
                                                                         
[Other institutions]                                                     
  V. Asgeirsson          : NEB                                           
  Christoph Bannwarth    : sTDA-DFT, sTD-DFT, PBEh-3c, B97-3c, D3        
  Sebastian Ehlert       : rSCAN, r2SCAN, r2SCAN-3c, D4, dhf basis sets  
  Marvin Friede          : D4 for Fr, Ra, Ac-Lr                          
  Lars Goerigk           : TD-DFT with DH, B97 family of functionals     
  Stefan Grimme          : VdW corrections, initial TS optimization, DFT functionals, gCP, sTDA/sTD-DF 
  Waldemar Hujo          : DFT-NL                                        
  H. Jonsson             : NEB                                           
  Holger Kruse           : gCP                                           
  Marcel Mueller         : wB97X-3c, vDZP basis set                      
  Hagen Neugebauer       : wr2SCAN                                       
  Tobias Risthaus        : range-separated hybrid DFT                    
  Lukas Wittmann         : regularized MP2, r2SCAN double-hybrids, wr2SCAN        
                                                                         
We gratefully acknowledge several colleagues who have allowed us to      
interface, adapt or use parts of their codes:                            
  Ed Valeev, F. Pavosevic, A. Kumar             : LibInt (2-el integral package), F12 methods 
  Garnet Chan, S. Sharma, J. Yang, R. Olivares  : DMRG                   
  Ulf Ekstrom                                   : XCFun DFT Library      
  Mihaly Kallay                                 : mrcc  (arbitrary order and MRCC methods)
  Frank Weinhold                                : gennbo (NPA and NBO analysis)           
  Simon Mueller                                 : openCOSMO-RS                            
  Christopher J. Cramer and Donald G. Truhlar   : smd solvation model                     
  S Lehtola, MJT Oliveira, MAL Marques          : LibXC Library                           
  Liviu Ungur et al                             : ANISO software                          


 Your calculation uses the libint2 library for the computation of 2-el integrals
 For citations please refer to: http://libint.valeyev.net

 Your ORCA version has been built with support for libXC version: 6.2.2
 For citations please refer to: https://libxc.gitlab.io

 This ORCA versions uses:
   CBLAS   interface :  Fast vector & matrix operations
   LAPACKE interface :  Fast linear algebra routines
   SCALAPACK package :  Parallel linear algebra routines
   Shared memory     :  Shared parallel matrices
   BLAS/LAPACK       :  OpenBLAS 0.3.27  USE64BITINT DYNAMIC_ARCH NO_AFFINITY SkylakeX SINGLE_THREADED
        Core in use  :  SkylakeX
   Copyright (c) 2011-2014, The OpenBLAS Project


Your calculation utilizes the atom-pairwise dispersion correction
based on EEQ partial charges (D4)


================================================================================

cite the ECPs for C  [vDZP-ECP], O  [vDZP-ECP] as follows:
   B-Ne (ecp-2-mwb), Al-Ar (ecp-10-mwb), Ga-Kr (ecp-28-mwb), Y-Cd (ecp-28-mwb), In-Xe (ecp-46-mwb):
     A. Bergner, M. Dolg, W. Küchle, H. Stoll, and H. Preuß, Mol. Phys. 80, 1431 (1993)., T. Leininger, A. Berning, A. Nicklass, H. Stoll, H.-J. Werner, and H.-J.Flad, Chem. Phys. 217, 19 (1997).
   Na-Mg, K-Ca, Rb-Sr, Cs-Ba (CRENBL):
     L. Fernandez Pacios and P. A. Christiansen, J. Chem. Phys. 82, 2664 (1985)., M. M. Hurley, L. F. Pacios, P. A. Christiansen, R. B. Ross, and W. C. Ermler, J. Chem. Phys. 84, 6840 (1986)., L. A. LaJohn, P. A. Christiansen, R. B. Ross, T. Atashroo, and W. C. Ermler, J. Chem. Phys. 87, 2812 (1987)., R. B. Ross, J. M. Powers, T. Atashroo, W. C. Ermler, L. A. LaJohn, and P. A. Christiansen, J. Chem. Phys. 93, 6654 (1990). 
   Sc-Zn (ecp-10-mdf):
     M. Dolg, U. Wedig, H. Stoll, and H. Preuss, J. Chem. Phys. 86, 866 (1986). 
   Y-Cd (ecp-28-mwb), Hf-Hg (ecp-60-mwb):
     D. Andrae, U. Häußermann, M. Dolg, H. Stoll, and H. Preuß, Theor. Chim. Acta 77, 123 (1990). 
   La (ecp-46-mwb):
     M. Dolg, H. Stoll, and H. Preuss, J. Chem. Phys. 90, 1730 (1989)., M. Dolg, H. Stoll, and H. Preuss, Theor. Chim. Acta 85, 441 (1993).
   Ce-Lu (SBKJC-ecp):
     T. R. Cundari and W. J. Stevens, J. Chem. Phys. 98, 5555 (1993).
   Tl-Rn (ecp-78-mwb):
     W. Küchle, M. Dolg, H. Stoll, and H. Preuss, Mol. Phys. 74, 1245 (1991).

ECP parameters for C  [vDZP-ECP], O  [vDZP-ECP] have been obtained from:
MM, AH, SG, J. Chem. Phys. 158, 014103 (2023), 10.1063/5.0133026

----- Orbital basis set information -----
Your calculation utilizes the basis: vDZP
   Marcel Mueller, Andreas Hansen, Stefan Grimme 
   J. Chem. Phys. 158, 014103 (2023). DOI: 10.1063/5.0133026

----- AuxJ basis set information -----
Your calculation utilizes the auxiliary basis: def2/J
   F. Weigend, Phys. Chem. Chem. Phys. 8, 1057 (2006).

================================================================================
                                        WARNINGS
                       Please study these warnings very carefully!
================================================================================

WARNING: Frozen-Core approximation turned on, but there are no core electrons.
  ===> : Turning off frozen-core approximation


WARNING: Geometry Optimization
  ===> : Switching off AutoStart
         For restart on a previous wavefunction, please use MOREAD

================================================================================
                                       INPUT FILE
================================================================================
NAME = ./output/_z_methyl_isoeugenol/_z_methyl_isoeugenol.inp
|  1> ! wB97X-3c OPT FREQ TightSCF
|  2> %pal
|  3>   nprocs 40
|  4> end
|  5> * xyz 0 1
|  6> C      4.780973     0.247021     0.072083
|  7> C      3.338501     0.640352     0.071154
|  8> C      2.382823    -0.265932    -0.166337
|  9> C      0.930891     0.042256    -0.170579
| 10> C      0.019387    -1.013792    -0.013588
| 11> C     -1.369502    -0.777621    -0.018691
| 12> C     -1.850644     0.528110    -0.193427
| 13> C     -0.939503     1.585524    -0.366726
| 14> C      0.435585     1.344990    -0.359849
| 15> O     -3.239554     0.733511    -0.192539
| 16> C     -3.867773     2.000517    -0.358924
| 17> O     -2.302599    -1.813914     0.146190
| 18> C     -1.963777    -3.184343     0.332740
| 19> H      4.962023    -0.531185     0.843483
| 20> H      5.066530    -0.147857    -0.925829
| 21> H      5.411529     1.131573     0.301096
| 22> H      3.095107     1.670009     0.293542
| 23> H      2.680619    -1.296647    -0.326461
| 24> H      0.398604    -2.018331     0.121003
| 25> H     -1.284552     2.599659    -0.514904
| 26> H      1.099891     2.181167    -0.526678
| 27> H     -4.968114     1.868096    -0.313640
| 28> H     -3.602157     2.431613    -1.347252
| 29> H     -3.558922     2.689792     0.455158
| 30> H     -1.361795    -3.306483     1.257895
| 31> H     -1.397916    -3.560898    -0.545450
| 32> H     -2.895655    -3.777184     0.435044
| 33> *
| 34> 
| 35>                          ****END OF INPUT****
================================================================================

                       *****************************
                       * Geometry Optimization Run *
                       *****************************

Geometry optimization settings:
Update method            Update   .... BFGS
Choice of coordinates    CoordSys .... (2022) Redundant Internals
Initial Hessian          InHess   .... Almloef's Model
Max. no of cycles        MaxIter  .... 81

Convergence Tolerances:
Energy Change            TolE     ....  5.0000e-06 Eh
Max. Gradient            TolMAXG  ....  3.0000e-04 Eh/bohr
RMS Gradient             TolRMSG  ....  1.0000e-04 Eh/bohr
Max. Displacement        TolMAXD  ....  4.0000e-03 bohr
RMS Displacement         TolRMSD  ....  2.0000e-03 bohr
Strict Convergence                .... False

------------------------------------------------------------------------------
                        ORCA OPTIMIZATION COORDINATE SETUP
------------------------------------------------------------------------------

The optimization will be done in redundant internal coordinates (2022)
Making redundant internal coordinates   ...  (2022 redundants) done
Evaluating the initial hessian          ...  (Almloef) done
Evaluating the coordinates              ...  done
Calculating the B-matrix                .... done
Calculating the G-matrix                .... done
Diagonalizing the G-matrix              .... done
Small eigenvalue found = 6.416e-03
Small eigenvalue found = 1.170e-02
Small eigenvalue found = 2.526e-02
The first mode is                       ....   43
The number of degrees of freedom        ....   75

    -----------------------------------------------------------------
                    Redundant Internal Coordinates


    -----------------------------------------------------------------
         Definition                    Initial Value    Approx d2E/dq
    -----------------------------------------------------------------
      1. B(C   1,C   0)                  1.4951         0.424618   
      2. B(C   2,C   1)                  1.3383         0.755452   
      3. B(C   3,C   2)                  1.4843         0.441887   
      4. B(C   4,C   3)                  1.4038         0.593858   
      5. B(C   5,C   4)                  1.4088         0.583027   
      6. B(C   6,C   5)                  1.4025         0.596788   
      7. B(C   7,C   6)                  1.4065         0.587978   
      8. B(C   8,C   7)                  1.3960         0.611212   
      9. B(C   8,C   3)                  1.4065         0.588030   
     10. B(O   9,C   6)                  1.4040         0.531513   
     11. B(C  10,O   9)                  1.4240         0.493972   
     12. B(O  11,C   5)                  1.4042         0.531167   
     13. B(C  12,O  11)                  1.4240         0.493954   
     14. B(H  13,C   0)                  1.1106         0.333849   
     15. B(H  14,C   0)                  1.1105         0.333928   
     16. B(H  15,C   0)                  1.1102         0.334381   
     17. B(H  16,C   1)                  1.0812         0.371996   
     18. B(H  17,C   2)                  1.0848         0.367104   
     19. B(H  18,C   4)                  1.0821         0.370654   
     20. B(H  19,C   7)                  1.0814         0.371621   
     21. B(H  20,C   8)                  1.0809         0.372353   
     22. B(H  21,C  10)                  1.1092         0.335569   
     23. B(H  22,C  10)                  1.1105         0.333989   
     24. B(H  23,C  10)                  1.1105         0.333973   
     25. B(H  24,C  12)                  1.1105         0.333976   
     26. B(H  25,C  12)                  1.1105         0.333977   
     27. B(H  26,C  12)                  1.1092         0.335577   
     28. A(H  13,C   0,H  14)          109.4549         0.284051   
     29. A(H  13,C   0,H  15)          108.8098         0.284111   
     30. A(C   1,C   0,H  13)          110.0016         0.327125   
     31. A(H  14,C   0,H  15)          108.8220         0.284121   
     32. A(C   1,C   0,H  14)          109.9414         0.327138   
     33. A(C   1,C   0,H  15)          109.7851         0.327211   
     34. A(C   0,C   1,H  16)          117.8793         0.333029   
     35. A(C   2,C   1,H  16)          121.3774         0.367018   
     36. A(C   0,C   1,C   2)          120.7238         0.420220   
     37. A(C   3,C   2,H  17)          117.7369         0.334504   
     38. A(C   1,C   2,H  17)          118.2686         0.366186   
     39. A(C   1,C   2,C   3)          123.9472         0.423222   
     40. A(C   2,C   3,C   4)          118.5961         0.405503   
     41. A(C   2,C   3,C   8)          122.4916         0.404797   
     42. A(C   4,C   3,C   8)          118.8918         0.426648   
     43. A(C   3,C   4,H  18)          118.9924         0.352063   
     44. A(C   5,C   4,H  18)          120.1018         0.350969   
     45. A(C   3,C   4,C   5)          120.9037         0.425995   
     46. A(C   4,C   5,O  11)          122.0703         0.414888   
     47. A(C   6,C   5,O  11)          118.2778         0.416614   
     48. A(C   4,C   5,C   6)          119.6519         0.426371   
     49. A(C   5,C   6,C   7)          119.5406         0.427017   
     50. A(C   7,C   6,O   9)          122.0675         0.415561   
     51. A(C   5,C   6,O   9)          118.3917         0.416662   
     52. A(C   8,C   7,H  19)          118.4603         0.353939   
     53. A(C   6,C   7,H  19)          121.0108         0.351626   
     54. A(C   6,C   7,C   8)          120.5275         0.428849   
     55. A(C   3,C   8,H  20)          121.3901         0.351748   
     56. A(C   3,C   8,C   7)          120.4732         0.428856   
     57. A(C   7,C   8,H  20)          118.1211         0.354057   
     58. A(C   6,O   9,C  10)          124.5085         0.400352   
     59. A(H  22,C  10,H  23)          110.1791         0.284076   
     60. A(H  21,C  10,H  23)          108.6670         0.284284   
     61. A(O   9,C  10,H  23)          110.1157         0.333413   
     62. A(H  21,C  10,H  22)          108.6603         0.284286   
     63. A(O   9,C  10,H  22)          110.1137         0.333416   
     64. A(O   9,C  10,H  21)          109.0660         0.333677   
     65. A(C   5,O  11,C  12)          124.5775         0.400303   
     66. A(H  25,C  12,H  26)          108.6508         0.284286   
     67. A(H  24,C  12,H  26)          108.6507         0.284285   
     68. A(O  11,C  12,H  26)          109.0602         0.333676   
     69. A(H  24,C  12,H  25)          110.2003         0.284074   
     70. A(O  11,C  12,H  25)          110.1196         0.333412   
     71. A(O  11,C  12,H  24)          110.1194         0.333412   
     72. D(C   2,C   1,C   0,H  15)   -179.2411         0.013324   
     73. D(H  16,C   1,C   0,H  13)    118.8836         0.013324   
     74. D(H  16,C   1,C   0,H  14)   -120.5115         0.013324   
     75. D(C   2,C   1,C   0,H  13)    -59.5324         0.013324   
     76. D(C   2,C   1,C   0,H  14)     61.0726         0.013324   
     77. D(C   3,C   2,C   1,C   0)    179.3397         0.040758   
     78. D(C   3,C   2,C   1,H  16)      0.9798         0.040758   
     79. D(H  17,C   2,C   1,H  16)   -176.4562         0.040758   
     80. D(H  17,C   2,C   1,C   0)      1.9038         0.040758   
     81. D(C   4,C   3,C   2,C   1)   -160.3532         0.013321   
     82. D(C   8,C   3,C   2,H  17)   -161.2376         0.013321   
     83. D(C   8,C   3,C   2,C   1)     21.3139         0.013321   
     84. D(C   4,C   3,C   2,H  17)     17.0954         0.013321   
     85. D(C   5,C   4,C   3,C   8)     -1.2047         0.024286   
     86. D(C   5,C   4,C   3,C   2)   -179.5987         0.024286   
     87. D(H  18,C   4,C   3,C   8)    179.3194         0.024286   
     88. D(H  18,C   4,C   3,C   2)      0.9254         0.024286   
     89. D(O  11,C   5,C   4,H  18)     -0.0480         0.023365   
     90. D(O  11,C   5,C   4,C   3)   -179.5180         0.023365   
     91. D(C   6,C   5,C   4,H  18)    179.9791         0.023365   
     92. D(C   6,C   5,C   4,C   3)      0.5090         0.023365   
     93. D(O   9,C   6,C   5,O  11)      0.1014         0.024538   
     94. D(O   9,C   6,C   5,C   4)   -179.9246         0.024538   
     95. D(C   7,C   6,C   5,O  11)   -179.7277         0.024538   
     96. D(C   7,C   6,C   5,C   4)      0.2463         0.024538   
     97. D(H  19,C   7,C   6,O   9)     -0.5423         0.023783   
     98. D(H  19,C   7,C   6,C   5)    179.2803         0.023783   
     99. D(C   8,C   7,C   6,O   9)    179.8883         0.023783   
    100. D(C   8,C   7,C   6,C   5)     -0.2891         0.023783   
    101. D(C   7,C   8,C   3,C   4)      1.1586         0.023788   
    102. D(C   7,C   8,C   3,C   2)    179.4869         0.023788   
    103. D(H  20,C   8,C   7,H  19)     -1.4204         0.025807   
    104. D(H  20,C   8,C   7,C   6)    178.1598         0.025807   
    105. D(C   3,C   8,C   7,H  19)    179.9971         0.025807   
    106. D(C   3,C   8,C   7,C   6)     -0.4227         0.025807   
    107. D(H  20,C   8,C   3,C   4)   -177.3768         0.023788   
    108. D(H  20,C   8,C   3,C   2)      0.9514         0.023788   
    109. D(C  10,O   9,C   6,C   7)     -0.1601         0.020373   
    110. D(C  10,O   9,C   6,C   5)   -179.9847         0.020373   
    111. D(H  23,C  10,O   9,C   6)    -60.6979         0.019277   
    112. D(H  22,C  10,O   9,C   6)     60.9943         0.019277   
    113. D(H  21,C  10,O   9,C   6)   -179.8565         0.019277   
    114. D(C  12,O  11,C   5,C   6)    179.9925         0.020346   
    115. D(C  12,O  11,C   5,C   4)      0.0192         0.020346   
    116. D(H  26,C  12,O  11,C   5)    179.9996         0.019275   
    117. D(H  25,C  12,O  11,C   5)    -60.8628         0.019275   
    118. D(H  24,C  12,O  11,C   5)     60.8622         0.019275   
    -----------------------------------------------------------------

Number of atoms                         .... 27
Number of degrees of freedom            .... 118


         *************************************************************
         *                GEOMETRY OPTIMIZATION CYCLE   1            *
         *************************************************************
---------------------------------
CARTESIAN COORDINATES (ANGSTROEM)
---------------------------------
  C      4.780973    0.247021    0.072083
  C      3.338501    0.640352    0.071154
  C      2.382823   -0.265932   -0.166337
  C      0.930891    0.042256   -0.170579
  C      0.019387   -1.013792   -0.013588
  C     -1.369502   -0.777621   -0.018691
  C     -1.850644    0.528110   -0.193427
  C     -0.939503    1.585524   -0.366726
  C      0.435585    1.344990   -0.359849
  O     -3.239554    0.733511   -0.192539
  C     -3.867773    2.000517   -0.358924
  O     -2.302599   -1.813914    0.146190
  C     -1.963777   -3.184343    0.332740
  H      4.962023   -0.531185    0.843483
  H      5.066530   -0.147857   -0.925829
  H      5.411529    1.131573    0.301096
  H      3.095107    1.670009    0.293542
  H      2.680619   -1.296647   -0.326461
  H      0.398604   -2.018331    0.121003
  H     -1.284552    2.599659   -0.514904
  H      1.099891    2.181167   -0.526678
  H     -4.968114    1.868096   -0.313640
  H     -3.602157    2.431613   -1.347252
  H     -3.558922    2.689792    0.455158
  H     -1.361795   -3.306483    1.257895
  H     -1.397916   -3.560898   -0.545450
  H     -2.895655   -3.777184    0.435044

----------------------------
CARTESIAN COORDINATES (A.U.)
----------------------------
  NO LB      ZA    FRAG     MASS         X           Y           Z
   0 C     4.0000*   0    12.011    9.034730    0.466802    0.136217
   1 C     4.0000*   0    12.011    6.308853    1.210090    0.134462
   2 C     4.0000*   0    12.011    4.502883   -0.502539   -0.314331
   3 C     4.0000*   0    12.011    1.759129    0.079852   -0.322348
   4 C     4.0000*   0    12.011    0.036636   -1.915789   -0.025678
   5 C     4.0000*   0    12.011   -2.587984   -1.469491   -0.035321
   6 C     4.0000*   0    12.011   -3.497210    0.997983   -0.365524
   7 C     4.0000*   0    12.011   -1.775403    2.996206   -0.693012
   8 C     4.0000*   0    12.011    0.823136    2.541663   -0.680016
   9 O     6.0000*   0    15.999   -6.121870    1.386135   -0.363846
  10 C     4.0000*   0    12.011   -7.309032    3.780429   -0.678268
  11 O     6.0000*   0    15.999   -4.351282   -3.427801    0.276259
  12 C     4.0000*   0    12.011   -3.711001   -6.017536    0.628787
  13 H     1.0000    0     1.008    9.376865   -1.003794    1.593952
  14 H     1.0000    0     1.008    9.574354   -0.279409   -1.749563
  15 H     1.0000    0     1.008   10.226308    2.138363    0.568989
  16 H     1.0000    0     1.008    5.848905    3.155860    0.554714
  17 H     1.0000    0     1.008    5.065636   -2.450308   -0.616922
  18 H     1.0000    0     1.008    0.753252   -3.814093    0.228663
  19 H     1.0000    0     1.008   -2.427451    4.912644   -0.973028
  20 H     1.0000    0     1.008    2.078493    4.121808   -0.995277
  21 H     1.0000    0     1.008   -9.388375    3.530190   -0.592694
  22 H     1.0000    0     1.008   -6.807090    4.595083   -2.545937
  23 H     1.0000    0     1.008   -6.725388    5.082970    0.860124
  24 H     1.0000    0     1.008   -2.573420   -6.248347    2.377077
  25 H     1.0000    0     1.008   -2.641678   -6.729122   -1.030751
  26 H     1.0000    0     1.008   -5.471995   -7.137843    0.822114
* core charge reduced due to ECP

--------------------------------
INTERNAL COORDINATES (ANGSTROEM)
--------------------------------
 C      0   0   0     0.000000000000     0.00000000     0.00000000
 C      1   0   0     1.495137321247     0.00000000     0.00000000
 C      2   1   0     1.338309793516   120.72382698     0.00000000
 C      3   2   1     1.484285811605   123.94717232   179.33970395
 C      4   3   2     1.403824452843   118.59609992   199.64681636
 C      5   4   3     1.408834779586   120.90368631   180.40126757
 C      6   5   4     1.402484844204   119.65189521     0.50899310
 C      7   6   5     1.406532912049   119.54061015     0.24628827
 C      8   7   6     1.395983848771   120.52754053   359.71087126
 O      7   6   5     1.404016149282   118.39170378   180.07540677
 C     10   7   6     1.423954804136   124.50853386   180.01534810
 O      6   5   4     1.404193340470   122.07029916   180.48198269
 C     12   6   5     1.423965201199   124.57752936     0.00000000
 H      1   2   3     1.110604178335   110.00155374   300.46763126
 H      1   2   3     1.110540316637   109.94143685    61.07257610
 H      1   2   3     1.110171186804   109.78508474   180.75890419
 H      2   1   3     1.081152440421   117.87927899   178.41593482
 H      3   2   1     1.084755992939   118.26857476     1.90376851
 H      5   4   3     1.082136254310   118.99243863     0.92541745
 H      8   7   6     1.081427450322   121.01080410   179.28028421
 H      9   8   7     1.080891461806   118.12108548   178.15977920
 H     11  10   7     1.109205246191   109.06604343   180.14354817
 H     11  10   7     1.110489917224   110.11367431    60.99434765
 H     11  10   7     1.110503700377   110.11570229   299.30214785
 H     13  12   6     1.110500914880   110.11938896    60.86220401
 H     13  12   6     1.110499894393   110.11960485   299.13717829
 H     13  12   6     1.109199335819   109.06017821   179.99957358

---------------------------
INTERNAL COORDINATES (A.U.)
---------------------------
 C      0   0   0     0.000000000000     0.00000000     0.00000000
 C      1   0   0     2.825400069762     0.00000000     0.00000000
 C      2   1   0     2.529038992090   120.72382698     0.00000000
 C      3   2   1     2.804893688399   123.94717232   179.33970395
 C      4   3   2     2.652843755976   118.59609992   199.64681636
 C      5   4   3     2.662311901361   120.90368631   180.40126757
 C      6   5   4     2.650312262520   119.65189521     0.50899310
 C      7   6   5     2.657962002120   119.54061015     0.24628827
 C      8   7   6     2.638027161554   120.52754053   359.71087126
 O      7   6   5     2.653206009746   118.39170378   180.07540677
 C     10   7   6     2.690884606899   124.50853386   180.01534810
 O      6   5   4     2.653540852563   122.07029916   180.48198269
 C     12   6   5     2.690904254500   124.57752936     0.00000000
 H      1   2   3     2.098737740243   110.00155374   300.46763126
 H      1   2   3     2.098617059123   109.94143685    61.07257610
 H      1   2   3     2.097919504829   109.78508474   180.75890419
 H      2   1   3     2.043082021417   117.87927899   178.41593482
 H      3   2   1     2.049891748784   118.26857476     1.90376851
 H      5   4   3     2.044941160232   118.99243863     0.92541745
 H      8   7   6     2.043601714813   121.01080410   179.28028421
 H      9   8   7     2.042588843308   118.12108548   178.15977920
 H     11  10   7     2.096094141610   109.06604343   180.14354817
 H     11  10   7     2.098521818034   110.11367431    60.99434765
 H     11  10   7     2.098547864418   110.11570229   299.30214785
 H     13  12   6     2.098542600592   110.11938896    60.86220401
 H     13  12   6     2.098540672151   110.11960485   299.13717829
 H     13  12   6     2.096082972625   109.06017821   179.99957358

---------------------
BASIS SET INFORMATION
---------------------
There are 3 groups of distinct atoms

 Group   1 Type C   : 6s6p2d contracted to 2s2p1d pattern {42/42/2}
 Group   2 Type O   : 6s6p2d contracted to 2s2p1d pattern {42/42/2}
 Group   3 Type H   : 8s2p contracted to 2s1p pattern {53/2}

Atom   0C    basis set group =>   1
Atom   1C    basis set group =>   1
Atom   2C    basis set group =>   1
Atom   3C    basis set group =>   1
Atom   4C    basis set group =>   1
Atom   5C    basis set group =>   1
Atom   6C    basis set group =>   1
Atom   7C    basis set group =>   1
Atom   8C    basis set group =>   1
Atom   9O    basis set group =>   2
Atom  10C    basis set group =>   1
Atom  11O    basis set group =>   2
Atom  12C    basis set group =>   1
Atom  13H    basis set group =>   3
Atom  14H    basis set group =>   3
Atom  15H    basis set group =>   3
Atom  16H    basis set group =>   3
Atom  17H    basis set group =>   3
Atom  18H    basis set group =>   3
Atom  19H    basis set group =>   3
Atom  20H    basis set group =>   3
Atom  21H    basis set group =>   3
Atom  22H    basis set group =>   3
Atom  23H    basis set group =>   3
Atom  24H    basis set group =>   3
Atom  25H    basis set group =>   3
Atom  26H    basis set group =>   3
---------------------------------
AUXILIARY/J BASIS SET INFORMATION
---------------------------------
There are 3 groups of distinct atoms

 Group   1 Type C   : 12s5p4d2f1g contracted to 6s4p3d1f1g pattern {711111/2111/211/2/1}
 Group   2 Type O   : 12s5p4d2f1g contracted to 6s4p3d1f1g pattern {711111/2111/211/2/1}
 Group   3 Type H   : 5s2p1d contracted to 3s1p1d pattern {311/2/1}

Atom   0C    basis set group =>   1
Atom   1C    basis set group =>   1
Atom   2C    basis set group =>   1
Atom   3C    basis set group =>   1
Atom   4C    basis set group =>   1
Atom   5C    basis set group =>   1
Atom   6C    basis set group =>   1
Atom   7C    basis set group =>   1
Atom   8C    basis set group =>   1
Atom   9O    basis set group =>   2
Atom  10C    basis set group =>   1
Atom  11O    basis set group =>   2
Atom  12C    basis set group =>   1
Atom  13H    basis set group =>   3
Atom  14H    basis set group =>   3
Atom  15H    basis set group =>   3
Atom  16H    basis set group =>   3
Atom  17H    basis set group =>   3
Atom  18H    basis set group =>   3
Atom  19H    basis set group =>   3
Atom  20H    basis set group =>   3
Atom  21H    basis set group =>   3
Atom  22H    basis set group =>   3
Atom  23H    basis set group =>   3
Atom  24H    basis set group =>   3
Atom  25H    basis set group =>   3
Atom  26H    basis set group =>   3
-------------------------
ECP PARAMETER INFORMATION
-------------------------

 Group 1, Type C  ECP vDZP-ECP (replacing 2 core electrons, lmax=3)
 Group 2, Type O  ECP vDZP-ECP (replacing 2 core electrons, lmax=3)

Atom   0C    ECP group =>   1
Atom   1C    ECP group =>   1
Atom   2C    ECP group =>   1
Atom   3C    ECP group =>   1
Atom   4C    ECP group =>   1
Atom   5C    ECP group =>   1
Atom   6C    ECP group =>   1
Atom   7C    ECP group =>   1
Atom   8C    ECP group =>   1
Atom   9O    ECP group =>   2
Atom  10C    ECP group =>   1
Atom  11O    ECP group =>   2
Atom  12C    ECP group =>   1



           ************************************************************
           *        Program running with 40 parallel MPI-processes    *
           *              working on a common directory               *
           ************************************************************
------------------------------------------------------------------------------
                             ORCA STARTUP CALCULATIONS
                           -- RI-GTO INTEGRALS CHOSEN --
------------------------------------------------------------------------------
------------------------------------------------------------------------------
                   ___                                                        
                  /   \      - P O W E R E D   B Y -                         
                 /     \                                                     
                 |  |  |   _    _      __       _____    __    __             
                 |  |  |  | |  | |    /  \     |  _  \  |  |  /  |          
                  \  \/   | |  | |   /    \    | | | |  |  | /  /          
                 / \  \   | |__| |  /  /\  \   | |_| |  |  |/  /          
                |  |  |   |  __  | /  /__\  \  |    /   |      \           
                |  |  |   | |  | | |   __   |  |    \   |  |\   \          
                \     /   | |  | | |  |  |  |  | |\  \  |  | \   \       
                 \___/    |_|  |_| |__|  |__|  |_| \__\ |__|  \__/        
                                                                              
                      - O R C A' S   B I G   F R I E N D -                    
                                      &                                       
                       - I N T E G R A L  F E E D E R -                       
                                                                              
 v1 FN, 2020, v2 2021, v3 2022-2024                                           
------------------------------------------------------------------------------


----------------------
SHARK INTEGRAL PACKAGE
----------------------

Number of atoms                             ...     27
Number of basis functions                   ...    239
Number of shells                            ...    107
Maximum angular momentum                    ...      2
Integral batch strategy                     ... SHARK/LIBINT Hybrid
RI-J (if used) integral strategy            ... SPLIT-RIJ (Revised 2003 algorithm where possible)
Printlevel                                  ...      1
Contraction scheme used                     ... SEGMENTED contraction
Prescreening option                         ... SCHWARTZ
   Thresh                                   ... 2.500e-11
   Tcut                                     ... 2.500e-12
   Tpresel                                  ... 2.500e-12 
Coulomb Range Separation                    ... NOT USED
Exchange Range Separation                   ... Long Range
   Mu parameter                             ... 3.000e-01
   Scaling (regular/separated)              ... 1.670e-01 8.330e-01
Multipole approximations                    ... NOT USED
Finite Nucleus Model                        ... NOT USED
CABS basis                                  ... NOT available
Auxiliary Coulomb fitting basis             ... AVAILABLE
   # of basis functions in Aux-J            ...    791
   # of shells in Aux-J                     ...    265
   Maximum angular momentum in Aux-J        ...      4
Auxiliary J/K fitting basis                 ... NOT available
Auxiliary Correlation fitting basis         ... NOT available
Auxiliary 'external' fitting basis          ... NOT available

Checking pre-screening integrals            ... done (  0.0 sec) Dimension = 107
Check shell pair data                       ... done (  0.0 sec)
Shell pair information
Shell pair cut-off parameter TPreSel        ...   2.5e-12
Total number of shell pairs                 ...      5778
Shell pairs after pre-screening             ...      5585
Total number of primitive shell pairs       ...     52394
Primitive shell pairs kept                  ...     37974
          la=0 lb=0:   1455 shell pairs
          la=1 lb=0:   2089 shell pairs
          la=1 lb=1:    771 shell pairs
          la=2 lb=0:    683 shell pairs
          la=2 lb=1:    498 shell pairs
          la=2 lb=2:     89 shell pairs

Calculating one electron integrals          ... done (  0.0 sec)
Calculating ECP integrals                   ... done (  0.1 sec)
Calculating RI/J V-Matrix + Cholesky decomp.... done (  0.0 sec)
Calculating Nuclear repulsion               ... done (  0.0 sec) ENN=    394.058188651955 Eh

Diagonalization of the overlap matrix:
Smallest eigenvalue                        ... 2.707e-04
Time for diagonalization                   ...    0.008 sec
Threshold for overlap eigenvalues          ... 1.000e-07
Number of eigenvalues below threshold      ... 0
Time for construction of square roots      ...    0.007 sec
Total time needed                          ...    0.018 sec

-------------------
DFT GRID GENERATION
-------------------

General Integration Accuracy     IntAcc      ... 4.388
Radial Grid Type                 RadialGrid  ... OptM3 with GC (2021)
Angular Grid (max. ang.)         AngularGrid ... 4 (Lebedev-302)
Angular grid pruning method      GridPruning ... 4 (adaptive)
Weight generation scheme         WeightScheme... mBecke (2022)
Basis function cutoff            BFCut       ... 1.0000e-11
Integration weight cutoff        WCut        ... 1.0000e-14
Partially contracted basis set               ... off
Rotationally invariant grid construction     ... off
Angular grids for H and He will be reduced by one unit

Total number of grid points                  ...   123128
Total number of batches                      ...     1939
Average number of points per batch           ...       63
Average number of grid points per atom       ...     4560

--------------------
COSX GRID GENERATION
--------------------

GRIDX 1
-------
General Integration Accuracy     IntAcc      ... 3.816
Radial Grid Type                 RadialGrid  ... OptM3 with GC (2021)
Angular Grid (max. ang.)         AngularGrid ... 1 (Lebedev-50)
Angular grid pruning method      GridPruning ... 4 (adaptive)
Weight generation scheme         WeightScheme... mBecke (2022)
Basis function cutoff            BFCut       ... 1.0000e-11
Integration weight cutoff        WCut        ... 1.0000e-14
Partially contracted basis set               ... on
Rotationally invariant grid construction     ... off
Angular grids for H and He will be reduced by one unit

Total number of grid points                  ...    15777
Total number of batches                      ...      140
Average number of points per batch           ...      112
Average number of grid points per atom       ...      584
UseSFitting                                  ... on

GRIDX 2
-------
General Integration Accuracy     IntAcc      ... 4.020
Radial Grid Type                 RadialGrid  ... OptM3 with GC (2021)
Angular Grid (max. ang.)         AngularGrid ... 2 (Lebedev-110)
Angular grid pruning method      GridPruning ... 4 (adaptive)
Weight generation scheme         WeightScheme... mBecke (2022)
Basis function cutoff            BFCut       ... 1.0000e-11
Integration weight cutoff        WCut        ... 1.0000e-14
Partially contracted basis set               ... on
Rotationally invariant grid construction     ... off
Angular grids for H and He will be reduced by one unit

Total number of grid points                  ...    33759
Total number of batches                      ...      280
Average number of points per batch           ...      120
Average number of grid points per atom       ...     1250
UseSFitting                                  ... on

GRIDX 3
-------
General Integration Accuracy     IntAcc      ... 4.338
Radial Grid Type                 RadialGrid  ... OptM3 with GC (2021)
Angular Grid (max. ang.)         AngularGrid ... 3 (Lebedev-194)
Angular grid pruning method      GridPruning ... 4 (adaptive)
Weight generation scheme         WeightScheme... mBecke (2022)
Basis function cutoff            BFCut       ... 1.0000e-11
Integration weight cutoff        WCut        ... 1.0000e-14
Partially contracted basis set               ... on
Rotationally invariant grid construction     ... off
Angular grids for H and He will be reduced by one unit

Total number of grid points                  ...    73920
Total number of batches                      ...      591
Average number of points per batch           ...      125
Average number of grid points per atom       ...     2738
UseSFitting                                  ... on
Initializing property integral containers    ... done (  0.0 sec)

SHARK setup successfully completed in   3.8 seconds

Maximum memory used throughout the entire STARTUP-calculation: 35.8 MB


           ************************************************************
           *        Program running with 40 parallel MPI-processes    *
           *              working on a common directory               *
           ************************************************************
-------------------------------------------------------------------------------
                                 ORCA GUESS
                   Start orbitals & Density for SCF / CASSCF
-------------------------------------------------------------------------------

------------
SCF SETTINGS
------------
Hamiltonian:
 Density Functional     Method          .... DFT(GTOs)
 Exchange Functional    Exchange        .... WB97X-V
 Correlation Functional Correlation     .... WB97X-V
 Gradients option       PostSCFGGA      .... off
 Hybrid DFT is turned on
   Fraction HF Exchange ScalHFX         ....  0.167000
   Scaling of DF-GGA-X  ScalDFX         ....  0.000000
   Scaling of DF-GGA-C  ScalDFC         ....  1.000000
   Scaling of DF-LDA-C  ScalLDAC        ....  1.000000
   Perturbative correction              ....  0.000000
 Long-range corrected/Screened/Range-Separated Hybrid DFT is turned on
   Amount of maximum screened exact exchange              ....  0.833000
   Range separation parameter mu (erf(mu*r12)/r12)        ....  0.300000
   NL short-range parameter             ....  6.000000
   NL long-range parameter              ....  0.010000
 RI-approximation to the Coulomb term is turned on
   Number of AuxJ basis functions       .... 791
   RIJ-COSX (HFX calculated with COS-X)).... on


General Settings:
 Integral files         IntName         .... ./output/_z_methyl_isoeugenol/_z_methyl_isoeugenol
 Hartree-Fock type      HFTyp           .... RHF
 Total Charge           Charge          ....    0
 Multiplicity           Mult            ....    1
 Number of Electrons    NEL             ....   70
 Basis Dimension        Dim             ....  239
 Nuclear Repulsion      ENuc            ....    394.0581886520 Eh

Convergence Acceleration:
 AO-DIIS                CNVDIIS         .... on
   Start iteration      DIISMaxIt       ....    12
   Startup error        DIISStart       ....  0.200000
   # of expansion vecs  DIISMaxEq       ....     5
   Bias factor          DIISBfac        ....   1.050
   Max. coefficient     DIISMaxC        ....  10.000
 MO-DIIS                CNVKDIIS        .... off
 Trust-Rad. Augm. Hess. CNVTRAH         .... auto
   Auto Start mean grad. ratio tolernc. ....  1.125000
   Auto Start start iteration           ....    50
   Auto Start num. interpolation iter.  ....    10
   Max. Number of Micro iterations      ....    24
   Max. Number of Macro iterations      .... Maxiter - #DIIS iter
   Number of Davidson start vectors     ....     2
   Converg. threshold    (grad. norm)   ....   1.000e-05
   Grad. Scal. Fac. for Micro threshold ....   0.100
   Minimum threshold for Micro iter.    ....   1.000e-02
   NR start threshold (gradient norm)   ....   1.000e-04
   Initial trust radius                 ....   0.400
   Minimum AH scaling param. (alpha)    ....   1.000
   Maximum AH scaling param. (alpha)    .... 1000.000
   Quad. conv. algorithm                .... NR
   White noise on init. David. guess    .... on
   Maximum white noise                  ....   0.010
   Pseudo random numbers                .... off
   Inactive MOs                         .... canonical
   Orbital update algorithm             .... Taylor
   Preconditioner                       .... Diag
   Full preconditioner red. dimension   ....   250
 SOSCF                  CNVSOSCF        .... on
   Start iteration      SOSCFMaxIt      ....   150
   Startup grad/error   SOSCFStart      ....  0.003300
   Hessian update       SOSCFHessUp     .... L-BFGS
 Level Shifting         CNVShift        .... on
   Level shift para.    LevelShift      ....    0.2500
   Turn off err/grad.   ShiftErr        ....    0.0010
 Zerner damping         CNVZerner       .... off
 Static damping         CNVDamp         .... on
   Fraction old density DampFac         ....    0.7000
   Max. Damping (<1)    DampMax         ....    0.9800
   Min. Damping (>=0)   DampMin         ....    0.0000
   Turn off err/grad.   DampErr         ....    0.1000

SCF Procedure:
 Maximum # iterations   MaxIter         ....   125
 SCF integral mode      SCFMode         .... Direct
   Integral package                     .... SHARK and LIBINT hybrid scheme
 Reset frequency        DirectResetFreq ....    20
 Integral Threshold     Thresh          ....  2.500e-11 Eh
 Primitive CutOff       TCut            ....  2.500e-12 Eh

Convergence Tolerance:
 Convergence Check Mode ConvCheckMode   .... Total+1el-Energy
 Convergence forced     ConvForced      .... 0
 Energy Change          TolE            ....  1.000e-08 Eh
 1-El. energy change                    ....  1.000e-05 Eh
 Orbital Gradient       TolG            ....  1.000e-05
 Orbital Rotation angle TolX            ....  1.000e-05
 DIIS Error             TolErr          ....  5.000e-07

------------------------------
INITIAL GUESS: MODEL POTENTIAL
------------------------------
Loading Hartree-Fock densities                     ... done
Atomic calculation to generate a density for atom 0 (C  with ECP)
  Multiplicity assumed   :    1
  Atomic configuration   : 1s2 2s2 2p2 
  Number of open shells  : 1
  Command: /home/aspe232/Project/Software/ORCA/6_0_1/build/orca ./output/_z_methyl_isoeugenol/_z_methyl_isoeugenol_atom6.inp "" > ./output/_z_methyl_isoeugenol/_z_methyl_isoeugenol_atom6.out
Returned from the atomic calculation with res=0
Atomic calculation to generate a density for atom 9 (O  with ECP)
  Multiplicity assumed   :    3
  Atomic configuration   : 1s2 2s2 2p4 
  Number of open shells  : 1
  Command: /home/aspe232/Project/Software/ORCA/6_0_1/build/orca ./output/_z_methyl_isoeugenol/_z_methyl_isoeugenol_atom8.inp "" > ./output/_z_methyl_isoeugenol/_z_methyl_isoeugenol_atom8.out
Returned from the atomic calculation with res=0
Calculating cut-offs                               ... done
Initializing the effective Hamiltonian             ... done
Setting up the integral package (SHARK)            ... done
Starting the Coulomb interaction                   ... done (   0.1 sec)
Making the grid                                    ... done (   0.8 sec)
Mapping shells                                     ... done
Starting the XC term evaluation                    ... done (   0.0 sec)
  promolecular density results
     # of electrons  =     95.990447465
     EX              =    -51.550359367
     EC              =     -3.929602100
     EX+EC           =    -55.479961467
Transforming the Hamiltonian                       ... done (   0.0 sec)
Diagonalizing the Hamiltonian                      ... done (   0.0 sec)
Back transforming the eigenvectors                 ... done (   0.0 sec)
Now organizing SCF variables                       ... done
                      ------------------
                      INITIAL GUESS DONE (   1.9 sec)
                      ------------------
             **** ENERGY FILE WAS UPDATED (./output/_z_methyl_isoeugenol/_z_methyl_isoeugenol.en.tmp) ****
Finished Guess after   2.4 sec
Maximum memory used throughout the entire GUESS-calculation: 22.1 MB


           ************************************************************
           *        Program running with 40 parallel MPI-processes    *
           *              working on a common directory               *
           ************************************************************

-------------------------------------------------------------------------------------------
                                      ORCA LEAN-SCF
                              memory conserving SCF solver
-------------------------------------------------------------------------------------------

----------------------------------------D-I-I-S--------------------------------------------
Iteration    Energy (Eh)           Delta-E    RMSDP     MaxDP     DIISErr   Damp  Time(sec)
-------------------------------------------------------------------------------------------
               ***  Starting incremental Fock matrix formation  ***
    1    -102.7306060412474835     0.00e+00  3.70e-03  7.89e-02  1.72e-01  0.700   4.4
    2    -102.8781575084358906    -1.48e-01  2.76e-03  5.80e-02  1.07e-01  0.700   3.7
                               ***Turning on AO-DIIS***
    3    -102.9597213251171297    -8.16e-02  1.56e-03  3.12e-02  5.79e-02  0.700   3.5
    4    -103.0086186511669553    -4.89e-02  3.40e-03  6.75e-02  3.70e-02  0.000   3.5
    5    -103.1117791043072316    -1.03e-01  2.37e-04  4.37e-03  3.83e-03  0.000   3.8
                              *** Initializing SOSCF ***
---------------------------------------S-O-S-C-F--------------------------------------
Iteration    Energy (Eh)           Delta-E    RMSDP     MaxDP     MaxGrad    Time(sec)
--------------------------------------------------------------------------------------
    6    -103.1120683885126255    -2.89e-04  1.06e-04  2.10e-03  1.93e-03     3.7
               *** Restarting incremental Fock matrix formation ***
    7    -103.1122117924776376    -1.43e-04  7.69e-05  1.41e-03  9.08e-04     4.3
    8    -103.1122353888583802    -2.36e-05  6.30e-05  1.39e-03  2.81e-04     3.8
    9    -103.1122411395383551    -5.75e-06  2.13e-05  3.81e-04  1.67e-04     4.0
   10    -103.1122425278138053    -1.39e-06  3.90e-06  8.93e-05  4.82e-05     4.0
   11    -103.1122425743938607    -4.66e-08  2.56e-06  6.65e-05  2.69e-05     3.6
   12    -103.1122425917687906    -1.74e-08  9.80e-07  1.90e-05  8.05e-06     3.7
   13    -103.1122426025298751    -1.08e-08  3.99e-07  9.92e-06  3.32e-06     3.3
   14    -103.1122426088970201    -6.37e-09  1.30e-07  4.01e-06  7.96e-07     3.4
                 **** Energy Check signals convergence ****

               *****************************************************
               *                     SUCCESS                       *
               *           SCF CONVERGED AFTER  14 CYCLES          *
               *****************************************************

Recomputing exchange energy using gridx3       ... done (    4.045 sec)
Old exchange energy                            :    -13.605795929 Eh
New exchange energy                            :    -13.605783123 Eh
Exchange energy change after final integration :      0.000012805 Eh
Total energy after final integration           :   -103.112229804 Eh
             **** ENERGY FILE WAS UPDATED (./output/_z_methyl_isoeugenol/_z_methyl_isoeugenol.en.tmp) ****

----------------
TOTAL SCF ENERGY
----------------

Total Energy       :       -103.11222980365497 Eh           -2805.82642 eV

Components:
Nuclear Repulsion  :        394.05818865195494 Eh           10722.86845 eV
Electronic Energy  :       -497.17043126085196 Eh          -13528.69522 eV
One Electron Energy:       -939.89898295377702 Eh          -25575.95158 eV
Two Electron Energy:        442.72855169292507 Eh           12047.25636 eV

Virial components:
Potential Energy   :       -183.04640946181277 Eh           -4980.94603 eV
Kinetic Energy     :         79.93417965815780 Eh            2175.11961 eV
Virial Ratio       :          2.28996419610008

DFT components:
N(Alpha)           :       35.000035278044 electrons
N(Beta)            :       35.000035278044 electrons
N(Total)           :       70.000070556087 electrons
E(X)               :      -15.035884658545 Eh       
E(C)               :       -2.671290951224 Eh       
E(XC)              :      -17.707175609769 Eh       

---------------
SCF CONVERGENCE
---------------

  Last Energy change         ...    6.3671e-09  Tolerance :   1.0000e-08
  Last MAX-Density change    ...    4.0118e-06  Tolerance :   1.0000e-07
  Last RMS-Density change    ...    1.3013e-07  Tolerance :   5.0000e-09
  Last DIIS Error            ...    1.9334e-03  Tolerance :   5.0000e-07
  Last Orbital Gradient      ...    7.9629e-07  Tolerance :   1.0000e-05
  Last Orbital Rotation      ...    2.8926e-06  Tolerance :   1.0000e-05


----------------
ORBITAL ENERGIES
----------------

  NO   OCC          E(Eh)            E(eV) 
   0   2.0000      -1.175824       -31.9958 
   1   2.0000      -1.157374       -31.4937 
   2   2.0000      -0.998420       -27.1684 
   3   2.0000      -0.941461       -25.6185 
   4   2.0000      -0.896471       -24.3942 
   5   2.0000      -0.888508       -24.1775 
   6   2.0000      -0.837106       -22.7788 
   7   2.0000      -0.826503       -22.4903 
   8   2.0000      -0.790977       -21.5236 
   9   2.0000      -0.734238       -19.9796 
  10   2.0000      -0.720951       -19.6181 
  11   2.0000      -0.673899       -18.3377 
  12   2.0000      -0.649883       -17.6842 
  13   2.0000      -0.616649       -16.7799 
  14   2.0000      -0.609130       -16.5753 
  15   2.0000      -0.583715       -15.8837 
  16   2.0000      -0.582795       -15.8587 
  17   2.0000      -0.570925       -15.5356 
  18   2.0000      -0.564637       -15.3645 
  19   2.0000      -0.547692       -14.9034 
  20   2.0000      -0.541780       -14.7426 
  21   2.0000      -0.529259       -14.4019 
  22   2.0000      -0.519799       -14.1444 
  23   2.0000      -0.514392       -13.9973 
  24   2.0000      -0.501243       -13.6395 
  25   2.0000      -0.479148       -13.0383 
  26   2.0000      -0.469493       -12.7756 
  27   2.0000      -0.455398       -12.3920 
  28   2.0000      -0.438418       -11.9300 
  29   2.0000      -0.429966       -11.7000 
  30   2.0000      -0.425826       -11.5873 
  31   2.0000      -0.416469       -11.3327 
  32   2.0000      -0.369397       -10.0518 
  33   2.0000      -0.329024        -8.9532 
  34   2.0000      -0.287267        -7.8169 
  35   0.0000       0.046221         1.2577 
  36   0.0000       0.070672         1.9231 
  37   0.0000       0.086891         2.3644 
  38   0.0000       0.090410         2.4602 
  39   0.0000       0.095211         2.5908 
  40   0.0000       0.106935         2.9099 
  41   0.0000       0.115771         3.1503 
  42   0.0000       0.119893         3.2625 
  43   0.0000       0.134121         3.6496 
  44   0.0000       0.144090         3.9209 
  45   0.0000       0.144894         3.9428 
*Only the first 10 virtual orbitals were printed.

                    ********************************
                    * MULLIKEN POPULATION ANALYSIS *
                    ********************************

-----------------------
MULLIKEN ATOMIC CHARGES
-----------------------
   0 C :   -0.117862
   1 C :   -0.021271
   2 C :   -0.013961
   3 C :   -0.076168
   4 C :   -0.008720
   5 C :    0.131367
   6 C :    0.125728
   7 C :   -0.029440
   8 C :   -0.003328
   9 O :   -0.331721
  10 C :    0.070968
  11 O :   -0.331115
  12 C :    0.070869
  13 H :    0.057211
  14 H :    0.057319
  15 H :    0.043261
  16 H :    0.018577
  17 H :    0.017204
  18 H :    0.008215
  19 H :    0.013749
  20 H :    0.014276
  21 H :    0.065171
  22 H :    0.043157
  23 H :    0.043150
  24 H :    0.044220
  25 H :    0.043876
  26 H :    0.065265
Sum of atomic charges:   -0.0000000

--------------------------------
MULLIKEN REDUCED ORBITAL CHARGES
--------------------------------
  0 C s       :     0.962703  s :     0.962703
      pz      :     1.056277  p :     3.080946
      px      :     0.969431
      py      :     1.055238
      dz2     :     0.012454  d :     0.074213
      dxz     :     0.015184
      dyz     :     0.013846
      dx2y2   :     0.013429
      dxy     :     0.019300

  1 C s       :     1.055767  s :     1.055767
      pz      :     0.957995  p :     2.871008
      px      :     0.930196
      py      :     0.982817
      dz2     :     0.005520  d :     0.094497
      dxz     :     0.020801
      dyz     :     0.008361
      dx2y2   :     0.034710
      dxy     :     0.025106

  2 C s       :     1.001284  s :     1.001284
      pz      :     0.983261  p :     2.918036
      px      :     0.943720
      py      :     0.991055
      dz2     :     0.005975  d :     0.094640
      dxz     :     0.021636
      dyz     :     0.008048
      dx2y2   :     0.036003
      dxy     :     0.022978

  3 C s       :     1.026775  s :     1.026775
      pz      :     0.976147  p :     2.926356
      px      :     0.969368
      py      :     0.980841
      dz2     :     0.006678  d :     0.123037
      dxz     :     0.022106
      dyz     :     0.022499
      dx2y2   :     0.036320
      dxy     :     0.035434

  4 C s       :     0.983243  s :     0.983243
      pz      :     1.025291  p :     2.936024
      px      :     0.928352
      py      :     0.982381
      dz2     :     0.005357  d :     0.089453
      dxz     :     0.021855
      dyz     :     0.008305
      dx2y2   :     0.030652
      dxy     :     0.023283

  5 C s       :     1.060943  s :     1.060943
      pz      :     0.963793  p :     2.643989
      px      :     0.865348
      py      :     0.814847
      dz2     :     0.008739  d :     0.163702
      dxz     :     0.032351
      dyz     :     0.031453
      dx2y2   :     0.046841
      dxy     :     0.044317

  6 C s       :     1.052717  s :     1.052717
      pz      :     0.978827  p :     2.658702
      px      :     0.711144
      py      :     0.968731
      dz2     :     0.008191  d :     0.162853
      dxz     :     0.041919
      dyz     :     0.021193
      dx2y2   :     0.046140
      dxy     :     0.045410

  7 C s       :     0.988956  s :     0.988956
      pz      :     1.010753  p :     2.949057
      px      :     0.972380
      py      :     0.965924
      dz2     :     0.005265  d :     0.091426
      dxz     :     0.022548
      dyz     :     0.009229
      dx2y2   :     0.024750
      dxy     :     0.029635

  8 C s       :     0.991641  s :     0.991641
      pz      :     0.986461  p :     2.917791
      px      :     0.961891
      py      :     0.969440
      dz2     :     0.005157  d :     0.093895
      dxz     :     0.017563
      dyz     :     0.012604
      dx2y2   :     0.024162
      dxy     :     0.034409

  9 O s       :     1.710897  s :     1.710897
      pz      :     1.815188  p :     4.582795
      px      :     1.300335
      py      :     1.467272
      dz2     :     0.004779  d :     0.038028
      dxz     :     0.006464
      dyz     :     0.004230
      dx2y2   :     0.015645
      dxy     :     0.006910

 10 C s       :     0.984107  s :     0.984107
      pz      :     1.045531  p :     2.828483
      px      :     1.016574
      py      :     0.766378
      dz2     :     0.017118  d :     0.116442
      dxz     :     0.006811
      dyz     :     0.040125
      dx2y2   :     0.032937
      dxy     :     0.019451

 11 O s       :     1.710914  s :     1.710914
      pz      :     1.807732  p :     4.582206
      px      :     1.581285
      py      :     1.193189
      dz2     :     0.004871  d :     0.037995
      dxz     :     0.004228
      dyz     :     0.006410
      dx2y2   :     0.007994
      dxy     :     0.014492

 12 C s       :     0.984331  s :     0.984331
      pz      :     1.044225  p :     2.828440
      px      :     1.066854
      py      :     0.717361
      dz2     :     0.015499  d :     0.116360
      dxz     :     0.019790
      dyz     :     0.029297
      dx2y2   :     0.019986
      dxy     :     0.031789

 13 H s       :     0.898845  s :     0.898845
      pz      :     0.016708  p :     0.043944
      px      :     0.010498
      py      :     0.016738

 14 H s       :     0.898822  s :     0.898822
      pz      :     0.021011  p :     0.043860
      px      :     0.011159
      py      :     0.011690

 15 H s       :     0.912992  s :     0.912992
      pz      :     0.010701  p :     0.043748
      px      :     0.015049
      py      :     0.017998

 16 H s       :     0.931138  s :     0.931138
      pz      :     0.014466  p :     0.050285
      px      :     0.011811
      py      :     0.024008

 17 H s       :     0.933583  s :     0.933583
      pz      :     0.014483  p :     0.049213
      px      :     0.010751
      py      :     0.023979

 18 H s       :     0.938426  s :     0.938426
      pz      :     0.016495  p :     0.053359
      px      :     0.012268
      py      :     0.024596

 19 H s       :     0.933774  s :     0.933774
      pz      :     0.016060  p :     0.052477
      px      :     0.011965
      py      :     0.024452

 20 H s       :     0.933846  s :     0.933846
      pz      :     0.015807  p :     0.051878
      px      :     0.016882
      py      :     0.019189

 21 H s       :     0.894458  s :     0.894458
      pz      :     0.010819  p :     0.040371
      px      :     0.023913
      py      :     0.005638

 22 H s       :     0.916078  s :     0.916078
      pz      :     0.021847  p :     0.040764
      px      :     0.009723
      py      :     0.009195

 23 H s       :     0.916103  s :     0.916103
      pz      :     0.018055  p :     0.040747
      px      :     0.009970
      py      :     0.012721

 24 H s       :     0.915001  s :     0.915001
      pz      :     0.020481  p :     0.040778
      px      :     0.014428
      py      :     0.005870

 25 H s       :     0.915352  s :     0.915352
      pz      :     0.019236  p :     0.040772
      px      :     0.013937
      py      :     0.007599

 26 H s       :     0.894361  s :     0.894361
      pz      :     0.010914  p :     0.040374
      px      :     0.019950
      py      :     0.009510



                     *******************************
                     * LOEWDIN POPULATION ANALYSIS *
                     *******************************

----------------------
LOEWDIN ATOMIC CHARGES
----------------------
   0 C :   -0.126496
   1 C :   -0.045118
   2 C :   -0.047503
   3 C :   -0.053283
   4 C :   -0.042459
   5 C :   -0.002228
   6 C :   -0.006587
   7 C :   -0.050184
   8 C :   -0.043395
   9 O :   -0.068258
  10 C :   -0.060725
  11 O :   -0.067257
  12 C :   -0.060388
  13 H :    0.054712
  14 H :    0.054475
  15 H :    0.051489
  16 H :    0.035412
  17 H :    0.044358
  18 H :    0.040767
  19 H :    0.042563
  20 H :    0.041331
  21 H :    0.064786
  22 H :    0.044632
  23 H :    0.044630
  24 H :    0.045041
  25 H :    0.044763
  26 H :    0.064925

-------------------------------
LOEWDIN REDUCED ORBITAL CHARGES
-------------------------------
  0 C s       :     0.778202  s :     0.778202
      pz      :     1.067456  p :     3.109460
      px      :     0.983217
      py      :     1.058787
      dz2     :     0.040179  d :     0.238834
      dxz     :     0.045511
      dyz     :     0.046292
      dx2y2   :     0.041073
      dxy     :     0.065778

  1 C s       :     0.810383  s :     0.810383
      pz      :     0.881040  p :     2.928580
      px      :     0.995145
      py      :     1.052395
      dz2     :     0.019841  d :     0.306155
      dxz     :     0.062113
      dyz     :     0.021399
      dx2y2   :     0.118971
      dxy     :     0.083831

  2 C s       :     0.802355  s :     0.802355
      pz      :     0.906702  p :     2.944248
      px      :     0.991074
      py      :     1.046472
      dz2     :     0.021727  d :     0.300900
      dxz     :     0.058565
      dyz     :     0.019849
      dx2y2   :     0.121370
      dxy     :     0.079389

  3 C s       :     0.780413  s :     0.780413
      pz      :     0.894931  p :     2.892709
      px      :     0.977893
      py      :     1.019885
      dz2     :     0.025869  d :     0.380161
      dxz     :     0.058280
      dyz     :     0.061970
      dx2y2   :     0.119121
      dxy     :     0.114922

  4 C s       :     0.795018  s :     0.795018
      pz      :     0.935025  p :     2.960122
      px      :     0.994899
      py      :     1.030198
      dz2     :     0.021775  d :     0.287320
      dxz     :     0.057599
      dyz     :     0.020074
      dx2y2   :     0.104431
      dxy     :     0.083441

  5 C s       :     0.773294  s :     0.773294
      pz      :     0.909680  p :     2.749334
      px      :     0.951274
      py      :     0.888380
      dz2     :     0.035634  d :     0.479600
      dxz     :     0.083370
      dyz     :     0.078929
      dx2y2   :     0.136480
      dxy     :     0.145187

  6 C s       :     0.772155  s :     0.772155
      pz      :     0.921100  p :     2.756291
      px      :     0.813594
      py      :     1.021597
      dz2     :     0.034933  d :     0.478141
      dxz     :     0.102887
      dyz     :     0.056907
      dx2y2   :     0.151109
      dxy     :     0.132305

  7 C s       :     0.797217  s :     0.797217
      pz      :     0.923772  p :     2.959977
      px      :     1.015836
      py      :     1.020369
      dz2     :     0.021084  d :     0.292990
      dxz     :     0.061189
      dyz     :     0.021352
      dx2y2   :     0.089346
      dxy     :     0.100019

  8 C s       :     0.794610  s :     0.794610
      pz      :     0.912597  p :     2.947919
      px      :     1.016482
      py      :     1.018840
      dz2     :     0.020873  d :     0.300866
      dxz     :     0.046683
      dyz     :     0.033453
      dx2y2   :     0.079428
      dxy     :     0.120428

  9 O s       :     1.393470  s :     1.393470
      pz      :     1.732430  p :     4.573390
      px      :     1.361279
      py      :     1.479682
      dz2     :     0.010216  d :     0.101398
      dxz     :     0.016566
      dyz     :     0.011904
      dx2y2   :     0.037457
      dxy     :     0.025254

 10 C s       :     0.784798  s :     0.784798
      pz      :     1.079686  p :     2.926903
      px      :     1.020894
      py      :     0.826322
      dz2     :     0.054929  d :     0.349024
      dxz     :     0.017419
      dyz     :     0.116330
      dx2y2   :     0.106117
      dxy     :     0.054230

 11 O s       :     1.393630  s :     1.393630
      pz      :     1.726027  p :     4.572400
      px      :     1.583698
      py      :     1.262675
      dz2     :     0.010381  d :     0.101227
      dxz     :     0.008084
      dyz     :     0.020504
      dx2y2   :     0.025966
      dxy     :     0.036292

 12 C s       :     0.784814  s :     0.784814
      pz      :     1.078288  p :     2.926758
      px      :     1.077163
      py      :     0.771308
      dz2     :     0.049714  d :     0.348815
      dxz     :     0.061445
      dyz     :     0.079116
      dx2y2   :     0.058595
      dxy     :     0.099944

 13 H s       :     0.798814  s :     0.798814
      pz      :     0.052621  p :     0.146474
      px      :     0.039878
      py      :     0.053975

 14 H s       :     0.798880  s :     0.798880
      pz      :     0.061044  p :     0.146646
      px      :     0.041238
      py      :     0.044363

 15 H s       :     0.803909  s :     0.803909
      pz      :     0.041961  p :     0.144602
      px      :     0.047232
      py      :     0.055409

 16 H s       :     0.810075  s :     0.810075
      pz      :     0.045304  p :     0.154513
      px      :     0.040103
      py      :     0.069106

 17 H s       :     0.807167  s :     0.807167
      pz      :     0.044236  p :     0.148475
      px      :     0.035977
      py      :     0.068262

 18 H s       :     0.803303  s :     0.803303
      pz      :     0.049928  p :     0.155930
      px      :     0.038734
      py      :     0.067268

 19 H s       :     0.802318  s :     0.802318
      pz      :     0.048795  p :     0.155119
      px      :     0.040215
      py      :     0.066109

 20 H s       :     0.805014  s :     0.805014
      pz      :     0.047240  p :     0.153656
      px      :     0.050827
      py      :     0.055588

 21 H s       :     0.802112  s :     0.802112
      pz      :     0.040302  p :     0.133102
      px      :     0.066546
      py      :     0.026254

 22 H s       :     0.816527  s :     0.816527
      pz      :     0.064833  p :     0.138840
      px      :     0.038593
      py      :     0.035415

 23 H s       :     0.816543  s :     0.816543
      pz      :     0.055787  p :     0.138827
      px      :     0.039112
      py      :     0.043929

 24 H s       :     0.816136  s :     0.816136
      pz      :     0.061733  p :     0.138823
      px      :     0.050002
      py      :     0.027088

 25 H s       :     0.816418  s :     0.816418
      pz      :     0.058368  p :     0.138819
      px      :     0.048880
      py      :     0.031571

 26 H s       :     0.801973  s :     0.801973
      pz      :     0.040463  p :     0.133103
      px      :     0.059802
      py      :     0.032837



                      *****************************
                      * MAYER POPULATION ANALYSIS *
                      *****************************

  NA   - Mulliken gross atomic population
  ZA   - Total nuclear charge
  QA   - Mulliken gross atomic charge
  VA   - Mayer's total valence
  BVA  - Mayer's bonded valence
  FA   - Mayer's free valence

  ATOM       NA         ZA         QA         VA         BVA        FA
  0 C      4.1179     4.0000    -0.1179     3.9894     3.9894    -0.0000
  1 C      4.0213     4.0000    -0.0213     3.9931     3.9931     0.0000
  2 C      4.0140     4.0000    -0.0140     4.0325     4.0325    -0.0000
  3 C      4.0762     4.0000    -0.0762     4.2156     4.2156     0.0000
  4 C      4.0087     4.0000    -0.0087     4.0144     4.0144     0.0000
  5 C      3.8686     4.0000     0.1314     4.0913     4.0913    -0.0000
  6 C      3.8743     4.0000     0.1257     4.0835     4.0835    -0.0000
  7 C      4.0294     4.0000    -0.0294     4.0470     4.0470    -0.0000
  8 C      4.0033     4.0000    -0.0033     4.0990     4.0990    -0.0000
  9 O      6.3317     6.0000    -0.3317     2.0228     2.0228     0.0000
 10 C      3.9290     4.0000     0.0710     3.9517     3.9517     0.0000
 11 O      6.3311     6.0000    -0.3311     2.0231     2.0231     0.0000
 12 C      3.9291     4.0000     0.0709     3.9510     3.9510     0.0000
 13 H      0.9428     1.0000     0.0572     1.0234     1.0234    -0.0000
 14 H      0.9427     1.0000     0.0573     1.0228     1.0228    -0.0000
 15 H      0.9567     1.0000     0.0433     1.0278     1.0278    -0.0000
 16 H      0.9814     1.0000     0.0186     1.0389     1.0389     0.0000
 17 H      0.9828     1.0000     0.0172     1.0396     1.0396    -0.0000
 18 H      0.9918     1.0000     0.0082     1.0486     1.0486     0.0000
 19 H      0.9863     1.0000     0.0137     1.0461     1.0461    -0.0000
 20 H      0.9857     1.0000     0.0143     1.0395     1.0395    -0.0000
 21 H      0.9348     1.0000     0.0652     1.0262     1.0262     0.0000
 22 H      0.9568     1.0000     0.0432     1.0164     1.0164     0.0000
 23 H      0.9568     1.0000     0.0432     1.0165     1.0165     0.0000
 24 H      0.9558     1.0000     0.0442     1.0153     1.0153     0.0000
 25 H      0.9561     1.0000     0.0439     1.0151     1.0151     0.0000
 26 H      0.9347     1.0000     0.0653     1.0261     1.0261     0.0000

  Mayer bond orders larger than 0.100000
B(  0-C ,  1-C ) :   1.0170 B(  0-C , 13-H ) :   0.9848 B(  0-C , 14-H ) :   0.9841 
B(  0-C , 15-H ) :   0.9973 B(  1-C ,  2-C ) :   1.8443 B(  1-C , 16-H ) :   1.0007 
B(  2-C ,  3-C ) :   1.1182 B(  2-C , 17-H ) :   0.9919 B(  3-C ,  4-C ) :   1.4108 
B(  3-C ,  8-C ) :   1.4315 B(  4-C ,  5-C ) :   1.4343 B(  4-C , 18-H ) :   0.9823 
B(  5-C ,  6-C ) :   1.3897 B(  5-C , 11-O ) :   1.0507 B(  6-C ,  7-C ) :   1.4325 
B(  6-C ,  9-O ) :   1.0505 B(  7-C ,  8-C ) :   1.4504 B(  7-C , 19-H ) :   0.9828 
B(  8-C , 20-H ) :   0.9868 B(  9-O , 10-C ) :   0.9351 B( 10-C , 21-H ) :   1.0022 
B( 10-C , 22-H ) :   0.9908 B( 10-C , 23-H ) :   0.9907 B( 11-O , 12-C ) :   0.9349 
B( 12-C , 24-H ) :   0.9906 B( 12-C , 25-H ) :   0.9907 B( 12-C , 26-H ) :   1.0024 


-------
TIMINGS
-------

Total SCF time: 0 days 0 hours 1 min 1 sec 

Total time                  ....      61.606 sec
Sum of individual times     ....      59.496 sec  ( 96.6%)

SCF preparation             ....       2.600 sec  (  4.2%)
Fock matrix formation       ....      55.456 sec  ( 90.0%)
  Startup                   ....       0.336 sec  (  0.6% of F)
  Split-RI-J                ....       1.921 sec  (  3.5% of F)
  Chain of spheres X        ....      26.032 sec  ( 46.9% of F)
  XC integration            ....      26.430 sec  ( 47.7% of F)
    XC Preparation          ....       0.000 sec  (  0.0% of XC)
    Basis function eval.    ....       0.653 sec  (  2.5% of XC)
    Density eval.           ....       0.289 sec  (  1.1% of XC)
    XC-Functional eval.     ....       0.216 sec  (  0.8% of XC)
    XC-Potential eval.      ....       0.273 sec  (  1.0% of XC)
Diagonalization             ....       0.000 sec  (  0.0%)
Density matrix formation    ....       0.242 sec  (  0.4%)
Total Energy calculation    ....       0.286 sec  (  0.5%)
Population analysis         ....       0.165 sec  (  0.3%)
Orbital Transformation      ....       0.062 sec  (  0.1%)
Orbital Orthonormalization  ....       0.000 sec  (  0.0%)
DIIS solution               ....       0.409 sec  (  0.7%)
SOSCF solution              ....       0.277 sec  (  0.4%)
Finished LeanSCF after  61.7 sec

Maximum memory used throughout the entire LEANSCF-calculation: 43.0 MB


           ************************************************************
           *        Program running with 40 parallel MPI-processes    *
           *              working on a common directory               *
           ************************************************************

------------------------------------------------------------------------------
                         ORCA PROPERTY INTEGRAL CALCULATIONS
------------------------------------------------------------------------------

GBWName                                   ... ./output/_z_methyl_isoeugenol/_z_methyl_isoeugenol.gbw
Number of atoms                           ...     27
Number of basis functions                 ...    239
Max core memory                           ...   1024 MB

Dipole integrals                          ... YES
Quadrupole integrals                      ...  NO
Linear momentum integrals                 ...  NO
Angular momentum integrals                ...  NO
Higher moments length integrals           ...  NO
Higher moments velocity integrals         ...  NO
Kinetic energy integrals                  ...  NO
[...]
 25:    625.83   0.000532    2.69  0.000265  ( 0.006724 -0.011843 -0.008931)
 26:    646.66   0.001585    8.01  0.000765  ( 0.018686 -0.001877 -0.020302)
 27:    761.79   0.000042    0.21  0.000017  (-0.001523  0.000741 -0.003803)
 28:    790.76   0.000918    4.64  0.000362  ( 0.008909  0.003635 -0.016428)
 29:    804.35   0.005448   27.53  0.002114  ( 0.044258  0.008244 -0.009327)
 30:    822.88   0.005539   27.99  0.002101  (-0.008592 -0.009046 -0.044102)
 31:    850.48   0.001473    7.44  0.000540  ( 0.009382  0.008064  0.019679)
 32:    899.59   0.004630   23.40  0.001606  (-0.012320 -0.011609 -0.036325)
 33:    947.98   0.004249   21.47  0.001399  (-0.030536 -0.020079  0.007949)
 34:    964.12   0.000535    2.71  0.000173  (-0.007886 -0.007479 -0.007427)
 35:   1009.34   0.005816   29.39  0.001798  ( 0.002940  0.006480 -0.041802)
 36:   1017.53   0.003517   17.77  0.001079  (-0.002472 -0.005483  0.032287)
 37:   1091.93   0.000118    0.60  0.000034  (-0.004509  0.002938 -0.002198)
 38:   1103.48   0.010088   50.98  0.002853  ( 0.012183 -0.051424  0.007749)
 39:   1134.10   0.000324    1.64  0.000089  (-0.009233 -0.001840  0.000805)
 40:   1151.49   0.000505    2.55  0.000137  (-0.011441  0.002162 -0.001142)
 41:   1195.00   0.009332   47.16  0.002437  (-0.012795  0.046949 -0.008307)
 42:   1205.19   0.000103    0.52  0.000027  (-0.000032 -0.001290 -0.004999)
 43:   1205.25   0.000222    1.12  0.000057  ( 0.000289  0.001378  0.007447)
 44:   1225.98   0.013937   70.43  0.003547  (-0.031916  0.049151 -0.010631)
 45:   1235.50   0.001154    5.83  0.000292  (-0.007134 -0.015243  0.002886)
 46:   1247.84   0.000872    4.41  0.000218  (-0.002950  0.013681 -0.004709)
 47:   1314.60   0.032081  162.12  0.007615  ( 0.034145  0.079002 -0.014432)
 48:   1322.07   0.049802  251.68  0.011755  (-0.086479  0.064714 -0.009417)
 49:   1342.02   0.006820   34.46  0.001586  ( 0.038200 -0.011092  0.001883)
 50:   1357.66   0.005032   25.43  0.001157  (-0.015622 -0.029531  0.006362)
 51:   1366.30   0.006473   32.71  0.001478  ( 0.031415  0.021983 -0.002887)
 52:   1404.09   0.025628  129.51  0.005696  (-0.073706 -0.015541  0.004674)
 53:   1446.36   0.000931    4.71  0.000201  (-0.000686 -0.014073 -0.001566)
 54:   1485.13   0.006625   33.48  0.001392  ( 0.017451  0.032575 -0.005134)
 55:   1508.46   0.002717   13.73  0.000562  ( 0.022447  0.007463 -0.001611)
 56:   1509.83   0.002048   10.35  0.000423  (-0.000073 -0.004931  0.019976)
 57:   1516.68   0.002741   13.85  0.000564  (-0.002547 -0.023554 -0.001661)
 58:   1526.72   0.000731    3.69  0.000149  ( 0.002853  0.009736  0.006812)
 59:   1528.72   0.001243    6.28  0.000254  (-0.001280  0.003280  0.015536)
 60:   1529.22   0.003133   15.83  0.000639  (-0.000440 -0.004385 -0.024897)
 61:   1537.01   0.008453   42.72  0.001716  ( 0.039809 -0.011200  0.002483)
 62:   1537.94   0.009932   50.19  0.002015  (-0.028372 -0.033938  0.007656)
 63:   1613.15   0.063208  319.43  0.012228  (-0.108039 -0.022747  0.006138)
 64:   1696.36   0.007975   40.30  0.001467  ( 0.008545  0.036639 -0.007191)
 65:   1721.22   0.007772   39.28  0.001409  ( 0.016617 -0.033273  0.005097)
 66:   1792.86   0.000284    1.43  0.000049  (-0.006959 -0.000360  0.000924)
 67:   3085.02   0.020397  103.08  0.002063  ( 0.018893 -0.040735  0.006850)
 68:   3086.03   0.002558   12.93  0.000259  ( 0.013685  0.008337 -0.001389)
 69:   3099.73   0.008521   43.06  0.000858  (-0.029252  0.000245 -0.001438)
 70:   3170.35   0.003782   19.11  0.000372  (-0.000801 -0.003447 -0.018968)
 71:   3170.78   0.006818   34.45  0.000671  (-0.000852 -0.004497 -0.025496)
 72:   3177.77   0.001573    7.95  0.000155  (-0.000222  0.003311 -0.011979)
 73:   3201.36   0.000495    2.50  0.000048  ( 0.003524  0.005833  0.001361)
 74:   3205.19   0.003294   16.65  0.000321  ( 0.012347 -0.012593 -0.003111)
 75:   3220.62   0.003686   18.63  0.000357  ( 0.006887 -0.016663 -0.005666)
 76:   3226.96   0.001512    7.64  0.000146  ( 0.008994  0.007911 -0.001660)
 77:   3227.28   0.002223   11.24  0.000215  (-0.014559 -0.001563  0.000766)
 78:   3265.91   0.001042    5.27  0.000100  ( 0.009196  0.003314 -0.002010)
 79:   3277.34   0.000996    5.03  0.000095  (-0.000498  0.009539 -0.001905)
 80:   3289.90   0.000932    4.71  0.000088  (-0.005671  0.007279 -0.001795)

* The epsilon (eps) is given for a Dirac delta lineshape.
** The dipole moment derivative (T) already includes vibrational overlap.

The first frequency considered to be a vibration is 6
The total number of vibrations considered is 75


--------------------------
THERMOCHEMISTRY AT 298.15K
--------------------------

Temperature         ...   298.15 K
Pressure            ...     1.00 atm
Total Mass          ...   178.23 AMU
Quasi RRHO          ...     True
Cut-Off Frequency   ...     1.00 cm^-1

Throughout the following assumptions are being made:
  (1) The electronic state is orbitally nondegenerate
  (2) There are no thermally accessible electronically excited states
  (3) Hindered rotations indicated by low frequency modes are not
      treated as such but are treated as vibrations and this may
      cause some error
  (4) All equations used are the standard statistical mechanics
      equations for an ideal gas
  (5) All vibrations are strictly harmonic

freq.      49.98  E(vib)   ...       0.52 
freq.      75.23  E(vib)   ...       0.49 
freq.      82.92  E(vib)   ...       0.48 
freq.     107.24  E(vib)   ...       0.45 
freq.     122.28  E(vib)   ...       0.43 
freq.     177.59  E(vib)   ...       0.37 
freq.     194.84  E(vib)   ...       0.36 
freq.     199.14  E(vib)   ...       0.35 
freq.     238.95  E(vib)   ...       0.32 
freq.     266.42  E(vib)   ...       0.29 
freq.     270.54  E(vib)   ...       0.29 
freq.     303.15  E(vib)   ...       0.26 
freq.     324.59  E(vib)   ...       0.24 
freq.     393.77  E(vib)   ...       0.20 
freq.     409.49  E(vib)   ...       0.19 
freq.     413.22  E(vib)   ...       0.19 
freq.     481.65  E(vib)   ...       0.15 
freq.     517.75  E(vib)   ...       0.13 
freq.     615.26  E(vib)   ...       0.10 
freq.     625.83  E(vib)   ...       0.09 
freq.     646.66  E(vib)   ...       0.09 
freq.     761.79  E(vib)   ...       0.06 
freq.     790.76  E(vib)   ...       0.05 
freq.     804.35  E(vib)   ...       0.05 
freq.     822.88  E(vib)   ...       0.05 
freq.     850.48  E(vib)   ...       0.04 
freq.     899.59  E(vib)   ...       0.03 
freq.     947.98  E(vib)   ...       0.03 
freq.     964.12  E(vib)   ...       0.03 
freq.    1009.34  E(vib)   ...       0.02 
freq.    1017.53  E(vib)   ...       0.02 
freq.    1091.93  E(vib)   ...       0.02 
freq.    1103.48  E(vib)   ...       0.02 
freq.    1134.10  E(vib)   ...       0.01 
freq.    1151.49  E(vib)   ...       0.01 
freq.    1195.00  E(vib)   ...       0.01 
freq.    1205.19  E(vib)   ...       0.01 
freq.    1205.25  E(vib)   ...       0.01 
freq.    1225.98  E(vib)   ...       0.01 
freq.    1235.50  E(vib)   ...       0.01 
freq.    1247.84  E(vib)   ...       0.01 
freq.    1314.60  E(vib)   ...       0.01 
freq.    1322.07  E(vib)   ...       0.01 
freq.    1342.02  E(vib)   ...       0.01 
freq.    1357.66  E(vib)   ...       0.01 
freq.    1366.30  E(vib)   ...       0.01 
freq.    1404.09  E(vib)   ...       0.00 
freq.    1446.36  E(vib)   ...       0.00 
freq.    1485.13  E(vib)   ...       0.00 
freq.    1508.46  E(vib)   ...       0.00 
freq.    1509.83  E(vib)   ...       0.00 
freq.    1516.68  E(vib)   ...       0.00 
freq.    1526.72  E(vib)   ...       0.00 
freq.    1528.72  E(vib)   ...       0.00 
freq.    1529.22  E(vib)   ...       0.00 
freq.    1537.01  E(vib)   ...       0.00 
freq.    1537.94  E(vib)   ...       0.00 
freq.    1613.15  E(vib)   ...       0.00 
freq.    1696.36  E(vib)   ...       0.00 
freq.    1721.22  E(vib)   ...       0.00 
freq.    1792.86  E(vib)   ...       0.00 
freq.    3085.02  E(vib)   ...       0.00 
freq.    3086.03  E(vib)   ...       0.00 
freq.    3099.73  E(vib)   ...       0.00 
freq.    3170.35  E(vib)   ...       0.00 
freq.    3170.78  E(vib)   ...       0.00 
freq.    3177.77  E(vib)   ...       0.00 
freq.    3201.36  E(vib)   ...       0.00 
freq.    3205.19  E(vib)   ...       0.00 
freq.    3220.62  E(vib)   ...       0.00 
freq.    3226.96  E(vib)   ...       0.00 
freq.    3227.28  E(vib)   ...       0.00 
freq.    3265.91  E(vib)   ...       0.00 
freq.    3277.34  E(vib)   ...       0.00 
freq.    3289.90  E(vib)   ...       0.00 

------------
INNER ENERGY
------------

The inner energy is: U= E(el) + E(ZPE) + E(vib) + E(rot) + E(trans)
    E(el)   - is the total energy from the electronic structure calculation
              = E(kin-el) + E(nuc-el) + E(el-el) + E(nuc-nuc)
    E(ZPE)  - the the zero temperature vibrational energy from the frequency calculation
    E(vib)  - the the finite temperature correction to E(ZPE) due to population
              of excited vibrational states
    E(rot)  - is the rotational thermal energy
    E(trans)- is the translational thermal energy

Summary of contributions to the inner energy U:
Electronic energy                ...   -103.16492972 Eh
Zero point energy                ...      0.23224027 Eh     145.73 kcal/mol
Thermal vibrational correction   ...      0.01044758 Eh       6.56 kcal/mol
Thermal rotational correction    ...      0.00141627 Eh       0.89 kcal/mol
Thermal translational correction ...      0.00141627 Eh       0.89 kcal/mol
-----------------------------------------------------------------------
Total thermal energy                   -102.91940932 Eh


Summary of corrections to the electronic energy:
(perhaps to be used in another calculation)
Total thermal correction                  0.01328012 Eh       8.33 kcal/mol
Non-thermal (ZPE) correction              0.23224027 Eh     145.73 kcal/mol
-----------------------------------------------------------------------
Total correction                          0.24552040 Eh     154.07 kcal/mol


--------
ENTHALPY
--------

The enthalpy is H = U + kB*T
                kB is Boltzmann's constant
Total thermal energy              ...   -102.91940932 Eh 
Thermal Enthalpy correction       ...      0.00094421 Eh       0.59 kcal/mol
-----------------------------------------------------------------------
Total Enthalpy                    ...   -102.91846511 Eh


Note: Only C1 symmetry has been detected, increase convergence thresholds 
      if your molecule has a higher symmetry. Symmetry factor of 1.0 is   
      used for the rotational entropy correction. 
 

Note: Rotational entropy computed according to Herzberg 
Infrared and Raman Spectra, Chapter V,1, Van Nostrand Reinhold, 1945 
Point Group:  C1, Symmetry Number:   1  
Rotational constants in cm-1:     0.044625     0.014527     0.011070 

Vibrational entropy computed according to the QRRHO of S. Grimme
Chem.Eur.J. 2012 18 9955 using a reference frequency of 100.0 cm-1


-------
ENTROPY
-------

The entropy contributions are T*S = T*(S(el)+S(vib)+S(rot)+S(trans))
     S(el)   - electronic entropy
     S(vib)  - vibrational entropy
     S(rot)  - rotational entropy
     S(trans)- translational entropy
The entropies will be listed as multiplied by the temperature to get
units of energy

Electronic entropy                ...      0.00000000 Eh      0.00 kcal/mol
Vibrational entropy               ...      0.01821922 Eh     11.43 kcal/mol
Rotational entropy                ...      0.01510261 Eh      9.48 kcal/mol
Translational entropy             ...      0.01968972 Eh     12.36 kcal/mol
-----------------------------------------------------------------------
Final entropy term                ...      0.05301155 Eh     33.27 kcal/mol

In case the symmetry of your molecule has not been determined correctly
or in case you have a reason to use a different symmetry number we print 
out the resulting rotational entropy values for sn=1,12:

 non-linear molecules -----------------------------------
|  sn= 1 | S(rot)=       0.01510261 Eh      9.48 kcal/mol|
|  sn= 2 | S(rot)=       0.01444816 Eh      9.07 kcal/mol|
|  sn= 3 | S(rot)=       0.01406532 Eh      8.83 kcal/mol|
|  sn= 4 | S(rot)=       0.01379370 Eh      8.66 kcal/mol|
|  sn= 5 | S(rot)=       0.01358301 Eh      8.52 kcal/mol|
|  sn= 6 | S(rot)=       0.01341087 Eh      8.42 kcal/mol|
|  sn= 7 | S(rot)=       0.01326532 Eh      8.32 kcal/mol|
|  sn= 8 | S(rot)=       0.01313924 Eh      8.24 kcal/mol|
|  sn= 9 | S(rot)=       0.01302803 Eh      8.18 kcal/mol|
|  sn=10 | S(rot)=       0.01292856 Eh      8.11 kcal/mol|
|  sn=11 | S(rot)=       0.01283857 Eh      8.06 kcal/mol|
|  sn=12 | S(rot)=       0.01275641 Eh      8.00 kcal/mol|
 linear molecules ---------------------------------------
|  Dinfh | S(rot)=       0.00957798 Eh      6.01 kcal/mol|
|  Cinfv | S(rot)=       0.01023243 Eh      6.42 kcal/mol|
 --------------------------------------------------------


-------------------
GIBBS FREE ENERGY
-------------------

The Gibbs free energy is G = H - T*S

Total enthalpy                    ...   -102.91846511 Eh 
Total entropy correction          ...     -0.05301155 Eh    -33.27 kcal/mol
-----------------------------------------------------------------------
Final Gibbs free energy         ...   -102.97147667 Eh

For completeness - the Gibbs free energy minus the electronic energy
G-E(el)                           ...      0.19345305 Eh    121.39 kcal/mol


Maximum memory used throughout the entire PROP-calculation: 135.2 MB

--------------------------------
SUGGESTED CITATIONS FOR THIS RUN
--------------------------------

Below you find a list of papers that are relevant to this ORCA run
We neither can nor want to force you to cite these papers, but we appreciate if you do
You receive ORCA, which is the product of decades of hard work by many enthusiastic individuals, for free
The only thing we kindly ask in return is that you cite our papers,
We deeply appreciate it, if you show your appreciation for ORCA by not just citing the generic ORCA reference.

Please note that relegating all ORCA citations to the supporting information does *not* help us.
SI sections are not indexed - citations you put there will not count into any citation statistics
But we need these citations in order to attract the funding resources that allow us to do what we are doing

Therefore, if you are a happy ORCA user, please consider citing a few of the papers listed below in the main body of your paper

In addition to the list printed below, the program has created the file ./output/_z_methyl_isoeugenol/_z_methyl_isoeugenol.bibtex that contains the list in bibtex format
You can import this file easily into all common literature databanks and citation aid programs


List of essential papers. We consider these as the minimum necessary citations

  1. Neese,F.
     Software update: the ORCA program system, version 5.0
     WIRES Comput. Molec. Sci., 2022 12(1)e1606
     doi.org/10.1002/wcms.1606
  2. Mueller,M.; Hansen,A.; Grimme,S.
     wB97X-3c: A composite range-separated hybrid DFT method with a molecule-optimized polarized valence double-zeta basis set
     J. Chem. Phys., 2023 158 014103
     doi.org/10.1063/5.0133026

List of papers to cite with high priority. The work reported in these papers was absolutely
necessary for this run to complete.
Our perspective: the developers of density functionals and basis sets usually get cited in chemistry papers
Good! But without the algorithms to do something with them, the functionals or basis sets would not do anything.
Hence, in our opinion, the algorithm design and method developments papers are equally worthy of getting cited

  1. Neese,F.
     An improvement of the resolution of the identity approximation for the formation of the Coulomb matrix
     J. Comp. Chem., 2003 24(14)1740-1747
     doi.org/10.1002/jcc.10318
  2. Neese,F.; Wennmohs,F.; Hansen,A.; Becker,U.
     Efficient, approximate and parallel Hartree-Fock and hybrid DFT calculations. A 'chain-of-spheres' algorithm for the Hartree-Fock exchange
     Chem. Phys., 2009 356(1-3)98-109
     doi.org/10.1016/j.chemphys.2008.10.036
  3. Bykov,D.; Petrenko,T.; Izsak,R.; Kossmann,S.; Becker,U.; Valeev,E.; Neese,F.
     Efficient implementation of the analytic second derivatives of Hartree-Fock and hybrid DFT energies: a detailed analysis of different approximations
     Molec. Phys., 2015 113 1961-1977
     doi.org/10.1080/00268976.2015.1025114
  4. Helmich-Paris,B.; de Souza,B.; Neese,F.; Izsák,R.
     An improved chain of spheres for exchange algorithm
     J. Chem. Phys., 2021 155 104109
     doi.org/doi: 10.1063/5.0058766.
  5. Neese,F.
     The SHARK Integral Generation and Digestion System
     J. Comp. Chem., 2022  1-16
     doi.org/10.1002/jcc.26942
  6. Caldeweyher,E.; Bannwarth,C.; Grimme,S.
     Extension of the D3 dispersion coefficient model
     J. Chem. Phys., 2017 147 034112
     doi.org/10.1063/1.4993215
  7. Caldeweyher,E.; Ehlert,S.; Hansen,A.; Neugebauer,H.; Spicher,S.; Bannwarth,C.; Grimme,S.
     A generally applicable atomic-charge dependent London dispersion correction
     J. Chem. Phys., 2019 150 154122
     doi.org/10.1063/1.5090222
  8. Caldeweyher,E.; Mewes,J.; Ehlert,S.; Grimme,S.
     Extension and evaluation of the D4 London-dispersion model for periodic systems
     Phys. Chem. Chem. Phys., 2020 22(16)8499-8512
     doi.org/10.1039/D0CP00502A
  9. Wittmann,L.; Gordiy,I.; Friede,M.; Helmich-Paris,B.; Grimme,S.; Hansen,A.; Bursch,M.
     Extension of the D3 and D4 London Dispersion Corrections to the full Actinides Series
     Phys. Chem. Chem. Phys., 2024 26(32)21379-21394
     doi.org/https://doi.org/10.1039/D4CP01514B 

List of suggested additional citations. These are papers that are important in the 'surrounding' of 
of this run, or papers that preceded the highly important papers. If you like your results we are grateful for a citation.

  1. Izsak,R.; Neese,F.
     An overlap fitted chain of spheres exchange method
     J. Chem. Phys., 2011 135 144105
     doi.org/10.1063/1.3646921
  2. Izsak,R.; Hansen,A.; Neese,F.
     The resolution of identity and chain of spheres approximations for the LPNO-CCSD singles Fock term
     Molec. Phys., 2012 110 2413-2417
     doi.org/10.1080/00268976.2012.687466
  3. Neese,F.
     The ORCA program system
     WIRES Comput. Molec. Sci., 2012 2(1)73-78
     doi.org/10.1002/wcms.81
  4. Izsak,R.; Neese,F.; Klopper,W.
     Robust fitting techniques in the chain of spheres approximation to the Fock exchange: The role of the complementary space
     J. Chem. Phys., 2013 139 
     doi.org/10.1063/1.4819264
  5. Neese,F.
     Software update: the ORCA program system, version 4.0
     WIRES Comput. Molec. Sci., 2018 8(1)1-6
     doi.org/10.1002/wcms.1327
  6. Neese,F.; Wennmohs,F.; Becker,U.; Riplinger,C.
     The ORCA quantum chemistry program package
     J. Chem. Phys., 2020 152 Art. No. L224108
     doi.org/10.1063/5.0004608

List of optional additional citations

  1. Neese,F.
     Approximate second-order SCF convergence for spin unrestricted wavefunctions
     Chem. Phys. Lett., 2000 325(1-3)93-98
     doi.org/10.1016/s0009-2614(00)00662-x

Timings for individual modules:

Sum of individual times          ...     1531.722 sec (=  25.529 min)
Startup calculation              ...       86.430 sec (=   1.440 min)   5.6 %
SCF iterations                   ...     1037.280 sec (=  17.288 min)  67.7 %
Property integrals               ...       64.420 sec (=   1.074 min)   4.2 %
SCF Response                     ...       43.296 sec (=   0.722 min)   2.8 %
Property calculations            ...      100.403 sec (=   1.673 min)   6.6 %
SCF Gradient evaluation          ...      199.437 sec (=   3.324 min)  13.0 %
Geometry relaxation              ...        0.456 sec (=   0.008 min)   0.0 %
                             ****ORCA TERMINATED NORMALLY****
TOTAL RUN TIME: 0 days 0 hours 25 minutes 43 seconds 299 msec
