
                                 *****************
                                 * O   R   C   A *
                                 *****************

                                            #,                                       
                                            ###                                      
                                            ####                                     
                                            #####                                    
                                            ######                                   
                                           ########,                                 
                                     ,,################,,,,,                         
                               ,,#################################,,                 
                          ,,##########################################,,             
                       ,#########################################, ''#####,          
                    ,#############################################,,   '####,        
                  ,##################################################,,,,####,       
                ,###########''''           ''''###############################       
              ,#####''   ,,,,##########,,,,          '''####'''          '####       
            ,##' ,,,,###########################,,,                        '##       
           ' ,,###''''                  '''############,,,                           
         ,,##''                                '''############,,,,        ,,,,,,###''
      ,#''                                            '''#######################'''  
     '                                                          ''''####''''         
             ,#######,   #######,   ,#######,      ##                                
            ,#'     '#,  ##    ##  ,#'     '#,    #''#        ,####,   ,####,        
            ##       ##  ##   ,#'  ##            #'  '#       #'       #'  '#        
            ##       ##  #######   ##           ,######,      #####,   #    #        
            '#,     ,#'  ##    ##  '#,     ,#' ,#      #,     #,   #   #,  ,#        
             '#######'   ##     ##  '#######'  #'      '#     '####' # '####'        



                #########################################################
                #                        -***-                          #
                #          Department of theory and spectroscopy        #
                #                                                       #
                #                      Frank Neese                      #
                #                                                       #
                #     Directorship, Architecture, Infrastructure        #
                #                    SHARK, DRIVERS                     #
                #        Core code/Algorithms in most modules           #
                #                                                       #
                #        Max Planck Institute fuer Kohlenforschung      #
                #                Kaiser Wilhelm Platz 1                 #
                #                 D-45470 Muelheim/Ruhr                 #
                #                      Germany                          #
                #                                                       #
                #                  All rights reserved                  #
                #                        -***-                          #
                #########################################################


                         Program Version 6.0.1  -  RELEASE   -


 With contributions from (in alphabetic order):
[Max-Planck-Institut fuer Kohlenforschung]                               
  Daniel Aravena         : Magnetic Suceptibility                        
  Michael Atanasov       : Ab Initio Ligand Field Theory (pilot matlab implementation)
  Alexander A. Auer      : GIAO ZORA, VPT2 properties, NMR spectrum      
  Ute Becker             : All parallelization in ORCA, NUMFREQ, NUMCALC 
  Giovanni Bistoni       : ED, misc. LED, open-shell LED, HFLD           
  Martin Brehm           : Molecular dynamics                            
  Dmytro Bykov           : pre 5.0 version of the SCF Hessian            
  Marcos Casanova-Páez   : Triplet and SCS-CIS(D). UHF-(DLPNO)-IP/EA/STEOM-CCSD. UHF-CVS-IP/STEOM-CCSD   
  Vijay G. Chilkuri      : MRCI spin determinant printing, contributions to CSF-ICE 
  Pauline Colinet        : FMM embedding                                 
  Dipayan Datta          : RHF DLPNO-CCSD density                        
  Achintya Kumar Dutta   : EOM-CC, STEOM-CC                              
  Nicolas Foglia         : Exact transition moments, OPA infrastructure, MCD improvements    
  Dmitry Ganyushin       : Spin-Orbit,Spin-Spin,Magnetic field MRCI      
  Miquel Garcia-Rates    : C-PCM and meta-GGA Hessian, CCSD/C-PCM, Gaussian charge scheme 
  Tiago L. C. Gouveia    : GS-ROHF, GS-ROCIS                             
  Yang Guo               : DLPNO-NEVPT2, F12-NEVPT2, CIM, IAO-localization        
  Andreas Hansen         : Spin unrestricted coupled pair/coupled cluster methods 
  Ingolf Harden          : AUTO-CI MPn and infrastructure                
  Benjamin Helmich-Paris : MC-RPA, TRAH-(SCF,CASSCF), AVAS, COSX integrals, SCF dyn. polar. 
  Lee Huntington         : MR-EOM, pCC                                   
  Robert Izsak           : Overlap fitted RIJCOSX, COSX-SCS-MP3, EOM     
  Riya Kayal             : Wick's Theorem for AUTO-CI, AUTO-CI UHF-CCSDT 
  Emily Kempfer          : AUTO-CI, RHF CISDT and CCSDT                  
  Christian Kollmar      : KDIIS, OOCD, Brueckner-CCSD(T), CCSD density, CASPT2, CASPT2-K, improved NEVPT2 
  Axel Koslowski         : Symmetry handling                             
  Simone Kossmann        : meta-GGA functionals, TD-DFT gradient, OOMP2, (MP2 Hessian; deprecated post 5.0) 
  Lucas Lang             : DCDCAS                                        
  Marvin Lechner         : AUTO-CI (C++ implementation), FIC-MRCC        
  Spencer Leger          : CASSCF response                               
  Dagmar Lenk            : GEPOL surface, SMD, ORCA-2-JSON               
  Dimitrios Liakos       : Extrapolation schemes; Compound Job, initial MDCI parallelization 
  Dimitrios Manganas     : Further ROCIS development; embedding schemes. LFT, Crystal Embedding 
  Dimitrios Pantazis     : SARC Basis sets                               
  Anastasios Papadopoulos: AUTO-CI, single reference methods and gradients 
  Taras Petrenko         : pre 6.0 DFT Hessian and TD-DFT gradient, (ASA, deprecated), ECA, 1-Electron XAS/XES, NRVS 
  Peter Pinski           : DLPNO-MP2, DLPNO-MP2 Gradient                 
  Christoph Reimann      : Effective Core Potentials                     
  Marius Retegan         : Local ZFS, SOC                                
  Christoph Riplinger    : Optimizer, TS searches, QM/MM, DLPNO-CCSD(T), (RO)-DLPNO pert. Triples 
  Michael Roemelt        : Original ROCIS implementation                 
  Masaaki Saitow         : Open-shell DLPNO-CCSD energy and density      
  Barbara Sandhoefer     : DKH picture change effects                    
  Kantharuban Sivalingam : CASSCF convergence/infrastructure, NEVPT2 and variants, FIC-MRCI 
  Bernardo de Souza      : ESD, SOC TD-DFT                               
  Georgi L. Stoychev     : AutoAux, RI-MP2 NMR, DLPNO-MP2 response, X2C  
  Van Anh Tran           : RI-MP2 g-tensors                              
  Willem Van den Heuvel  : Paramagnetic NMR                              
  Zikuan Wang            : NOTCH, Electric field optimization            
  Frank Wennmohs         : Technical directorship and infrastructure     
  Hang Xu                : AUTO-CI-Response properties                   
                                                                         
[FACCTs GmbH]                                                            
  Markus Bursch, Miquel Garcia-Rates, Christoph Riplinger, Bernardo de Souza, Georgi L. Stoychev 
                                                                 
  APM, Basis sets (HGBS, AHGBS, def-TZVP (Ac-Lr), def2-XVPD (La-Lu)), CI-OPT, improved COSX, DLPNO-Multilevel,           
  DOCKER, DRACO, updates on ESD, GOAT, IRC, LR-CPCM, MBIS, meta-GGA TD-DFT gradient, ML-optimized integration grids, 
  MM, NACMEs, nearIR, NEB, NEB-TS, NL-DFT gradient (VV10), 2- and 3-layer-ONIOM, interface openCOSMO-RS, QMMM,   
  Crystal-QMMM, SF, symmetry and pop. for TD-DFT, r2SCAN hybrids, SOLVATOR                                   
                                                                         
[Other institutions]                                                     
  V. Asgeirsson          : NEB                                           
  Christoph Bannwarth    : sTDA-DFT, sTD-DFT, PBEh-3c, B97-3c, D3        
  Sebastian Ehlert       : rSCAN, r2SCAN, r2SCAN-3c, D4, dhf basis sets  
  Marvin Friede          : D4 for Fr, Ra, Ac-Lr                          
  Lars Goerigk           : TD-DFT with DH, B97 family of functionals     
  Stefan Grimme          : VdW corrections, initial TS optimization, DFT functionals, gCP, sTDA/sTD-DF 
  Waldemar Hujo          : DFT-NL                                        
  H. Jonsson             : NEB                                           
  Holger Kruse           : gCP                                           
  Marcel Mueller         : wB97X-3c, vDZP basis set                      
  Hagen Neugebauer       : wr2SCAN                                       
  Tobias Risthaus        : range-separated hybrid DFT                    
  Lukas Wittmann         : regularized MP2, r2SCAN double-hybrids, wr2SCAN        
                                                                         
We gratefully acknowledge several colleagues who have allowed us to      
interface, adapt or use parts of their codes:                            
  Ed Valeev, F. Pavosevic, A. Kumar             : LibInt (2-el integral package), F12 methods 
  Garnet Chan, S. Sharma, J. Yang, R. Olivares  : DMRG                   
  Ulf Ekstrom                                   : XCFun DFT Library      
  Mihaly Kallay                                 : mrcc  (arbitrary order and MRCC methods)
  Frank Weinhold                                : gennbo (NPA and NBO analysis)           
  Simon Mueller                                 : openCOSMO-RS                            
  Christopher J. Cramer and Donald G. Truhlar   : smd solvation model                     
  S Lehtola, MJT Oliveira, MAL Marques          : LibXC Library                           
  Liviu Ungur et al                             : ANISO software                          


 Your calculation uses the libint2 library for the computation of 2-el integrals
 For citations please refer to: http://libint.valeyev.net

 Your ORCA version has been built with support for libXC version: 6.2.2
 For citations please refer to: https://libxc.gitlab.io

 This ORCA versions uses:
   CBLAS   interface :  Fast vector & matrix operations
   LAPACKE interface :  Fast linear algebra routines
   SCALAPACK package :  Parallel linear algebra routines
   Shared memory     :  Shared parallel matrices
   BLAS/LAPACK       :  OpenBLAS 0.3.27  USE64BITINT DYNAMIC_ARCH NO_AFFINITY SkylakeX SINGLE_THREADED
        Core in use  :  SkylakeX
   Copyright (c) 2011-2014, The OpenBLAS Project


Your calculation utilizes the atom-pairwise dispersion correction
based on EEQ partial charges (D4)


================================================================================

cite the ECPs for C  [vDZP-ECP] as follows:
   B-Ne (ecp-2-mwb), Al-Ar (ecp-10-mwb), Ga-Kr (ecp-28-mwb), Y-Cd (ecp-28-mwb), In-Xe (ecp-46-mwb):
     A. Bergner, M. Dolg, W. Küchle, H. Stoll, and H. Preuß, Mol. Phys. 80, 1431 (1993)., T. Leininger, A. Berning, A. Nicklass, H. Stoll, H.-J. Werner, and H.-J.Flad, Chem. Phys. 217, 19 (1997).
   Na-Mg, K-Ca, Rb-Sr, Cs-Ba (CRENBL):
     L. Fernandez Pacios and P. A. Christiansen, J. Chem. Phys. 82, 2664 (1985)., M. M. Hurley, L. F. Pacios, P. A. Christiansen, R. B. Ross, and W. C. Ermler, J. Chem. Phys. 84, 6840 (1986)., L. A. LaJohn, P. A. Christiansen, R. B. Ross, T. Atashroo, and W. C. Ermler, J. Chem. Phys. 87, 2812 (1987)., R. B. Ross, J. M. Powers, T. Atashroo, W. C. Ermler, L. A. LaJohn, and P. A. Christiansen, J. Chem. Phys. 93, 6654 (1990). 
   Sc-Zn (ecp-10-mdf):
     M. Dolg, U. Wedig, H. Stoll, and H. Preuss, J. Chem. Phys. 86, 866 (1986). 
   Y-Cd (ecp-28-mwb), Hf-Hg (ecp-60-mwb):
     D. Andrae, U. Häußermann, M. Dolg, H. Stoll, and H. Preuß, Theor. Chim. Acta 77, 123 (1990). 
   La (ecp-46-mwb):
     M. Dolg, H. Stoll, and H. Preuss, J. Chem. Phys. 90, 1730 (1989)., M. Dolg, H. Stoll, and H. Preuss, Theor. Chim. Acta 85, 441 (1993).
   Ce-Lu (SBKJC-ecp):
     T. R. Cundari and W. J. Stevens, J. Chem. Phys. 98, 5555 (1993).
   Tl-Rn (ecp-78-mwb):
     W. Küchle, M. Dolg, H. Stoll, and H. Preuss, Mol. Phys. 74, 1245 (1991).

ECP parameters for C  [vDZP-ECP] have been obtained from:
MM, AH, SG, J. Chem. Phys. 158, 014103 (2023), 10.1063/5.0133026

----- Orbital basis set information -----
Your calculation utilizes the basis: vDZP
   Marcel Mueller, Andreas Hansen, Stefan Grimme 
   J. Chem. Phys. 158, 014103 (2023). DOI: 10.1063/5.0133026

----- AuxJ basis set information -----
Your calculation utilizes the auxiliary basis: def2/J
   F. Weigend, Phys. Chem. Chem. Phys. 8, 1057 (2006).

================================================================================
                                        WARNINGS
                       Please study these warnings very carefully!
================================================================================

WARNING: Frozen-Core approximation turned on, but there are no core electrons.
  ===> : Turning off frozen-core approximation


WARNING: Geometry Optimization
  ===> : Switching off AutoStart
         For restart on a previous wavefunction, please use MOREAD

================================================================================
                                       INPUT FILE
================================================================================
NAME = ./output/camphene/camphene.inp
|  1> ! wB97X-3c OPT FREQ TightSCF
|  2> %pal
|  3>   nprocs 40
|  4> end
|  5> * xyz 0 1
|  6> C      2.057253    -0.070495     0.991385
|  7> C      0.870183    -0.168162     0.007417
|  8> C     -0.252590    -1.114174     0.561656
|  9> C     -1.348666    -1.363355    -0.502713
| 10> C     -2.022451     0.019439    -0.632593
| 11> C     -1.307102     0.853888     0.444503
| 12> C     -1.026954    -0.193548     1.499112
| 13> C      0.089859     1.123600    -0.047085
| 14> C      0.532177     2.300991    -0.504118
| 15> C      1.403372    -0.576973    -1.384952
| 16> H      1.747646     0.287544     1.993403
| 17> H      2.822222     0.639485     0.610177
| 18> H      2.534437    -1.066703     1.110325
| 19> H      0.120113    -2.045448     1.040320
| 20> H     -2.080881    -2.108858    -0.119435
| 21> H     -0.961385    -1.745556    -1.468138
| 22> H     -3.109493    -0.052294    -0.408960
| 23> H     -1.882531     0.450273    -1.648770
| 24> H     -1.865086     1.743956     0.806943
| 25> H     -1.955874    -0.658634     1.905931
| 26> H     -0.432796     0.198671     2.352490
| 27> H      1.550724     2.406484    -0.862627
| 28> H     -0.124277     3.164834    -0.521492
| 29> H      1.677939    -1.653320    -1.388514
| 30> H      2.306245     0.014290    -1.649202
| 31> H      0.657914    -0.385935    -2.185062
| 32> *
| 33> 
| 34>                          ****END OF INPUT****
================================================================================

                       *****************************
                       * Geometry Optimization Run *
                       *****************************

Geometry optimization settings:
Update method            Update   .... BFGS
Choice of coordinates    CoordSys .... (2022) Redundant Internals
Initial Hessian          InHess   .... Almloef's Model
Max. no of cycles        MaxIter  .... 78

Convergence Tolerances:
Energy Change            TolE     ....  5.0000e-06 Eh
Max. Gradient            TolMAXG  ....  3.0000e-04 Eh/bohr
RMS Gradient             TolRMSG  ....  1.0000e-04 Eh/bohr
Max. Displacement        TolMAXD  ....  4.0000e-03 bohr
RMS Displacement         TolRMSD  ....  2.0000e-03 bohr
Strict Convergence                .... False

------------------------------------------------------------------------------
                        ORCA OPTIMIZATION COORDINATE SETUP
------------------------------------------------------------------------------

The optimization will be done in redundant internal coordinates (2022)
Making redundant internal coordinates   ...  (2022 redundants) done
Evaluating the initial hessian          ...  (Almloef) done
Evaluating the coordinates              ...  done
Calculating the B-matrix                .... done
Calculating the G-matrix                .... done
Diagonalizing the G-matrix              .... done
The first mode is                       ....   71
The number of degrees of freedom        ....   72

    -----------------------------------------------------------------
                    Redundant Internal Coordinates


    -----------------------------------------------------------------
         Definition                    Initial Value    Approx d2E/dq
    -----------------------------------------------------------------
      1. B(C   1,C   0)                  1.5449         0.353612   
      2. B(C   2,C   1)                  1.5693         0.323339   
      3. B(C   3,C   2)                  1.5480         0.349650   
      4. B(C   4,C   3)                  1.5437         0.355253   
      5. B(C   5,C   4)                  1.5389         0.361579   
      6. B(C   6,C   5)                  1.5125         0.398308   
      7. B(C   6,C   2)                  1.5251         0.380321   
      8. B(C   7,C   5)                  1.5053         0.409070   
      9. B(C   7,C   1)                  1.5101         0.401848   
     10. B(C   8,C   7)                  1.3382         0.755762   
     11. B(C   9,C   1)                  1.5460         0.352253   
     12. B(H  10,C   0)                  1.1082         0.336821   
     13. B(H  11,C   0)                  1.1111         0.333228   
     14. B(H  12,C   0)                  1.1110         0.333386   
     15. B(H  13,C   2)                  1.1114         0.332826   
     16. B(H  14,C   3)                  1.1130         0.330898   
     17. B(H  15,C   3)                  1.1082         0.336810   
     18. B(H  16,C   4)                  1.1121         0.331992   
     19. B(H  17,C   4)                  1.1126         0.331447   
     20. B(H  18,C   5)                  1.1113         0.333029   
     21. B(H  19,C   6)                  1.1157         0.327705   
     22. B(H  20,C   6)                  1.1114         0.332928   
     23. B(H  21,C   8)                  1.0849         0.366856   
     24. B(H  22,C   8)                  1.0851         0.366631   
     25. B(H  23,C   9)                  1.1108         0.333584   
     26. B(H  24,C   9)                  1.1111         0.333211   
     27. B(H  25,C   9)                  1.1101         0.334437   
     28. A(C   1,C   0,H  10)          112.4350         0.317923   
     29. A(C   1,C   0,H  12)          109.9695         0.317392   
     30. A(C   1,C   0,H  11)          110.5409         0.317368   
     31. A(H  10,C   0,H  12)          108.2343         0.284371   
     32. A(H  10,C   0,H  11)          107.2246         0.284350   
     33. A(H  11,C   0,H  12)          108.2999         0.283897   
     34. A(C   2,C   1,C   7)           99.1315         0.358950   
     35. A(C   0,C   1,C   7)          111.4653         0.364474   
     36. A(C   0,C   1,C   9)          108.9854         0.356382   
     37. A(C   7,C   1,C   9)          111.8327         0.364234   
     38. A(C   2,C   1,C   9)          113.9176         0.351020   
     39. A(C   0,C   1,C   2)          111.2783         0.351249   
     40. A(C   1,C   2,H  13)          114.6634         0.312727   
     41. A(C   1,C   2,C   6)          102.5015         0.355607   
     42. A(C   3,C   2,C   6)           99.2239         0.360369   
     43. A(C   6,C   2,H  13)          114.2883         0.321099   
     44. A(C   1,C   2,C   3)          111.1483         0.350581   
     45. A(C   3,C   2,H  13)          113.4953         0.316724   
     46. A(C   2,C   3,H  15)          114.0203         0.317338   
     47. A(C   4,C   3,H  14)          109.9878         0.317245   
     48. A(C   2,C   3,H  14)          109.6849         0.316425   
     49. A(C   2,C   3,C   4)          102.8681         0.356213   
     50. A(H  14,C   3,H  15)          107.3910         0.284039   
     51. A(C   4,C   3,H  15)          112.8411         0.318161   
     52. A(C   3,C   4,H  17)          111.6438         0.317330   
     53. A(H  16,C   4,H  17)          109.3640         0.283477   
     54. A(C   5,C   4,H  17)          111.7674         0.318244   
     55. A(C   5,C   4,H  16)          110.4015         0.318329   
     56. A(C   3,C   4,H  16)          110.6058         0.317415   
     57. A(C   3,C   4,C   5)          102.9407         0.358250   
     58. A(C   4,C   5,C   6)          101.4556         0.365313   
     59. A(C   6,C   5,C   7)          100.3635         0.373139   
     60. A(C   4,C   5,C   7)          107.4562         0.366985   
     61. A(C   7,C   5,H  18)          115.4027         0.324992   
     62. A(C   6,C   5,H  18)          114.8502         0.323572   
     63. A(C   4,C   5,H  18)          115.4154         0.318491   
     64. A(H  19,C   6,H  20)          108.1955         0.283101   
     65. A(C   5,C   6,H  20)          112.9554         0.323556   
     66. A(C   2,C   6,H  20)          114.4297         0.321115   
     67. A(C   5,C   6,H  19)          112.8744         0.322718   
     68. A(C   2,C   6,H  19)          113.2815         0.320286   
     69. A(C   2,C   6,C   5)           94.7889         0.368491   
     70. A(C   5,C   7,C   8)          125.1644         0.417466   
     71. A(C   1,C   7,C   8)          126.4509         0.416145   
     72. A(C   1,C   7,C   5)          108.3297         0.373709   
     73. A(H  21,C   8,H  22)          119.0287         0.292517   
     74. A(C   7,C   8,H  22)          120.3933         0.366131   
     75. A(C   7,C   8,H  21)          120.5780         0.366169   
     76. A(H  24,C   9,H  25)          106.4197         0.284034   
     77. A(H  23,C   9,H  25)          109.2940         0.284083   
     78. A(C   1,C   9,H  25)          111.8402         0.317356   
     79. A(H  23,C   9,H  24)          108.3007         0.283921   
     80. A(C   1,C   9,H  24)          110.7151         0.317166   
     81. A(C   1,C   9,H  23)          110.1427         0.317224   
     82. D(C   7,C   1,C   0,H  10)     52.1559         0.010058   
     83. D(C   2,C   1,C   0,H  10)    -57.4860         0.010058   
     84. D(C   7,C   1,C   0,H  11)    -67.6342         0.010058   
     85. D(C   2,C   1,C   0,H  12)     63.1918         0.010058   
     86. D(C   7,C   1,C   0,H  12)    172.8337         0.010058   
     87. D(C   2,C   1,C   0,H  11)   -177.2760         0.010058   
     88. D(C   3,C   2,C   1,C   0)   -172.2798         0.008550   
     89. D(C   6,C   2,C   1,C   9)   -153.7710         0.008550   
     90. D(C   3,C   2,C   1,C   7)     70.3106         0.008550   
     91. D(C   6,C   2,C   1,C   0)     82.5426         0.008550   
     92. D(C   6,C   2,C   1,C   7)    -34.8671         0.008550   
     93. D(C   3,C   2,C   1,C   9)    -48.5934         0.008550   
     94. D(C   4,C   3,C   2,C   6)     39.1427         0.009851   
     95. D(C   4,C   3,C   2,C   1)    -68.1922         0.009851   
     96. D(H  14,C   3,C   2,H  13)     43.8017         0.009851   
     97. D(H  14,C   3,C   2,C   6)    -77.8654         0.009851   
     98. D(H  14,C   3,C   2,C   1)    174.7997         0.009851   
     99. D(C   4,C   3,C   2,H  13)    160.8098         0.009851   
    100. D(H  16,C   4,C   3,H  15)    114.5133         0.010145   
    101. D(H  16,C   4,C   3,H  14)     -5.3753         0.010145   
    102. D(H  16,C   4,C   3,C   2)   -122.1680         0.010145   
    103. D(C   5,C   4,C   3,H  14)    112.5631         0.010145   
    104. D(C   5,C   4,C   3,C   2)     -4.2296         0.010145   
    105. D(C   5,C   4,C   3,H  15)   -127.5483         0.010145   
    106. D(C   7,C   5,C   4,H  17)    -47.7543         0.010483   
    107. D(C   7,C   5,C   4,H  16)   -169.7215         0.010483   
    108. D(C   7,C   5,C   4,C   3)     72.1965         0.010483   
    109. D(C   6,C   5,C   4,H  17)   -152.5950         0.010483   
    110. D(C   6,C   5,C   4,H  16)     85.4378         0.010483   
    111. D(C   6,C   5,C   4,C   3)    -32.6443         0.010483   
    112. D(C   5,C   6,C   2,C   1)     55.6279         0.011527   
    113. D(H  19,C   6,C   5,H  18)     64.0030         0.012591   
    114. D(H  19,C   6,C   5,C   7)   -171.5749         0.012591   
    115. D(H  19,C   6,C   5,C   4)    -61.1971         0.012591   
    116. D(C   2,C   6,C   5,H  18)   -178.2329         0.012591   
    117. D(C   2,C   6,C   5,C   7)    -53.8108         0.012591   
    118. D(C   2,C   6,C   5,C   4)     56.5670         0.012591   
    119. D(H  19,C   6,C   2,H  13)    -62.2605         0.011527   
    120. D(H  19,C   6,C   2,C   3)     58.8307         0.011527   
    121. D(H  19,C   6,C   2,C   1)    173.0602         0.011527   
    122. D(C   5,C   6,C   2,H  13)   -179.6927         0.011527   
    123. D(C   5,C   6,C   2,C   3)    -58.6015         0.011527   
    124. D(C   8,C   7,C   5,C   6)   -148.0825         0.012396   
    125. D(C   8,C   7,C   5,C   4)    106.3034         0.012396   
    126. D(C   1,C   7,C   5,H  18)    158.5143         0.012396   
    127. D(C   1,C   7,C   5,C   6)     34.4731         0.012396   
    128. D(C   1,C   7,C   5,C   4)    -71.1410         0.012396   
    129. D(C   8,C   7,C   1,C   2)   -177.1525         0.011979   
    130. D(C   8,C   7,C   1,C   0)     65.5793         0.011979   
    131. D(C   5,C   7,C   1,C   9)    120.6978         0.011979   
    132. D(C   5,C   7,C   1,C   2)      0.2501         0.011979   
    133. D(C   5,C   7,C   1,C   0)   -117.0180         0.011979   
    134. D(H  22,C   8,C   7,C   5)      1.4187         0.040794   
    135. D(H  22,C   8,C   7,C   1)    178.4023         0.040794   
    136. D(H  21,C   8,C   7,C   5)   -178.5655         0.040794   
    137. D(H  21,C   8,C   7,C   1)     -1.5818         0.040794   
    138. D(H  24,C   9,C   1,C   7)     78.3430         0.009987   
    139. D(H  24,C   9,C   1,C   2)   -170.2675         0.009987   
    140. D(H  24,C   9,C   1,C   0)    -45.3489         0.009987   
    141. D(H  23,C   9,C   1,C   7)   -161.9023         0.009987   
    142. D(H  23,C   9,C   1,C   2)    -50.5127         0.009987   
    143. D(H  23,C   9,C   1,C   0)     74.4058         0.009987   
    -----------------------------------------------------------------

Number of atoms                         .... 26
Number of degrees of freedom            .... 143


         *************************************************************
         *                GEOMETRY OPTIMIZATION CYCLE   1            *
         *************************************************************
---------------------------------
CARTESIAN COORDINATES (ANGSTROEM)
---------------------------------
  C      2.057253   -0.070495    0.991385
  C      0.870183   -0.168162    0.007417
  C     -0.252590   -1.114174    0.561656
  C     -1.348666   -1.363355   -0.502713
  C     -2.022451    0.019439   -0.632593
  C     -1.307102    0.853888    0.444503
  C     -1.026954   -0.193548    1.499112
  C      0.089859    1.123600   -0.047085
  C      0.532177    2.300991   -0.504118
  C      1.403372   -0.576973   -1.384952
  H      1.747646    0.287544    1.993403
  H      2.822222    0.639485    0.610177
  H      2.534437   -1.066703    1.110325
  H      0.120113   -2.045448    1.040320
  H     -2.080881   -2.108858   -0.119435
  H     -0.961385   -1.745556   -1.468138
  H     -3.109493   -0.052294   -0.408960
  H     -1.882531    0.450273   -1.648770
  H     -1.865086    1.743956    0.806943
  H     -1.955874   -0.658634    1.905931
  H     -0.432796    0.198671    2.352490
  H      1.550724    2.406484   -0.862627
  H     -0.124277    3.164834   -0.521492
  H      1.677939   -1.653320   -1.388514
  H      2.306245    0.014290   -1.649202
  H      0.657914   -0.385935   -2.185062

----------------------------
CARTESIAN COORDINATES (A.U.)
----------------------------
  NO LB      ZA    FRAG     MASS         X           Y           Z
   0 C     4.0000*   0    12.011    3.887645   -0.133216    1.873446
   1 C     4.0000*   0    12.011    1.644408   -0.317780    0.014016
   2 C     4.0000*   0    12.011   -0.477326   -2.105484    1.061376
   3 C     4.0000*   0    12.011   -2.548609   -2.576368   -0.949990
   4 C     4.0000*   0    12.011   -3.821879    0.036734   -1.195428
   5 C     4.0000*   0    12.011   -2.470065    1.613614    0.839989
   6 C     4.0000*   0    12.011   -1.940662   -0.365753    2.832911
   7 C     4.0000*   0    12.011    0.169809    2.123296   -0.088978
   8 C     4.0000*   0    12.011    1.005669    4.348243   -0.952645
   9 C     4.0000*   0    12.011    2.651989   -1.090321   -2.617180
  10 H     1.0000    0     1.008    3.302572    0.543379    3.766986
  11 H     1.0000    0     1.008    5.333227    1.208452    1.153067
  12 H     1.0000    0     1.008    4.789392   -2.015777    2.098210
  13 H     1.0000    0     1.008    0.226981   -3.865337    1.965920
  14 H     1.0000    0     1.008   -3.932295   -3.985164   -0.225699
  15 H     1.0000    0     1.008   -1.816754   -3.298623   -2.774379
  16 H     1.0000    0     1.008   -5.876090   -0.098821   -0.772822
  17 H     1.0000    0     1.008   -3.557468    0.850893   -3.115724
  18 H     1.0000    0     1.008   -3.524502    3.295599    1.524901
  19 H     1.0000    0     1.008   -3.696066   -1.244638    3.601688
  20 H     1.0000    0     1.008   -0.817866    0.375434    4.445562
  21 H     1.0000    0     1.008    2.930444    4.547596   -1.630129
  22 H     1.0000    0     1.008   -0.234849    5.980670   -0.985477
  23 H     1.0000    0     1.008    3.170845   -3.124322   -2.623911
  24 H     1.0000    0     1.008    4.358171    0.027004   -3.116540
  25 H     1.0000    0     1.008    1.243277   -0.729311   -4.129169
* core charge reduced due to ECP

--------------------------------
INTERNAL COORDINATES (ANGSTROEM)
--------------------------------
 C      0   0   0     0.000000000000     0.00000000     0.00000000
 C      1   0   0     1.544948883560     0.00000000     0.00000000
 C      2   1   0     1.569311563328   111.27834070     0.00000000
 C      3   2   1     1.548016516933   111.14830336   187.72020324
 C      4   3   2     1.543688533047   102.86809892   291.80783815
 C      5   4   3     1.538884374675   102.94065122   355.77042292
 C      6   5   4     1.512549245109   101.45555030   327.35571430
 C      6   5   4     1.505291785738   107.45623131    72.19645366
 C      8   6   5     1.338198020883   125.16438354   106.30344491
 C      2   1   3     1.545997534152   108.98543439   233.55158955
 H      1   2   3     1.108191541338   112.43499698   302.51400493
 H      1   2   3     1.111111475337   110.54088643   182.72396596
 H      1   2   3     1.110982300813   109.96946086    63.19182447
 H      3   2   1     1.111439613376   114.66341736   318.11119793
 H      4   3   2     1.113020913783   109.68490538   174.79974706
 H      4   3   2     1.108201068393   114.02025672    54.33734625
 H      5   4   3     1.112123038041   110.60582720   237.83203181
 H      5   4   3     1.112569655026   111.64378690   115.80640238
 H      6   5   4     1.111274017729   115.41536429   202.53414232
 H      7   6   5     1.115660814297   112.87435633   298.80292873
 H      7   6   5     1.111356596151   112.95543138   175.65833765
 H      9   8   6     1.084940305887   120.57795977   181.43452876
 H      9   8   6     1.085107570078   120.39332490     1.41866430
 H     10   2   1     1.110820682983   110.14272636    74.40584567
 H     10   2   1     1.111125398773   110.71506795   314.65111143
 H     10   2   1     1.110125740314   111.84024917   196.15223478

---------------------------
INTERNAL COORDINATES (A.U.)
---------------------------
 C      0   0   0     0.000000000000     0.00000000     0.00000000
 C      1   0   0     2.919530280836     0.00000000     0.00000000
 C      2   1   0     2.965569073485   111.27834070     0.00000000
 C      3   2   1     2.925327267790   111.14830336   187.72020324
 C      4   3   2     2.917148563534   102.86809892   291.80783815
 C      5   4   3     2.908070019906   102.94065122   355.77042292
 C      6   5   4     2.858303837326   101.45555030   327.35571430
 C      6   5   4     2.844589226685   107.45623131    72.19645366
 C      8   6   5     2.528827772423   125.16438354   106.30344491
 C      2   1   3     2.921511943264   108.98543439   233.55158955
 H      1   2   3     2.094178517058   112.43499698   302.51400493
 H      1   2   3     2.099696392644   110.54088643   182.72396596
 H      1   2   3     2.099452288171   109.96946086    63.19182447
 H      3   2   1     2.100316483672   114.66341736   318.11119793
 H      4   3   2     2.103304708376   109.68490538   174.79974706
 H      4   3   2     2.094196520581   114.02025672    54.33734625
 H      5   4   3     2.101607969122   110.60582720   237.83203181
 H      5   4   3     2.102451952911   111.64378690   115.80640238
 H      6   5   4     2.100003553251   115.41536429   202.53414232
 H      7   6   5     2.108293397368   112.87435633   298.80292873
 H      7   6   5     2.100159603853   112.95543138   175.65833765
 H      9   8   6     2.050240049780   120.57795977   181.43452876
 H      9   8   6     2.050556133293   120.39332490     1.41866430
 H     10   2   1     2.099146874733   110.14272636    74.40584567
 H     10   2   1     2.099722704125   110.71506795   314.65111143
 H     10   2   1     2.097833623410   111.84024917   196.15223478

---------------------
BASIS SET INFORMATION
---------------------
There are 2 groups of distinct atoms

 Group   1 Type C   : 6s6p2d contracted to 2s2p1d pattern {42/42/2}
 Group   2 Type H   : 8s2p contracted to 2s1p pattern {53/2}

Atom   0C    basis set group =>   1
Atom   1C    basis set group =>   1
Atom   2C    basis set group =>   1
Atom   3C    basis set group =>   1
Atom   4C    basis set group =>   1
Atom   5C    basis set group =>   1
Atom   6C    basis set group =>   1
Atom   7C    basis set group =>   1
Atom   8C    basis set group =>   1
Atom   9C    basis set group =>   1
Atom  10H    basis set group =>   2
Atom  11H    basis set group =>   2
Atom  12H    basis set group =>   2
Atom  13H    basis set group =>   2
Atom  14H    basis set group =>   2
Atom  15H    basis set group =>   2
Atom  16H    basis set group =>   2
Atom  17H    basis set group =>   2
Atom  18H    basis set group =>   2
Atom  19H    basis set group =>   2
Atom  20H    basis set group =>   2
Atom  21H    basis set group =>   2
Atom  22H    basis set group =>   2
Atom  23H    basis set group =>   2
Atom  24H    basis set group =>   2
Atom  25H    basis set group =>   2
---------------------------------
AUXILIARY/J BASIS SET INFORMATION
---------------------------------
There are 2 groups of distinct atoms

 Group   1 Type C   : 12s5p4d2f1g contracted to 6s4p3d1f1g pattern {711111/2111/211/2/1}
 Group   2 Type H   : 5s2p1d contracted to 3s1p1d pattern {311/2/1}

Atom   0C    basis set group =>   1
Atom   1C    basis set group =>   1
Atom   2C    basis set group =>   1
Atom   3C    basis set group =>   1
Atom   4C    basis set group =>   1
Atom   5C    basis set group =>   1
Atom   6C    basis set group =>   1
Atom   7C    basis set group =>   1
Atom   8C    basis set group =>   1
Atom   9C    basis set group =>   1
Atom  10H    basis set group =>   2
Atom  11H    basis set group =>   2
Atom  12H    basis set group =>   2
Atom  13H    basis set group =>   2
Atom  14H    basis set group =>   2
Atom  15H    basis set group =>   2
Atom  16H    basis set group =>   2
Atom  17H    basis set group =>   2
Atom  18H    basis set group =>   2
Atom  19H    basis set group =>   2
Atom  20H    basis set group =>   2
Atom  21H    basis set group =>   2
Atom  22H    basis set group =>   2
Atom  23H    basis set group =>   2
Atom  24H    basis set group =>   2
Atom  25H    basis set group =>   2
-------------------------
ECP PARAMETER INFORMATION
-------------------------

 Group 1, Type C  ECP vDZP-ECP (replacing 2 core electrons, lmax=3)

Atom   0C    ECP group =>   1
Atom   1C    ECP group =>   1
Atom   2C    ECP group =>   1
Atom   3C    ECP group =>   1
Atom   4C    ECP group =>   1
Atom   5C    ECP group =>   1
Atom   6C    ECP group =>   1
Atom   7C    ECP group =>   1
Atom   8C    ECP group =>   1
Atom   9C    ECP group =>   1



           ************************************************************
           *        Program running with 40 parallel MPI-processes    *
           *              working on a common directory               *
           ************************************************************
------------------------------------------------------------------------------
                             ORCA STARTUP CALCULATIONS
                           -- RI-GTO INTEGRALS CHOSEN --
------------------------------------------------------------------------------
------------------------------------------------------------------------------
                   ___                                                        
                  /   \      - P O W E R E D   B Y -                         
                 /     \                                                     
                 |  |  |   _    _      __       _____    __    __             
                 |  |  |  | |  | |    /  \     |  _  \  |  |  /  |          
                  \  \/   | |  | |   /    \    | | | |  |  | /  /          
                 / \  \   | |__| |  /  /\  \   | |_| |  |  |/  /          
                |  |  |   |  __  | /  /__\  \  |    /   |      \           
                |  |  |   | |  | | |   __   |  |    \   |  |\   \          
                \     /   | |  | | |  |  |  |  | |\  \  |  | \   \       
                 \___/    |_|  |_| |__|  |__|  |_| \__\ |__|  \__/        
                                                                              
                      - O R C A' S   B I G   F R I E N D -                    
                                      &                                       
                       - I N T E G R A L  F E E D E R -                       
                                                                              
 v1 FN, 2020, v2 2021, v3 2022-2024                                           
------------------------------------------------------------------------------


----------------------
SHARK INTEGRAL PACKAGE
----------------------

Number of atoms                             ...     26
Number of basis functions                   ...    210
Number of shells                            ...     98
Maximum angular momentum                    ...      2
Integral batch strategy                     ... SHARK/LIBINT Hybrid
RI-J (if used) integral strategy            ... SPLIT-RIJ (Revised 2003 algorithm where possible)
Printlevel                                  ...      1
Contraction scheme used                     ... SEGMENTED contraction
Prescreening option                         ... SCHWARTZ
   Thresh                                   ... 2.500e-11
   Tcut                                     ... 2.500e-12
   Tpresel                                  ... 2.500e-12 
Coulomb Range Separation                    ... NOT USED
Exchange Range Separation                   ... Long Range
   Mu parameter                             ... 3.000e-01
   Scaling (regular/separated)              ... 1.670e-01 8.330e-01
Multipole approximations                    ... NOT USED
Finite Nucleus Model                        ... NOT USED
CABS basis                                  ... NOT available
Auxiliary Coulomb fitting basis             ... AVAILABLE
   # of basis functions in Aux-J            ...    666
   # of shells in Aux-J                     ...    230
   Maximum angular momentum in Aux-J        ...      4
Auxiliary J/K fitting basis                 ... NOT available
Auxiliary Correlation fitting basis         ... NOT available
Auxiliary 'external' fitting basis          ... NOT available

Checking pre-screening integrals            ... done (  0.0 sec) Dimension = 98
Check shell pair data                       ... done (  0.0 sec)
Shell pair information
Shell pair cut-off parameter TPreSel        ...   2.5e-12
Total number of shell pairs                 ...      4851
Shell pairs after pre-screening             ...      4851
Total number of primitive shell pairs       ...     45524
Primitive shell pairs kept                  ...     38929
          la=0 lb=0:   1378 shell pairs
          la=1 lb=0:   1872 shell pairs
          la=1 lb=1:    666 shell pairs
          la=2 lb=0:    520 shell pairs
          la=2 lb=1:    360 shell pairs
          la=2 lb=2:     55 shell pairs

Calculating one electron integrals          ... done (  0.0 sec)
Calculating ECP integrals                   ... done (  0.1 sec)
Calculating RI/J V-Matrix + Cholesky decomp.... done (  0.0 sec)
Calculating Nuclear repulsion               ... done (  0.0 sec) ENN=    308.396603761828 Eh

Diagonalization of the overlap matrix:
Smallest eigenvalue                        ... 9.350e-04
Time for diagonalization                   ...    0.006 sec
Threshold for overlap eigenvalues          ... 1.000e-07
Number of eigenvalues below threshold      ... 0
Time for construction of square roots      ...    0.006 sec
Total time needed                          ...    0.016 sec

-------------------
DFT GRID GENERATION
-------------------

General Integration Accuracy     IntAcc      ... 4.388
Radial Grid Type                 RadialGrid  ... OptM3 with GC (2021)
Angular Grid (max. ang.)         AngularGrid ... 4 (Lebedev-302)
Angular grid pruning method      GridPruning ... 4 (adaptive)
Weight generation scheme         WeightScheme... mBecke (2022)
Basis function cutoff            BFCut       ... 1.0000e-11
Integration weight cutoff        WCut        ... 1.0000e-14
Partially contracted basis set               ... off
Rotationally invariant grid construction     ... off
Angular grids for H and He will be reduced by one unit

Total number of grid points                  ...   110177
Total number of batches                      ...     1736
Average number of points per batch           ...       63
Average number of grid points per atom       ...     4238

--------------------
COSX GRID GENERATION
--------------------

GRIDX 1
-------
General Integration Accuracy     IntAcc      ... 3.816
Radial Grid Type                 RadialGrid  ... OptM3 with GC (2021)
Angular Grid (max. ang.)         AngularGrid ... 1 (Lebedev-50)
Angular grid pruning method      GridPruning ... 4 (adaptive)
Weight generation scheme         WeightScheme... mBecke (2022)
Basis function cutoff            BFCut       ... 1.0000e-11
Integration weight cutoff        WCut        ... 1.0000e-14
Partially contracted basis set               ... on
Rotationally invariant grid construction     ... off
Angular grids for H and He will be reduced by one unit

Total number of grid points                  ...    14083
Total number of batches                      ...      128
Average number of points per batch           ...      110
Average number of grid points per atom       ...      542
UseSFitting                                  ... on

GRIDX 2
-------
General Integration Accuracy     IntAcc      ... 4.020
Radial Grid Type                 RadialGrid  ... OptM3 with GC (2021)
Angular Grid (max. ang.)         AngularGrid ... 2 (Lebedev-110)
Angular grid pruning method      GridPruning ... 4 (adaptive)
Weight generation scheme         WeightScheme... mBecke (2022)
Basis function cutoff            BFCut       ... 1.0000e-11
Integration weight cutoff        WCut        ... 1.0000e-14
Partially contracted basis set               ... on
Rotationally invariant grid construction     ... off
Angular grids for H and He will be reduced by one unit

Total number of grid points                  ...    29263
Total number of batches                      ...      243
Average number of points per batch           ...      120
Average number of grid points per atom       ...     1126
UseSFitting                                  ... on

GRIDX 3
-------
General Integration Accuracy     IntAcc      ... 4.338
Radial Grid Type                 RadialGrid  ... OptM3 with GC (2021)
Angular Grid (max. ang.)         AngularGrid ... 3 (Lebedev-194)
Angular grid pruning method      GridPruning ... 4 (adaptive)
Weight generation scheme         WeightScheme... mBecke (2022)
Basis function cutoff            BFCut       ... 1.0000e-11
Integration weight cutoff        WCut        ... 1.0000e-14
Partially contracted basis set               ... on
Rotationally invariant grid construction     ... off
Angular grids for H and He will be reduced by one unit

Total number of grid points                  ...    63661
Total number of batches                      ...      510
Average number of points per batch           ...      124
Average number of grid points per atom       ...     2448
UseSFitting                                  ... on
Initializing property integral containers    ... done (  0.0 sec)

SHARK setup successfully completed in   3.3 seconds

Maximum memory used throughout the entire STARTUP-calculation: 32.0 MB


           ************************************************************
           *        Program running with 40 parallel MPI-processes    *
           *              working on a common directory               *
           ************************************************************
-------------------------------------------------------------------------------
                                 ORCA GUESS
                   Start orbitals & Density for SCF / CASSCF
-------------------------------------------------------------------------------

------------
SCF SETTINGS
------------
Hamiltonian:
 Density Functional     Method          .... DFT(GTOs)
 Exchange Functional    Exchange        .... WB97X-V
 Correlation Functional Correlation     .... WB97X-V
 Gradients option       PostSCFGGA      .... off
 Hybrid DFT is turned on
   Fraction HF Exchange ScalHFX         ....  0.167000
   Scaling of DF-GGA-X  ScalDFX         ....  0.000000
   Scaling of DF-GGA-C  ScalDFC         ....  1.000000
   Scaling of DF-LDA-C  ScalLDAC        ....  1.000000
   Perturbative correction              ....  0.000000
 Long-range corrected/Screened/Range-Separated Hybrid DFT is turned on
   Amount of maximum screened exact exchange              ....  0.833000
   Range separation parameter mu (erf(mu*r12)/r12)        ....  0.300000
   NL short-range parameter             ....  6.000000
   NL long-range parameter              ....  0.010000
 RI-approximation to the Coulomb term is turned on
   Number of AuxJ basis functions       .... 666
   RIJ-COSX (HFX calculated with COS-X)).... on


General Settings:
 Integral files         IntName         .... ./output/camphene/camphene
 Hartree-Fock type      HFTyp           .... RHF
 Total Charge           Charge          ....    0
 Multiplicity           Mult            ....    1
 Number of Electrons    NEL             ....   56
 Basis Dimension        Dim             ....  210
 Nuclear Repulsion      ENuc            ....    308.3966037618 Eh

Convergence Acceleration:
 AO-DIIS                CNVDIIS         .... on
   Start iteration      DIISMaxIt       ....    12
   Startup error        DIISStart       ....  0.200000
   # of expansion vecs  DIISMaxEq       ....     5
   Bias factor          DIISBfac        ....   1.050
   Max. coefficient     DIISMaxC        ....  10.000
 MO-DIIS                CNVKDIIS        .... off
 Trust-Rad. Augm. Hess. CNVTRAH         .... auto
   Auto Start mean grad. ratio tolernc. ....  1.125000
   Auto Start start iteration           ....    50
   Auto Start num. interpolation iter.  ....    10
   Max. Number of Micro iterations      ....    24
   Max. Number of Macro iterations      .... Maxiter - #DIIS iter
   Number of Davidson start vectors     ....     2
   Converg. threshold    (grad. norm)   ....   1.000e-05
   Grad. Scal. Fac. for Micro threshold ....   0.100
   Minimum threshold for Micro iter.    ....   1.000e-02
   NR start threshold (gradient norm)   ....   1.000e-04
   Initial trust radius                 ....   0.400
   Minimum AH scaling param. (alpha)    ....   1.000
   Maximum AH scaling param. (alpha)    .... 1000.000
   Quad. conv. algorithm                .... NR
   White noise on init. David. guess    .... on
   Maximum white noise                  ....   0.010
   Pseudo random numbers                .... off
   Inactive MOs                         .... canonical
   Orbital update algorithm             .... Taylor
   Preconditioner                       .... Diag
   Full preconditioner red. dimension   ....   250
 SOSCF                  CNVSOSCF        .... on
   Start iteration      SOSCFMaxIt      ....   150
   Startup grad/error   SOSCFStart      ....  0.003300
   Hessian update       SOSCFHessUp     .... L-BFGS
 Level Shifting         CNVShift        .... on
   Level shift para.    LevelShift      ....    0.2500
   Turn off err/grad.   ShiftErr        ....    0.0010
 Zerner damping         CNVZerner       .... off
 Static damping         CNVDamp         .... on
   Fraction old density DampFac         ....    0.7000
   Max. Damping (<1)    DampMax         ....    0.9800
   Min. Damping (>=0)   DampMin         ....    0.0000
   Turn off err/grad.   DampErr         ....    0.1000

SCF Procedure:
 Maximum # iterations   MaxIter         ....   125
 SCF integral mode      SCFMode         .... Direct
   Integral package                     .... SHARK and LIBINT hybrid scheme
 Reset frequency        DirectResetFreq ....    20
 Integral Threshold     Thresh          ....  2.500e-11 Eh
 Primitive CutOff       TCut            ....  2.500e-12 Eh

Convergence Tolerance:
 Convergence Check Mode ConvCheckMode   .... Total+1el-Energy
 Convergence forced     ConvForced      .... 0
 Energy Change          TolE            ....  1.000e-08 Eh
 1-El. energy change                    ....  1.000e-05 Eh
 Orbital Gradient       TolG            ....  1.000e-05
 Orbital Rotation angle TolX            ....  1.000e-05
 DIIS Error             TolErr          ....  5.000e-07

------------------------------
INITIAL GUESS: MODEL POTENTIAL
------------------------------
Loading Hartree-Fock densities                     ... done
Atomic calculation to generate a density for atom 0 (C  with ECP)
  Multiplicity assumed   :    1
  Atomic configuration   : 1s2 2s2 2p2 
  Number of open shells  : 1
  Command: /home/aspe232/Project/Software/ORCA/6_0_1/build/orca ./output/camphene/camphene_atom6.inp "" > ./output/camphene/camphene_atom6.out
Returned from the atomic calculation with res=0
Calculating cut-offs                               ... done
Initializing the effective Hamiltonian             ... done
Setting up the integral package (SHARK)            ... done
Starting the Coulomb interaction                   ... done (   0.0 sec)
Making the grid                                    ... done (   0.9 sec)
Mapping shells                                     ... done
Starting the XC term evaluation                    ... done (   0.1 sec)
  promolecular density results
     # of electrons  =     75.996302794
     EX              =    -36.949399071
     EC              =     -3.045691525
     EX+EC           =    -39.995090596
Transforming the Hamiltonian                       ... done (   0.0 sec)
Diagonalizing the Hamiltonian                      ... done (   0.1 sec)
Back transforming the eigenvectors                 ... done (   0.0 sec)
Now organizing SCF variables                       ... done
                      ------------------
                      INITIAL GUESS DONE (   1.7 sec)
                      ------------------
             **** ENERGY FILE WAS UPDATED (./output/camphene/camphene.en.tmp) ****
Finished Guess after   2.4 sec
Maximum memory used throughout the entire GUESS-calculation: 20.2 MB


           ************************************************************
           *        Program running with 40 parallel MPI-processes    *
           *              working on a common directory               *
           ************************************************************

-------------------------------------------------------------------------------------------
                                      ORCA LEAN-SCF
                              memory conserving SCF solver
-------------------------------------------------------------------------------------------

----------------------------------------D-I-I-S--------------------------------------------
Iteration    Energy (Eh)           Delta-E    RMSDP     MaxDP     DIISErr   Damp  Time(sec)
-------------------------------------------------------------------------------------------
               ***  Starting incremental Fock matrix formation  ***
    1    -66.1053674859491025     0.00e+00  4.12e-03  7.63e-02  1.91e-01  0.700   5.1
    2    -66.3009998598531070    -1.96e-01  3.00e-03  5.68e-02  1.11e-01  0.700   3.7
                               ***Turning on AO-DIIS***
    3    -66.3976767901741596    -9.67e-02  1.59e-03  3.47e-02  5.90e-02  0.700   3.4
    4    -66.4546375428220699    -5.70e-02  3.43e-03  7.15e-02  3.57e-02  0.000   3.3
    5    -66.5752774101267732    -1.21e-01  3.02e-04  8.12e-03  7.32e-03  0.000   3.4
                              *** Initializing SOSCF ***
---------------------------------------S-O-S-C-F--------------------------------------
Iteration    Energy (Eh)           Delta-E    RMSDP     MaxDP     MaxGrad    Time(sec)
--------------------------------------------------------------------------------------
    6    -66.5756913699551092    -4.14e-04  1.40e-04  2.31e-03  1.65e-03     3.2
               *** Restarting incremental Fock matrix formation ***
    7    -66.5757079869685526    -1.66e-05  7.36e-05  1.25e-03  2.80e-04     4.9
    8    -66.5757159727549492    -7.99e-06  4.40e-05  8.71e-04  2.69e-04     3.9
    9    -66.5757178942777159    -1.92e-06  1.56e-05  2.38e-04  6.56e-05     4.1
   10    -66.5757181987243598    -3.04e-07  2.71e-06  4.79e-05  1.12e-05     4.3
   11    -66.5757181983440205     3.80e-10  9.53e-07  1.85e-05  6.67e-06     3.6
                 **** Energy Check signals convergence ****

               *****************************************************
               *                     SUCCESS                       *
               *           SCF CONVERGED AFTER  11 CYCLES          *
               *****************************************************

Recomputing exchange energy using gridx3       ... done (    3.916 sec)
Old exchange energy                            :    -10.600645252 Eh
New exchange energy                            :    -10.600637653 Eh
Exchange energy change after final integration :      0.000007599 Eh
Total energy after final integration           :    -66.575710599 Eh
             **** ENERGY FILE WAS UPDATED (./output/camphene/camphene.en.tmp) ****

----------------
TOTAL SCF ENERGY
----------------

Total Energy       :        -66.57571059949845 Eh           -1811.61719 eV

Components:
Nuclear Repulsion  :        308.39660376182752 Eh            8391.89822 eV
Electronic Energy  :       -374.97232196017154 Eh          -10203.51562 eV
One Electron Energy:       -709.24336670007062 Eh          -19299.49318 eV
Two Electron Energy:        334.27104473989908 Eh            9095.97756 eV

Virial components:
Potential Energy   :       -118.62093458928811 Eh           -3227.83973 eV
Kinetic Energy     :         52.04522398978965 Eh            1416.22254 eV
Virial Ratio       :          2.27918962578698

DFT components:
N(Alpha)           :       27.999925046770 electrons
N(Beta)            :       27.999925046770 electrons
N(Total)           :       55.999850093540 electrons
E(X)               :      -10.747441093051 Eh       
E(C)               :       -2.096020327797 Eh       
E(XC)              :      -12.843461420848 Eh       

---------------
SCF CONVERGENCE
---------------

  Last Energy change         ...   -3.8034e-10  Tolerance :   1.0000e-08
  Last MAX-Density change    ...    1.8455e-05  Tolerance :   1.0000e-07
  Last RMS-Density change    ...    9.5329e-07  Tolerance :   5.0000e-09
  Last DIIS Error            ...    1.6506e-03  Tolerance :   5.0000e-07
  Last Orbital Gradient      ...    6.6711e-06  Tolerance :   1.0000e-05
  Last Orbital Rotation      ...    1.2346e-05  Tolerance :   1.0000e-05


----------------
ORBITAL ENERGIES
----------------

  NO   OCC          E(Eh)            E(eV) 
   0   2.0000      -1.032529       -28.0965 
   1   2.0000      -0.927240       -25.2315 
   2   2.0000      -0.888974       -24.1902 
   3   2.0000      -0.848470       -23.0881 
   4   2.0000      -0.815901       -22.2018 
   5   2.0000      -0.808480       -21.9999 
   6   2.0000      -0.752994       -20.4900 
   7   2.0000      -0.689356       -18.7583 
   8   2.0000      -0.675057       -18.3692 
   9   2.0000      -0.616111       -16.7652 
  10   2.0000      -0.611467       -16.6389 
  11   2.0000      -0.595957       -16.2168 
  12   2.0000      -0.556083       -15.1318 
  13   2.0000      -0.549917       -14.9640 
  14   2.0000      -0.529956       -14.4208 
  15   2.0000      -0.514438       -13.9986 
  16   2.0000      -0.499407       -13.5896 
  17   2.0000      -0.493156       -13.4195 
  18   2.0000      -0.483929       -13.1684 
  19   2.0000      -0.464695       -12.6450 
  20   2.0000      -0.453142       -12.3306 
  21   2.0000      -0.448017       -12.1912 
  22   2.0000      -0.436355       -11.8738 
  23   2.0000      -0.430711       -11.7202 
  24   2.0000      -0.417077       -11.3492 
  25   2.0000      -0.402547       -10.9539 
  26   2.0000      -0.397266       -10.8101 
  27   2.0000      -0.337280        -9.1778 
  28   0.0000       0.084695         2.3047 
  29   0.0000       0.091165         2.4807 
  30   0.0000       0.098855         2.6900 
  31   0.0000       0.104025         2.8307 
  32   0.0000       0.113687         3.0936 
  33   0.0000       0.122550         3.3347 
  34   0.0000       0.126336         3.4378 
  35   0.0000       0.137944         3.7537 
  36   0.0000       0.143203         3.8968 
  37   0.0000       0.156500         4.2586 
  38   0.0000       0.169716         4.6182 
*Only the first 10 virtual orbitals were printed.

                    ********************************
                    * MULLIKEN POPULATION ANALYSIS *
                    ********************************

-----------------------
MULLIKEN ATOMIC CHARGES
-----------------------
   0 C :   -0.021635
   1 C :   -0.225424
   2 C :   -0.043849
   3 C :   -0.060900
   4 C :   -0.060228
   5 C :   -0.059245
   6 C :   -0.048992
   7 C :   -0.012547
   8 C :   -0.031444
   9 C :   -0.028925
  10 H :    0.030457
  11 H :    0.035080
  12 H :    0.033996
  13 H :    0.044962
  14 H :    0.043932
  15 H :    0.038813
  16 H :    0.044265
  17 H :    0.046704
  18 H :    0.044570
  19 H :    0.040618
  20 H :    0.039570
  21 H :    0.017808
  22 H :    0.024755
  23 H :    0.038248
  24 H :    0.035350
  25 H :    0.034062
Sum of atomic charges:   -0.0000000

--------------------------------
MULLIKEN REDUCED ORBITAL CHARGES
--------------------------------
  0 C s       :     0.952275  s :     0.952275
      pz      :     0.996619  p :     2.995612
      px      :     0.968804
      py      :     1.030189
      dz2     :     0.019931  d :     0.073748
      dxz     :     0.014526
      dyz     :     0.008702
      dx2y2   :     0.008782
      dxy     :     0.021807

  1 C s       :     1.079694  s :     1.079694
      pz      :     1.024235  p :     3.002140
      px      :     0.979640
      py      :     0.998265
      dz2     :     0.029853  d :     0.143589
      dxz     :     0.033174
      dyz     :     0.023887
      dx2y2   :     0.023479
      dxy     :     0.033195

  2 C s       :     1.037849  s :     1.037849
      pz      :     0.962938  p :     2.884333
      px      :     0.929188
      py      :     0.992206
      dz2     :     0.018794  d :     0.121667
      dxz     :     0.028195
      dyz     :     0.024921
      dx2y2   :     0.022242
      dxy     :     0.027516

  3 C s       :     0.996594  s :     0.996594
      pz      :     1.012404  p :     2.968386
      px      :     0.982892
      py      :     0.973090
      dz2     :     0.020013  d :     0.095921
      dxz     :     0.018432
      dyz     :     0.018501
      dx2y2   :     0.014811
      dxy     :     0.024164

  4 C s       :     1.001439  s :     1.001439
      pz      :     1.003708  p :     2.962764
      px      :     1.009871
      py      :     0.949185
      dz2     :     0.024584  d :     0.096025
      dxz     :     0.009458
      dyz     :     0.021511
      dx2y2   :     0.024097
      dxy     :     0.016376

  5 C s       :     1.031828  s :     1.031828
      pz      :     0.956090  p :     2.900364
      px      :     0.958043
      py      :     0.986231
      dz2     :     0.023329  d :     0.127053
      dxz     :     0.025142
      dyz     :     0.027364
      dx2y2   :     0.023773
      dxy     :     0.027444

  6 C s       :     0.995816  s :     0.995816
      pz      :     0.961489  p :     2.950143
      px      :     1.019200
      py      :     0.969454
      dz2     :     0.015222  d :     0.103033
      dxz     :     0.026197
      dyz     :     0.025482
      dx2y2   :     0.015383
      dxy     :     0.020749

  7 C s       :     1.037410  s :     1.037410
      pz      :     0.939894  p :     2.852638
      px      :     0.930633
      py      :     0.982111
      dz2     :     0.013853  d :     0.122499
      dxz     :     0.016805
      dyz     :     0.023855
      dx2y2   :     0.034151
      dxy     :     0.033835

  8 C s       :     0.968569  s :     0.968569
      pz      :     1.012348  p :     2.999186
      px      :     0.986664
      py      :     1.000174
      dz2     :     0.006901  d :     0.063689
      dxz     :     0.005958
      dyz     :     0.009817
      dx2y2   :     0.019984
      dxy     :     0.021029

  9 C s       :     0.949309  s :     0.949309
      pz      :     0.954625  p :     3.006343
      px      :     1.022204
      py      :     1.029515
      dz2     :     0.018238  d :     0.073273
      dxz     :     0.020723
      dyz     :     0.008384
      dx2y2   :     0.012608
      dxy     :     0.013319

 10 H s       :     0.925353  s :     0.925353
      pz      :     0.021308  p :     0.044190
      px      :     0.011220
      py      :     0.011662

 11 H s       :     0.921559  s :     0.921559
      pz      :     0.011136  p :     0.043361
      px      :     0.016431
      py      :     0.015794

 12 H s       :     0.923021  s :     0.923021
      pz      :     0.009953  p :     0.042983
      px      :     0.012421
      py      :     0.020609

 13 H s       :     0.914655  s :     0.914655
      pz      :     0.011779  p :     0.040383
      px      :     0.010083
      py      :     0.018521

 14 H s       :     0.914078  s :     0.914078
      pz      :     0.010866  p :     0.041990
      px      :     0.015819
      py      :     0.015305

 15 H s       :     0.916878  s :     0.916878
      pz      :     0.020607  p :     0.044309
      px      :     0.012381
      py      :     0.011321

 16 H s       :     0.913431  s :     0.913431
      pz      :     0.009649  p :     0.042304
      px      :     0.022341
      py      :     0.010314

 17 H s       :     0.911256  s :     0.911256
      pz      :     0.021114  p :     0.042040
      px      :     0.008933
      py      :     0.011993

 18 H s       :     0.913971  s :     0.913971
      pz      :     0.011007  p :     0.041460
      px      :     0.012600
      py      :     0.017852

 19 H s       :     0.917479  s :     0.917479
      pz      :     0.010249  p :     0.041903
      px      :     0.019158
      py      :     0.012496

 20 H s       :     0.917399  s :     0.917399
      pz      :     0.016993  p :     0.043031
      px      :     0.014096
      py      :     0.011942

 21 H s       :     0.930769  s :     0.930769
      pz      :     0.016396  p :     0.051423
      px      :     0.024619
      py      :     0.010409

 22 H s       :     0.924180  s :     0.924180
      pz      :     0.014627  p :     0.051065
      px      :     0.016475
      py      :     0.019963

 23 H s       :     0.918788  s :     0.918788
      pz      :     0.009377  p :     0.042964
      px      :     0.010841
      py      :     0.022746

 24 H s       :     0.921094  s :     0.921094
      pz      :     0.010719  p :     0.043556
      px      :     0.019182
      py      :     0.013654

 25 H s       :     0.922111  s :     0.922111
      pz      :     0.017142  p :     0.043826
      px      :     0.016162
      py      :     0.010522



                     *******************************
                     * LOEWDIN POPULATION ANALYSIS *
                     *******************************

----------------------
LOEWDIN ATOMIC CHARGES
----------------------
   0 C :   -0.104046
   1 C :   -0.063649
   2 C :   -0.049007
   3 C :   -0.073379
   4 C :   -0.068724
   5 C :   -0.064812
   6 C :   -0.076614
   7 C :   -0.024807
   8 C :   -0.082229
   9 C :   -0.106559
  10 H :    0.045443
  11 H :    0.048203
  12 H :    0.046693
  13 H :    0.042241
  14 H :    0.046678
  15 H :    0.040343
  16 H :    0.045813
  17 H :    0.045010
  18 H :    0.050503
  19 H :    0.051567
  20 H :    0.045948
  21 H :    0.030263
  22 H :    0.032801
  23 H :    0.047240
  24 H :    0.047846
  25 H :    0.047233

-------------------------------
LOEWDIN REDUCED ORBITAL CHARGES
-------------------------------
  0 C s       :     0.778549  s :     0.778549
      pz      :     1.024894  p :     3.082226
      px      :     0.995294
      py      :     1.062038
      dz2     :     0.067242  d :     0.243271
      dxz     :     0.046267
      dyz     :     0.029092
      dx2y2   :     0.028358
      dxy     :     0.072312

  1 C s       :     0.747780  s :     0.747780
      pz      :     0.964833  p :     2.886212
      px      :     0.954796
      py      :     0.966584
      dz2     :     0.087999  d :     0.429656
      dxz     :     0.098209
      dyz     :     0.071188
      dx2y2   :     0.071989
      dxy     :     0.100271

  2 C s       :     0.758330  s :     0.758330
      pz      :     0.957966  p :     2.907592
      px      :     0.951410
      py      :     0.998216
      dz2     :     0.061889  d :     0.383085
      dxz     :     0.083990
      dyz     :     0.077020
      dx2y2   :     0.072383
      dxy     :     0.087803

  3 C s       :     0.766627  s :     0.766627
      pz      :     1.020649  p :     2.995504
      px      :     0.991056
      py      :     0.983798
      dz2     :     0.065305  d :     0.311248
      dxz     :     0.056271
      dyz     :     0.063143
      dx2y2   :     0.047016
      dxy     :     0.079513

  4 C s       :     0.768181  s :     0.768181
      pz      :     1.013785  p :     2.988872
      px      :     1.019940
      py      :     0.955147
      dz2     :     0.081200  d :     0.311670
      dxz     :     0.029072
      dyz     :     0.069545
      dx2y2   :     0.080413
      dxy     :     0.051441

  5 C s       :     0.748462  s :     0.748462
      pz      :     0.954536  p :     2.921045
      px      :     0.970262
      py      :     0.996247
      dz2     :     0.073965  d :     0.395305
      dxz     :     0.076309
      dyz     :     0.080573
      dx2y2   :     0.072692
      dxy     :     0.091765

  6 C s       :     0.756773  s :     0.756773
      pz      :     0.994921  p :     2.981388
      px      :     1.018476
      py      :     0.967991
      dz2     :     0.053559  d :     0.338454
      dxz     :     0.089111
      dyz     :     0.082423
      dx2y2   :     0.048478
      dxy     :     0.064881

  7 C s       :     0.785455  s :     0.785455
      pz      :     0.860488  p :     2.843950
      px      :     0.963078
      py      :     1.020384
      dz2     :     0.041763  d :     0.395402
      dxz     :     0.054882
      dyz     :     0.074285
      dx2y2   :     0.112923
      dxy     :     0.111549

  8 C s       :     0.825061  s :     0.825061
      pz      :     0.953528  p :     3.044521
      px      :     1.045320
      py      :     1.045673
      dz2     :     0.020410  d :     0.212647
      dxz     :     0.020883
      dyz     :     0.027642
      dx2y2   :     0.070965
      dxy     :     0.072747

  9 C s       :     0.777938  s :     0.777938
      pz      :     0.982169  p :     3.086567
      px      :     1.048921
      py      :     1.055476
      dz2     :     0.060403  d :     0.242054
      dxz     :     0.069028
      dyz     :     0.028492
      dx2y2   :     0.041137
      dxy     :     0.042993

 10 H s       :     0.806520  s :     0.806520
      pz      :     0.062183  p :     0.148037
      px      :     0.042548
      py      :     0.043306

 11 H s       :     0.806863  s :     0.806863
      pz      :     0.041868  p :     0.144934
      px      :     0.052040
      py      :     0.051026

 12 H s       :     0.807818  s :     0.807818
      pz      :     0.039667  p :     0.145489
      px      :     0.044589
      py      :     0.061233

 13 H s       :     0.811376  s :     0.811376
      pz      :     0.046374  p :     0.146383
      px      :     0.039706
      py      :     0.060303

 14 H s       :     0.806920  s :     0.806920
      pz      :     0.042988  p :     0.146402
      px      :     0.051696
      py      :     0.051718

 15 H s       :     0.808735  s :     0.808735
      pz      :     0.062280  p :     0.150922
      px      :     0.045386
      py      :     0.043256

 16 H s       :     0.808025  s :     0.808025
      pz      :     0.039657  p :     0.146162
      px      :     0.066767
      py      :     0.039738

 17 H s       :     0.809159  s :     0.809159
      pz      :     0.063403  p :     0.145831
      px      :     0.038706
      py      :     0.043722

 18 H s       :     0.807291  s :     0.807291
      pz      :     0.041649  p :     0.142206
      px      :     0.043113
      py      :     0.057443

 19 H s       :     0.806341  s :     0.806341
      pz      :     0.038209  p :     0.142092
      px      :     0.059215
      py      :     0.044668

 20 H s       :     0.807452  s :     0.807452
      pz      :     0.052708  p :     0.146599
      px      :     0.049839
      py      :     0.044052

 21 H s       :     0.815403  s :     0.815403
      pz      :     0.049884  p :     0.154334
      px      :     0.067073
      py      :     0.037377

 22 H s       :     0.812905  s :     0.812905
      pz      :     0.046930  p :     0.154294
      px      :     0.051141
      py      :     0.056222

 23 H s       :     0.807581  s :     0.807581
      pz      :     0.037960  p :     0.145179
      px      :     0.041827
      py      :     0.065392

 24 H s       :     0.806481  s :     0.806481
      pz      :     0.039587  p :     0.145673
      px      :     0.058759
      py      :     0.047327

 25 H s       :     0.805752  s :     0.805752
      pz      :     0.052787  p :     0.147016
      px      :     0.053369
      py      :     0.040860



                      *****************************
                      * MAYER POPULATION ANALYSIS *
                      *****************************

  NA   - Mulliken gross atomic population
  ZA   - Total nuclear charge
  QA   - Mulliken gross atomic charge
  VA   - Mayer's total valence
  BVA  - Mayer's bonded valence
  FA   - Mayer's free valence

  ATOM       NA         ZA         QA         VA         BVA        FA
  0 C      4.0216     4.0000    -0.0216     3.9565     3.9565     0.0000
  1 C      4.2254     4.0000    -0.2254     4.1282     4.1282     0.0000
  2 C      4.0438     4.0000    -0.0438     3.9568     3.9568    -0.0000
  3 C      4.0609     4.0000    -0.0609     3.9747     3.9747    -0.0000
  4 C      4.0602     4.0000    -0.0602     3.9625     3.9625    -0.0000
  5 C      4.0592     4.0000    -0.0592     4.0079     4.0079    -0.0000
  6 C      4.0490     4.0000    -0.0490     3.9518     3.9518     0.0000
  7 C      4.0125     4.0000    -0.0125     4.0676     4.0676     0.0000
  8 C      4.0314     4.0000    -0.0314     4.0008     4.0008    -0.0000
  9 C      4.0289     4.0000    -0.0289     3.9551     3.9551     0.0000
 10 H      0.9695     1.0000     0.0305     1.0317     1.0317     0.0000
 11 H      0.9649     1.0000     0.0351     1.0248     1.0248    -0.0000
 12 H      0.9660     1.0000     0.0340     1.0252     1.0252     0.0000
 13 H      0.9550     1.0000     0.0450     1.0211     1.0211    -0.0000
 14 H      0.9561     1.0000     0.0439     1.0154     1.0154    -0.0000
 15 H      0.9612     1.0000     0.0388     1.0229     1.0229     0.0000
 16 H      0.9557     1.0000     0.0443     1.0182     1.0182    -0.0000
 17 H      0.9533     1.0000     0.0467     1.0196     1.0196    -0.0000
 18 H      0.9554     1.0000     0.0446     1.0263     1.0263    -0.0000
 19 H      0.9594     1.0000     0.0406     1.0277     1.0277     0.0000
 20 H      0.9604     1.0000     0.0396     1.0258     1.0258     0.0000
 21 H      0.9822     1.0000     0.0178     1.0372     1.0372    -0.0000
 22 H      0.9752     1.0000     0.0248     1.0415     1.0415    -0.0000
 23 H      0.9618     1.0000     0.0382     1.0227     1.0227     0.0000
 24 H      0.9647     1.0000     0.0353     1.0245     1.0245    -0.0000
 25 H      0.9659     1.0000     0.0341     1.0262     1.0262     0.0000

  Mayer bond orders larger than 0.100000
B(  0-C ,  1-C ) :   1.0085 B(  0-C , 10-H ) :   0.9942 B(  0-C , 11-H ) :   0.9929 
B(  0-C , 12-H ) :   0.9919 B(  1-C ,  2-C ) :   0.9766 B(  1-C ,  7-C ) :   1.0065 
B(  1-C ,  9-C ) :   1.0069 B(  2-C ,  3-C ) :   0.9981 B(  2-C ,  6-C ) :   0.9866 
B(  2-C , 13-H ) :   1.0026 B(  3-C ,  4-C ) :   0.9721 B(  3-C , 14-H ) :   1.0023 
B(  3-C , 15-H ) :   1.0054 B(  4-C ,  5-C ) :   0.9752 B(  4-C , 16-H ) :   1.0013 
B(  4-C , 17-H ) :   1.0020 B(  5-C ,  6-C ) :   0.9765 B(  5-C ,  7-C ) :   1.0181 
B(  5-C , 18-H ) :   1.0014 B(  6-C , 19-H ) :   0.9990 B(  6-C , 20-H ) :   1.0032 
B(  7-C ,  8-C ) :   1.9694 B(  8-C , 21-H ) :   0.9846 B(  8-C , 22-H ) :   0.9800 
B(  9-C , 23-H ) :   0.9915 B(  9-C , 24-H ) :   0.9947 B(  9-C , 25-H ) :   0.9935 


-------
TIMINGS
-------

Total SCF time: 0 days 0 hours 0 min 51 sec 

Total time                  ....      51.148 sec
Sum of individual times     ....      49.203 sec  ( 96.2%)

SCF preparation             ....       2.475 sec  (  4.8%)
Fock matrix formation       ....      45.701 sec  ( 89.4%)
  Startup                   ....       0.262 sec  (  0.6% of F)
  Split-RI-J                ....       1.365 sec  (  3.0% of F)
  Chain of spheres X        ....      21.262 sec  ( 46.5% of F)
  XC integration            ....      22.288 sec  ( 48.8% of F)
    XC Preparation          ....       0.000 sec  (  0.0% of XC)
    Basis function eval.    ....       0.446 sec  (  2.0% of XC)
    Density eval.           ....       0.219 sec  (  1.0% of XC)
    XC-Functional eval.     ....       0.141 sec  (  0.6% of XC)
    XC-Potential eval.      ....       0.328 sec  (  1.5% of XC)
Diagonalization             ....       0.000 sec  (  0.0%)
Density matrix formation    ....       0.195 sec  (  0.4%)
Total Energy calculation    ....       0.194 sec  (  0.4%)
Population analysis         ....       0.050 sec  (  0.1%)
Orbital Transformation      ....       0.055 sec  (  0.1%)
Orbital Orthonormalization  ....       0.000 sec  (  0.0%)
DIIS solution               ....       0.385 sec  (  0.8%)
SOSCF solution              ....       0.149 sec  (  0.3%)
Finished LeanSCF after  51.2 sec

Maximum memory used throughout the entire LEANSCF-calculation: 39.2 MB


           ************************************************************
           *        Program running with 40 parallel MPI-processes    *
           *              working on a common directory               *
           ************************************************************

------------------------------------------------------------------------------
                         ORCA PROPERTY INTEGRAL CALCULATIONS
------------------------------------------------------------------------------

GBWName                                   ... ./output/camphene/camphene.gbw
Number of atoms                           ...     26
Number of basis functions                 ...    210
Max core memory                           ...   1024 MB

Dipole integrals                          ... YES
Quadrupole integrals                      ...  NO
Linear momentum integrals                 ...  NO
Angular momentum integrals                ...  NO
Higher moments length integrals           ...  NO
Higher moments velocity integrals         ...  NO
Kinetic energy integrals                  ...  NO
GIAO right hand sides                     ...  NO
GIAO dipole derivative integrals          ...  NO
SOC integrals                             ...  NO
EPR diamagnetic integrals (GIAO)          ...  NO
EPR gauge integrals                       ...  NO
Field gradient integrals                  ...  NO (   0 nuclei)
Spin-dipole/Fermi contact integrals       ...  NO (   0 nuclei)
Contact density integrals                 ...  NO (   0 nuclei)
Nucleus-orbit integrals                   ...  NO (   0 nuclei)
Geometric perturbations                   ...  NO (  26 nuclei)

Choice of electric origin   ... Center of mass
Position of electric origin ... ( -0.1534,  0.1238,  0.0660) 
Choice of magnetic origin   ... GIAO
Position of magnetic origin ... (  0.0000,  0.0000,  0.0000) 

Calculating integrals                     ... Electric Dipole (Length)     done (  0.0 sec)

Property integrals calculated in   0.0 sec

Maximum memory used throughout the entire PROPINT-calculation: 17.1 MB


-------------------------------------------------------------------------------
                          DFT DISPERSION CORRECTION                            
                                                                               
                                DFTD4 V3.4.0                                   
-------------------------------------------------------------------------------
The wB97X-3c composite method is recognized
Using three-body term ABC
Active option DFTDOPT                   ...         5   

-------------------------   ----------------
Dispersion correction           -0.034039985
-------------------------   ----------------


[...]
 20:    732.80   0.000148    0.75  0.000063  (-0.002031 -0.000304 -0.007661)
 21:    781.13   0.000383    1.93  0.000153  ( 0.001947 -0.000163  0.012209)
 22:    797.72   0.000292    1.47  0.000114  (-0.007562  0.000734  0.007511)
 23:    843.53   0.000388    1.96  0.000144  (-0.007975 -0.003638  0.008165)
 24:    865.52   0.000102    0.52  0.000037  ( 0.003547  0.000546  0.004902)
 25:    923.50   0.001433    7.24  0.000484  ( 0.006265  0.000478  0.021085)
 26:    930.02   0.006680   33.76  0.002242  (-0.015067 -0.011317 -0.043433)
 27:    937.04   0.000894    4.52  0.000298  (-0.009704  0.014263  0.000533)
 28:    957.27   0.000046    0.23  0.000015  (-0.003800  0.000535 -0.000418)
 29:    974.82   0.000235    1.19  0.000075  ( 0.000499  0.003323  0.008004)
 30:    980.64   0.000168    0.85  0.000053  ( 0.003398  0.003634  0.005360)
 31:    992.76   0.000133    0.67  0.000042  ( 0.005687  0.001790 -0.002524)
 32:   1002.17   0.000365    1.85  0.000114  (-0.007997 -0.006787  0.001939)
 33:   1017.94   0.000574    2.90  0.000176  ( 0.010440  0.007982  0.001840)
 34:   1039.68   0.000004    0.02  0.000001  (-0.000916  0.000607  0.000205)
 35:   1063.40   0.000078    0.40  0.000023  (-0.003568  0.002546 -0.001931)
 36:   1091.57   0.000290    1.46  0.000083  ( 0.005846  0.003116  0.006244)
 37:   1143.00   0.000578    2.92  0.000158  ( 0.006992 -0.010421 -0.000514)
 38:   1165.05   0.001341    6.78  0.000359  ( 0.009499  0.009033 -0.013690)
 39:   1207.00   0.000360    1.82  0.000093  (-0.003478  0.008866  0.001563)
 40:   1232.80   0.000754    3.81  0.000191  (-0.012332 -0.004348 -0.004462)
 41:   1247.97   0.000051    0.26  0.000013  (-0.001175  0.003360 -0.000098)
 42:   1268.06   0.000309    1.56  0.000076  ( 0.004020  0.005757 -0.005178)
 43:   1270.17   0.000156    0.79  0.000038  (-0.005108 -0.002945  0.001867)
 44:   1303.01   0.000049    0.25  0.000012  ( 0.001139 -0.002167  0.002372)
 45:   1310.23   0.000051    0.26  0.000012  ( 0.003242  0.000661 -0.001081)
 46:   1316.84   0.000123    0.62  0.000029  ( 0.002333 -0.004862 -0.000345)
 47:   1349.10   0.000137    0.69  0.000032  ( 0.000250 -0.004404 -0.003511)
 48:   1366.32   0.000415    2.10  0.000095  ( 0.008980 -0.003751 -0.000067)
 49:   1376.72   0.000410    2.07  0.000093  (-0.000948 -0.003895 -0.008767)
 50:   1395.34   0.000120    0.61  0.000027  (-0.004880 -0.000969  0.001452)
 51:   1431.74   0.002344   11.85  0.000511  (-0.005593 -0.004919 -0.021341)
 52:   1448.14   0.001767    8.93  0.000381  (-0.018605  0.002728  0.005206)
 53:   1476.81   0.001597    8.07  0.000338  (-0.010013 -0.014109  0.006181)
 54:   1510.00   0.000206    1.04  0.000043  (-0.004134 -0.004045 -0.003007)
 55:   1513.12   0.000329    1.66  0.000068  (-0.000798  0.004673 -0.006735)
 56:   1523.04   0.001409    7.12  0.000289  (-0.004623  0.013715 -0.008899)
 57:   1530.90   0.001299    6.56  0.000265  ( 0.014295  0.005422  0.005565)
 58:   1536.58   0.002177   11.00  0.000442  (-0.003343 -0.014328 -0.015022)
 59:   1541.52   0.002715   13.72  0.000550  ( 0.009734  0.007932 -0.019798)
 60:   1562.78   0.001324    6.69  0.000264  ( 0.015905  0.000950  0.003247)
 61:   1791.41   0.006426   32.48  0.001119  ( 0.011414  0.030149 -0.008956)
 62:   3096.73   0.004745   23.98  0.000478  (-0.001559  0.006888  0.020696)
 63:   3101.34   0.007758   39.20  0.000781  ( 0.026462 -0.008842  0.001483)
 64:   3117.28   0.004493   22.71  0.000450  (-0.014358  0.013935 -0.007032)
 65:   3126.53   0.005579   28.20  0.000557  (-0.007980 -0.001345  0.022167)
 66:   3129.99   0.009660   48.82  0.000963  (-0.024384 -0.014095 -0.013031)
 67:   3153.70   0.010451   52.82  0.001034  ( 0.004349 -0.030227  0.010081)
 68:   3173.20   0.004298   21.72  0.000423  ( 0.013209 -0.015238 -0.004007)
 69:   3176.48   0.002958   14.95  0.000291  ( 0.014379  0.002536 -0.008797)
 70:   3181.16   0.001029    5.20  0.000101  (-0.002570 -0.009258  0.002932)
 71:   3186.96   0.004481   22.64  0.000439  ( 0.000924 -0.020683  0.003179)
 72:   3193.04   0.002630   13.29  0.000257  ( 0.004006  0.010219  0.011686)
 73:   3195.60   0.006320   31.94  0.000617  ( 0.022324  0.004997 -0.009687)
 74:   3202.23   0.002109   10.66  0.000206  ( 0.005048  0.012797 -0.004036)
 75:   3208.37   0.004504   22.76  0.000438  ( 0.011143  0.001180  0.017679)
 76:   3210.82   0.002900   14.66  0.000282  (-0.007306  0.005030  0.014255)
 77:   3294.56   0.001225    6.19  0.000116  ( 0.009442 -0.004771 -0.002017)

* The epsilon (eps) is given for a Dirac delta lineshape.
** The dipole moment derivative (T) already includes vibrational overlap.

The first frequency considered to be a vibration is 6
The total number of vibrations considered is 72


--------------------------
THERMOCHEMISTRY AT 298.15K
--------------------------

Temperature         ...   298.15 K
Pressure            ...     1.00 atm
Total Mass          ...   136.24 AMU
Quasi RRHO          ...     True
Cut-Off Frequency   ...     1.00 cm^-1

Throughout the following assumptions are being made:
  (1) The electronic state is orbitally nondegenerate
  (2) There are no thermally accessible electronically excited states
  (3) Hindered rotations indicated by low frequency modes are not
      treated as such but are treated as vibrations and this may
      cause some error
  (4) All equations used are the standard statistical mechanics
      equations for an ideal gas
  (5) All vibrations are strictly harmonic

freq.      97.86  E(vib)   ...       0.46 
freq.     203.63  E(vib)   ...       0.35 
freq.     228.53  E(vib)   ...       0.32 
freq.     243.72  E(vib)   ...       0.31 
freq.     263.97  E(vib)   ...       0.29 
freq.     285.91  E(vib)   ...       0.27 
freq.     329.43  E(vib)   ...       0.24 
freq.     386.72  E(vib)   ...       0.20 
freq.     429.01  E(vib)   ...       0.18 
freq.     445.23  E(vib)   ...       0.17 
freq.     470.29  E(vib)   ...       0.16 
freq.     535.56  E(vib)   ...       0.12 
freq.     662.79  E(vib)   ...       0.08 
freq.     703.78  E(vib)   ...       0.07 
freq.     732.80  E(vib)   ...       0.06 
freq.     781.13  E(vib)   ...       0.05 
freq.     797.72  E(vib)   ...       0.05 
freq.     843.53  E(vib)   ...       0.04 
freq.     865.52  E(vib)   ...       0.04 
freq.     923.50  E(vib)   ...       0.03 
freq.     930.02  E(vib)   ...       0.03 
freq.     937.04  E(vib)   ...       0.03 
freq.     957.27  E(vib)   ...       0.03 
freq.     974.82  E(vib)   ...       0.03 
freq.     980.64  E(vib)   ...       0.02 
freq.     992.76  E(vib)   ...       0.02 
freq.    1002.17  E(vib)   ...       0.02 
freq.    1017.94  E(vib)   ...       0.02 
freq.    1039.68  E(vib)   ...       0.02 
freq.    1063.40  E(vib)   ...       0.02 
freq.    1091.57  E(vib)   ...       0.02 
freq.    1143.00  E(vib)   ...       0.01 
freq.    1165.05  E(vib)   ...       0.01 
freq.    1207.00  E(vib)   ...       0.01 
freq.    1232.80  E(vib)   ...       0.01 
freq.    1247.97  E(vib)   ...       0.01 
freq.    1268.06  E(vib)   ...       0.01 
freq.    1270.17  E(vib)   ...       0.01 
freq.    1303.01  E(vib)   ...       0.01 
freq.    1310.23  E(vib)   ...       0.01 
freq.    1316.84  E(vib)   ...       0.01 
freq.    1349.10  E(vib)   ...       0.01 
freq.    1366.32  E(vib)   ...       0.01 
freq.    1376.72  E(vib)   ...       0.01 
freq.    1395.34  E(vib)   ...       0.00 
freq.    1431.74  E(vib)   ...       0.00 
freq.    1448.14  E(vib)   ...       0.00 
freq.    1476.81  E(vib)   ...       0.00 
freq.    1510.00  E(vib)   ...       0.00 
freq.    1513.12  E(vib)   ...       0.00 
freq.    1523.04  E(vib)   ...       0.00 
freq.    1530.90  E(vib)   ...       0.00 
freq.    1536.58  E(vib)   ...       0.00 
freq.    1541.52  E(vib)   ...       0.00 
freq.    1562.78  E(vib)   ...       0.00 
freq.    1791.41  E(vib)   ...       0.00 
freq.    3096.73  E(vib)   ...       0.00 
freq.    3101.34  E(vib)   ...       0.00 
freq.    3117.28  E(vib)   ...       0.00 
freq.    3126.53  E(vib)   ...       0.00 
freq.    3129.99  E(vib)   ...       0.00 
freq.    3153.70  E(vib)   ...       0.00 
freq.    3173.20  E(vib)   ...       0.00 
freq.    3176.48  E(vib)   ...       0.00 
freq.    3181.16  E(vib)   ...       0.00 
freq.    3186.96  E(vib)   ...       0.00 
freq.    3193.04  E(vib)   ...       0.00 
freq.    3195.60  E(vib)   ...       0.00 
freq.    3202.23  E(vib)   ...       0.00 
freq.    3208.37  E(vib)   ...       0.00 
freq.    3210.82  E(vib)   ...       0.00 
freq.    3294.56  E(vib)   ...       0.00 

------------
INNER ENERGY
------------

The inner energy is: U= E(el) + E(ZPE) + E(vib) + E(rot) + E(trans)
    E(el)   - is the total energy from the electronic structure calculation
              = E(kin-el) + E(nuc-el) + E(el-el) + E(nuc-nuc)
    E(ZPE)  - the the zero temperature vibrational energy from the frequency calculation
    E(vib)  - the the finite temperature correction to E(ZPE) due to population
              of excited vibrational states
    E(rot)  - is the rotational thermal energy
    E(trans)- is the translational thermal energy

Summary of contributions to the inner energy U:
Electronic energy                ...    -66.61704249 Eh
Zero point energy                ...      0.24327097 Eh     152.65 kcal/mol
Thermal vibrational correction   ...      0.00623575 Eh       3.91 kcal/mol
Thermal rotational correction    ...      0.00141627 Eh       0.89 kcal/mol
Thermal translational correction ...      0.00141627 Eh       0.89 kcal/mol
-----------------------------------------------------------------------
Total thermal energy                    -66.36470324 Eh


Summary of corrections to the electronic energy:
(perhaps to be used in another calculation)
Total thermal correction                  0.00906829 Eh       5.69 kcal/mol
Non-thermal (ZPE) correction              0.24327097 Eh     152.65 kcal/mol
-----------------------------------------------------------------------
Total correction                          0.25233926 Eh     158.34 kcal/mol


--------
ENTHALPY
--------

The enthalpy is H = U + kB*T
                kB is Boltzmann's constant
Total thermal energy              ...    -66.36470324 Eh 
Thermal Enthalpy correction       ...      0.00094421 Eh       0.59 kcal/mol
-----------------------------------------------------------------------
Total Enthalpy                    ...    -66.36375903 Eh


Note: Only C1 symmetry has been detected, increase convergence thresholds 
      if your molecule has a higher symmetry. Symmetry factor of 1.0 is   
      used for the rotational entropy correction. 
 

Note: Rotational entropy computed according to Herzberg 
Infrared and Raman Spectra, Chapter V,1, Van Nostrand Reinhold, 1945 
Point Group:  C1, Symmetry Number:   1  
Rotational constants in cm-1:     0.062419     0.047528     0.041286 

Vibrational entropy computed according to the QRRHO of S. Grimme
Chem.Eur.J. 2012 18 9955 using a reference frequency of 100.0 cm-1


-------
ENTROPY
-------

The entropy contributions are T*S = T*(S(el)+S(vib)+S(rot)+S(trans))
     S(el)   - electronic entropy
     S(vib)  - vibrational entropy
     S(rot)  - rotational entropy
     S(trans)- translational entropy
The entropies will be listed as multiplied by the temperature to get
units of energy

Electronic entropy                ...      0.00000000 Eh      0.00 kcal/mol
Vibrational entropy               ...      0.00987843 Eh      6.20 kcal/mol
Rotational entropy                ...      0.01376319 Eh      8.64 kcal/mol
Translational entropy             ...      0.01930920 Eh     12.12 kcal/mol
-----------------------------------------------------------------------
Final entropy term                ...      0.04295083 Eh     26.95 kcal/mol

In case the symmetry of your molecule has not been determined correctly
or in case you have a reason to use a different symmetry number we print 
out the resulting rotational entropy values for sn=1,12:

 non-linear molecules -----------------------------------
|  sn= 1 | S(rot)=       0.01376319 Eh      8.64 kcal/mol|
|  sn= 2 | S(rot)=       0.01310874 Eh      8.23 kcal/mol|
|  sn= 3 | S(rot)=       0.01272590 Eh      7.99 kcal/mol|
|  sn= 4 | S(rot)=       0.01245428 Eh      7.82 kcal/mol|
|  sn= 5 | S(rot)=       0.01224359 Eh      7.68 kcal/mol|
|  sn= 6 | S(rot)=       0.01207145 Eh      7.57 kcal/mol|
|  sn= 7 | S(rot)=       0.01192590 Eh      7.48 kcal/mol|
|  sn= 8 | S(rot)=       0.01179982 Eh      7.40 kcal/mol|
|  sn= 9 | S(rot)=       0.01168861 Eh      7.33 kcal/mol|
|  sn=10 | S(rot)=       0.01158914 Eh      7.27 kcal/mol|
|  sn=11 | S(rot)=       0.01149915 Eh      7.22 kcal/mol|
|  sn=12 | S(rot)=       0.01141699 Eh      7.16 kcal/mol|
 linear molecules ---------------------------------------
|  Dinfh | S(rot)=       0.00833514 Eh      5.23 kcal/mol|
|  Cinfv | S(rot)=       0.00898959 Eh      5.64 kcal/mol|
 --------------------------------------------------------


-------------------
GIBBS FREE ENERGY
-------------------

The Gibbs free energy is G = H - T*S

Total enthalpy                    ...    -66.36375903 Eh 
Total entropy correction          ...     -0.04295083 Eh    -26.95 kcal/mol
-----------------------------------------------------------------------
Final Gibbs free energy         ...    -66.40670985 Eh

For completeness - the Gibbs free energy minus the electronic energy
G-E(el)                           ...      0.21033264 Eh    131.99 kcal/mol


Maximum memory used throughout the entire PROP-calculation: 113.7 MB

--------------------------------
SUGGESTED CITATIONS FOR THIS RUN
--------------------------------

Below you find a list of papers that are relevant to this ORCA run
We neither can nor want to force you to cite these papers, but we appreciate if you do
You receive ORCA, which is the product of decades of hard work by many enthusiastic individuals, for free
The only thing we kindly ask in return is that you cite our papers,
We deeply appreciate it, if you show your appreciation for ORCA by not just citing the generic ORCA reference.

Please note that relegating all ORCA citations to the supporting information does *not* help us.
SI sections are not indexed - citations you put there will not count into any citation statistics
But we need these citations in order to attract the funding resources that allow us to do what we are doing

Therefore, if you are a happy ORCA user, please consider citing a few of the papers listed below in the main body of your paper

In addition to the list printed below, the program has created the file ./output/camphene/camphene.bibtex that contains the list in bibtex format
You can import this file easily into all common literature databanks and citation aid programs


List of essential papers. We consider these as the minimum necessary citations

  1. Neese,F.
     Software update: the ORCA program system, version 5.0
     WIRES Comput. Molec. Sci., 2022 12(1)e1606
     doi.org/10.1002/wcms.1606
  2. Mueller,M.; Hansen,A.; Grimme,S.
     wB97X-3c: A composite range-separated hybrid DFT method with a molecule-optimized polarized valence double-zeta basis set
     J. Chem. Phys., 2023 158 014103
     doi.org/10.1063/5.0133026

List of papers to cite with high priority. The work reported in these papers was absolutely
necessary for this run to complete.
Our perspective: the developers of density functionals and basis sets usually get cited in chemistry papers
Good! But without the algorithms to do something with them, the functionals or basis sets would not do anything.
Hence, in our opinion, the algorithm design and method developments papers are equally worthy of getting cited

  1. Neese,F.
     An improvement of the resolution of the identity approximation for the formation of the Coulomb matrix
     J. Comp. Chem., 2003 24(14)1740-1747
     doi.org/10.1002/jcc.10318
  2. Neese,F.; Wennmohs,F.; Hansen,A.; Becker,U.
     Efficient, approximate and parallel Hartree-Fock and hybrid DFT calculations. A 'chain-of-spheres' algorithm for the Hartree-Fock exchange
     Chem. Phys., 2009 356(1-3)98-109
     doi.org/10.1016/j.chemphys.2008.10.036
  3. Bykov,D.; Petrenko,T.; Izsak,R.; Kossmann,S.; Becker,U.; Valeev,E.; Neese,F.
     Efficient implementation of the analytic second derivatives of Hartree-Fock and hybrid DFT energies: a detailed analysis of different approximations
     Molec. Phys., 2015 113 1961-1977
     doi.org/10.1080/00268976.2015.1025114
  4. Helmich-Paris,B.; de Souza,B.; Neese,F.; Izsák,R.
     An improved chain of spheres for exchange algorithm
     J. Chem. Phys., 2021 155 104109
     doi.org/doi: 10.1063/5.0058766.
  5. Neese,F.
     The SHARK Integral Generation and Digestion System
     J. Comp. Chem., 2022  1-16
     doi.org/10.1002/jcc.26942
  6. Caldeweyher,E.; Bannwarth,C.; Grimme,S.
     Extension of the D3 dispersion coefficient model
     J. Chem. Phys., 2017 147 034112
     doi.org/10.1063/1.4993215
  7. Caldeweyher,E.; Ehlert,S.; Hansen,A.; Neugebauer,H.; Spicher,S.; Bannwarth,C.; Grimme,S.
     A generally applicable atomic-charge dependent London dispersion correction
     J. Chem. Phys., 2019 150 154122
     doi.org/10.1063/1.5090222
  8. Caldeweyher,E.; Mewes,J.; Ehlert,S.; Grimme,S.
     Extension and evaluation of the D4 London-dispersion model for periodic systems
     Phys. Chem. Chem. Phys., 2020 22(16)8499-8512
     doi.org/10.1039/D0CP00502A
  9. Wittmann,L.; Gordiy,I.; Friede,M.; Helmich-Paris,B.; Grimme,S.; Hansen,A.; Bursch,M.
     Extension of the D3 and D4 London Dispersion Corrections to the full Actinides Series
     Phys. Chem. Chem. Phys., 2024 26(32)21379-21394
     doi.org/https://doi.org/10.1039/D4CP01514B 

List of suggested additional citations. These are papers that are important in the 'surrounding' of 
of this run, or papers that preceded the highly important papers. If you like your results we are grateful for a citation.

  1. Izsak,R.; Neese,F.
     An overlap fitted chain of spheres exchange method
     J. Chem. Phys., 2011 135 144105
     doi.org/10.1063/1.3646921
  2. Izsak,R.; Hansen,A.; Neese,F.
     The resolution of identity and chain of spheres approximations for the LPNO-CCSD singles Fock term
     Molec. Phys., 2012 110 2413-2417
     doi.org/10.1080/00268976.2012.687466
  3. Neese,F.
     The ORCA program system
     WIRES Comput. Molec. Sci., 2012 2(1)73-78
     doi.org/10.1002/wcms.81
  4. Izsak,R.; Neese,F.; Klopper,W.
     Robust fitting techniques in the chain of spheres approximation to the Fock exchange: The role of the complementary space
     J. Chem. Phys., 2013 139 
     doi.org/10.1063/1.4819264
  5. Neese,F.
     Software update: the ORCA program system, version 4.0
     WIRES Comput. Molec. Sci., 2018 8(1)1-6
     doi.org/10.1002/wcms.1327
  6. Neese,F.; Wennmohs,F.; Becker,U.; Riplinger,C.
     The ORCA quantum chemistry program package
     J. Chem. Phys., 2020 152 Art. No. L224108
     doi.org/10.1063/5.0004608

List of optional additional citations

  1. Neese,F.
     Approximate second-order SCF convergence for spin unrestricted wavefunctions
     Chem. Phys. Lett., 2000 325(1-3)93-98
     doi.org/10.1016/s0009-2614(00)00662-x

Timings for individual modules:

Sum of individual times          ...      493.409 sec (=   8.223 min)
Startup calculation              ...       21.883 sec (=   0.365 min)   4.4 %
SCF iterations                   ...      244.986 sec (=   4.083 min)  49.7 %
Property integrals               ...       48.852 sec (=   0.814 min)   9.9 %
SCF Response                     ...       34.869 sec (=   0.581 min)   7.1 %
Property calculations            ...       91.278 sec (=   1.521 min)  18.5 %
SCF Gradient evaluation          ...       51.432 sec (=   0.857 min)  10.4 %
Geometry relaxation              ...        0.109 sec (=   0.002 min)   0.0 %
                             ****ORCA TERMINATED NORMALLY****
TOTAL RUN TIME: 0 days 0 hours 8 minutes 16 seconds 386 msec
