
                                 *****************
                                 * O   R   C   A *
                                 *****************

                                            #,                                       
                                            ###                                      
                                            ####                                     
                                            #####                                    
                                            ######                                   
                                           ########,                                 
                                     ,,################,,,,,                         
                               ,,#################################,,                 
                          ,,##########################################,,             
                       ,#########################################, ''#####,          
                    ,#############################################,,   '####,        
                  ,##################################################,,,,####,       
                ,###########''''           ''''###############################       
              ,#####''   ,,,,##########,,,,          '''####'''          '####       
            ,##' ,,,,###########################,,,                        '##       
           ' ,,###''''                  '''############,,,                           
         ,,##''                                '''############,,,,        ,,,,,,###''
      ,#''                                            '''#######################'''  
     '                                                          ''''####''''         
             ,#######,   #######,   ,#######,      ##                                
            ,#'     '#,  ##    ##  ,#'     '#,    #''#        ,####,   ,####,        
            ##       ##  ##   ,#'  ##            #'  '#       #'       #'  '#        
            ##       ##  #######   ##           ,######,      #####,   #    #        
            '#,     ,#'  ##    ##  '#,     ,#' ,#      #,     #,   #   #,  ,#        
             '#######'   ##     ##  '#######'  #'      '#     '####' # '####'        



                #########################################################
                #                        -***-                          #
                #          Department of theory and spectroscopy        #
                #                                                       #
                #                      Frank Neese                      #
                #                                                       #
                #     Directorship, Architecture, Infrastructure        #
                #                    SHARK, DRIVERS                     #
                #        Core code/Algorithms in most modules           #
                #                                                       #
                #        Max Planck Institute fuer Kohlenforschung      #
                #                Kaiser Wilhelm Platz 1                 #
                #                 D-45470 Muelheim/Ruhr                 #
                #                      Germany                          #
                #                                                       #
                #                  All rights reserved                  #
                #                        -***-                          #
                #########################################################


                         Program Version 6.0.1  -  RELEASE   -


 With contributions from (in alphabetic order):
[Max-Planck-Institut fuer Kohlenforschung]                               
  Daniel Aravena         : Magnetic Suceptibility                        
  Michael Atanasov       : Ab Initio Ligand Field Theory (pilot matlab implementation)
  Alexander A. Auer      : GIAO ZORA, VPT2 properties, NMR spectrum      
  Ute Becker             : All parallelization in ORCA, NUMFREQ, NUMCALC 
  Giovanni Bistoni       : ED, misc. LED, open-shell LED, HFLD           
  Martin Brehm           : Molecular dynamics                            
  Dmytro Bykov           : pre 5.0 version of the SCF Hessian            
  Marcos Casanova-Páez   : Triplet and SCS-CIS(D). UHF-(DLPNO)-IP/EA/STEOM-CCSD. UHF-CVS-IP/STEOM-CCSD   
  Vijay G. Chilkuri      : MRCI spin determinant printing, contributions to CSF-ICE 
  Pauline Colinet        : FMM embedding                                 
  Dipayan Datta          : RHF DLPNO-CCSD density                        
  Achintya Kumar Dutta   : EOM-CC, STEOM-CC                              
  Nicolas Foglia         : Exact transition moments, OPA infrastructure, MCD improvements    
  Dmitry Ganyushin       : Spin-Orbit,Spin-Spin,Magnetic field MRCI      
  Miquel Garcia-Rates    : C-PCM and meta-GGA Hessian, CCSD/C-PCM, Gaussian charge scheme 
  Tiago L. C. Gouveia    : GS-ROHF, GS-ROCIS                             
  Yang Guo               : DLPNO-NEVPT2, F12-NEVPT2, CIM, IAO-localization        
  Andreas Hansen         : Spin unrestricted coupled pair/coupled cluster methods 
  Ingolf Harden          : AUTO-CI MPn and infrastructure                
  Benjamin Helmich-Paris : MC-RPA, TRAH-(SCF,CASSCF), AVAS, COSX integrals, SCF dyn. polar. 
  Lee Huntington         : MR-EOM, pCC                                   
  Robert Izsak           : Overlap fitted RIJCOSX, COSX-SCS-MP3, EOM     
  Riya Kayal             : Wick's Theorem for AUTO-CI, AUTO-CI UHF-CCSDT 
  Emily Kempfer          : AUTO-CI, RHF CISDT and CCSDT                  
  Christian Kollmar      : KDIIS, OOCD, Brueckner-CCSD(T), CCSD density, CASPT2, CASPT2-K, improved NEVPT2 
  Axel Koslowski         : Symmetry handling                             
  Simone Kossmann        : meta-GGA functionals, TD-DFT gradient, OOMP2, (MP2 Hessian; deprecated post 5.0) 
  Lucas Lang             : DCDCAS                                        
  Marvin Lechner         : AUTO-CI (C++ implementation), FIC-MRCC        
  Spencer Leger          : CASSCF response                               
  Dagmar Lenk            : GEPOL surface, SMD, ORCA-2-JSON               
  Dimitrios Liakos       : Extrapolation schemes; Compound Job, initial MDCI parallelization 
  Dimitrios Manganas     : Further ROCIS development; embedding schemes. LFT, Crystal Embedding 
  Dimitrios Pantazis     : SARC Basis sets                               
  Anastasios Papadopoulos: AUTO-CI, single reference methods and gradients 
  Taras Petrenko         : pre 6.0 DFT Hessian and TD-DFT gradient, (ASA, deprecated), ECA, 1-Electron XAS/XES, NRVS 
  Peter Pinski           : DLPNO-MP2, DLPNO-MP2 Gradient                 
  Christoph Reimann      : Effective Core Potentials                     
  Marius Retegan         : Local ZFS, SOC                                
  Christoph Riplinger    : Optimizer, TS searches, QM/MM, DLPNO-CCSD(T), (RO)-DLPNO pert. Triples 
  Michael Roemelt        : Original ROCIS implementation                 
  Masaaki Saitow         : Open-shell DLPNO-CCSD energy and density      
  Barbara Sandhoefer     : DKH picture change effects                    
  Kantharuban Sivalingam : CASSCF convergence/infrastructure, NEVPT2 and variants, FIC-MRCI 
  Bernardo de Souza      : ESD, SOC TD-DFT                               
  Georgi L. Stoychev     : AutoAux, RI-MP2 NMR, DLPNO-MP2 response, X2C  
  Van Anh Tran           : RI-MP2 g-tensors                              
  Willem Van den Heuvel  : Paramagnetic NMR                              
  Zikuan Wang            : NOTCH, Electric field optimization            
  Frank Wennmohs         : Technical directorship and infrastructure     
  Hang Xu                : AUTO-CI-Response properties                   
                                                                         
[FACCTs GmbH]                                                            
  Markus Bursch, Miquel Garcia-Rates, Christoph Riplinger, Bernardo de Souza, Georgi L. Stoychev 
                                                                 
  APM, Basis sets (HGBS, AHGBS, def-TZVP (Ac-Lr), def2-XVPD (La-Lu)), CI-OPT, improved COSX, DLPNO-Multilevel,           
  DOCKER, DRACO, updates on ESD, GOAT, IRC, LR-CPCM, MBIS, meta-GGA TD-DFT gradient, ML-optimized integration grids, 
  MM, NACMEs, nearIR, NEB, NEB-TS, NL-DFT gradient (VV10), 2- and 3-layer-ONIOM, interface openCOSMO-RS, QMMM,   
  Crystal-QMMM, SF, symmetry and pop. for TD-DFT, r2SCAN hybrids, SOLVATOR                                   
                                                                         
[Other institutions]                                                     
  V. Asgeirsson          : NEB                                           
  Christoph Bannwarth    : sTDA-DFT, sTD-DFT, PBEh-3c, B97-3c, D3        
  Sebastian Ehlert       : rSCAN, r2SCAN, r2SCAN-3c, D4, dhf basis sets  
  Marvin Friede          : D4 for Fr, Ra, Ac-Lr                          
  Lars Goerigk           : TD-DFT with DH, B97 family of functionals     
  Stefan Grimme          : VdW corrections, initial TS optimization, DFT functionals, gCP, sTDA/sTD-DF 
  Waldemar Hujo          : DFT-NL                                        
  H. Jonsson             : NEB                                           
  Holger Kruse           : gCP                                           
  Marcel Mueller         : wB97X-3c, vDZP basis set                      
  Hagen Neugebauer       : wr2SCAN                                       
  Tobias Risthaus        : range-separated hybrid DFT                    
  Lukas Wittmann         : regularized MP2, r2SCAN double-hybrids, wr2SCAN        
                                                                         
We gratefully acknowledge several colleagues who have allowed us to      
interface, adapt or use parts of their codes:                            
  Ed Valeev, F. Pavosevic, A. Kumar             : LibInt (2-el integral package), F12 methods 
  Garnet Chan, S. Sharma, J. Yang, R. Olivares  : DMRG                   
  Ulf Ekstrom                                   : XCFun DFT Library      
  Mihaly Kallay                                 : mrcc  (arbitrary order and MRCC methods)
  Frank Weinhold                                : gennbo (NPA and NBO analysis)           
  Simon Mueller                                 : openCOSMO-RS                            
  Christopher J. Cramer and Donald G. Truhlar   : smd solvation model                     
  S Lehtola, MJT Oliveira, MAL Marques          : LibXC Library                           
  Liviu Ungur et al                             : ANISO software                          


 Your calculation uses the libint2 library for the computation of 2-el integrals
 For citations please refer to: http://libint.valeyev.net

 Your ORCA version has been built with support for libXC version: 6.2.2
 For citations please refer to: https://libxc.gitlab.io

 This ORCA versions uses:
   CBLAS   interface :  Fast vector & matrix operations
   LAPACKE interface :  Fast linear algebra routines
   SCALAPACK package :  Parallel linear algebra routines
   Shared memory     :  Shared parallel matrices
   BLAS/LAPACK       :  OpenBLAS 0.3.27  USE64BITINT DYNAMIC_ARCH NO_AFFINITY SkylakeX SINGLE_THREADED
        Core in use  :  SkylakeX
   Copyright (c) 2011-2014, The OpenBLAS Project


Your calculation utilizes the atom-pairwise dispersion correction
based on EEQ partial charges (D4)


================================================================================

cite the ECPs for C  [vDZP-ECP] as follows:
   B-Ne (ecp-2-mwb), Al-Ar (ecp-10-mwb), Ga-Kr (ecp-28-mwb), Y-Cd (ecp-28-mwb), In-Xe (ecp-46-mwb):
     A. Bergner, M. Dolg, W. Küchle, H. Stoll, and H. Preuß, Mol. Phys. 80, 1431 (1993)., T. Leininger, A. Berning, A. Nicklass, H. Stoll, H.-J. Werner, and H.-J.Flad, Chem. Phys. 217, 19 (1997).
   Na-Mg, K-Ca, Rb-Sr, Cs-Ba (CRENBL):
     L. Fernandez Pacios and P. A. Christiansen, J. Chem. Phys. 82, 2664 (1985)., M. M. Hurley, L. F. Pacios, P. A. Christiansen, R. B. Ross, and W. C. Ermler, J. Chem. Phys. 84, 6840 (1986)., L. A. LaJohn, P. A. Christiansen, R. B. Ross, T. Atashroo, and W. C. Ermler, J. Chem. Phys. 87, 2812 (1987)., R. B. Ross, J. M. Powers, T. Atashroo, W. C. Ermler, L. A. LaJohn, and P. A. Christiansen, J. Chem. Phys. 93, 6654 (1990). 
   Sc-Zn (ecp-10-mdf):
     M. Dolg, U. Wedig, H. Stoll, and H. Preuss, J. Chem. Phys. 86, 866 (1986). 
   Y-Cd (ecp-28-mwb), Hf-Hg (ecp-60-mwb):
     D. Andrae, U. Häußermann, M. Dolg, H. Stoll, and H. Preuß, Theor. Chim. Acta 77, 123 (1990). 
   La (ecp-46-mwb):
     M. Dolg, H. Stoll, and H. Preuss, J. Chem. Phys. 90, 1730 (1989)., M. Dolg, H. Stoll, and H. Preuss, Theor. Chim. Acta 85, 441 (1993).
   Ce-Lu (SBKJC-ecp):
     T. R. Cundari and W. J. Stevens, J. Chem. Phys. 98, 5555 (1993).
   Tl-Rn (ecp-78-mwb):
     W. Küchle, M. Dolg, H. Stoll, and H. Preuss, Mol. Phys. 74, 1245 (1991).

ECP parameters for C  [vDZP-ECP] have been obtained from:
MM, AH, SG, J. Chem. Phys. 158, 014103 (2023), 10.1063/5.0133026

----- Orbital basis set information -----
Your calculation utilizes the basis: vDZP
   Marcel Mueller, Andreas Hansen, Stefan Grimme 
   J. Chem. Phys. 158, 014103 (2023). DOI: 10.1063/5.0133026

----- AuxJ basis set information -----
Your calculation utilizes the auxiliary basis: def2/J
   F. Weigend, Phys. Chem. Chem. Phys. 8, 1057 (2006).

================================================================================
                                        WARNINGS
                       Please study these warnings very carefully!
================================================================================

WARNING: Frozen-Core approximation turned on, but there are no core electrons.
  ===> : Turning off frozen-core approximation


WARNING: Geometry Optimization
  ===> : Switching off AutoStart
         For restart on a previous wavefunction, please use MOREAD

================================================================================
                                       INPUT FILE
================================================================================
NAME = ./output/_z_cadina_1_6_4_diene/_z_cadina_1_6_4_diene.inp
|  1> ! wB97X-3c OPT FREQ TightSCF
|  2> %pal
|  3>   nprocs 40
|  4> end
|  5> * xyz 0 1
|  6> C     -3.609015     0.129015     0.032142
|  7> C     -2.113768     0.454156    -0.057074
|  8> C     -1.484096     0.548121     1.355678
|  9> C      0.039107     0.298350     1.366811
| 10> C      0.685565     0.665891     0.019713
| 11> C      0.114589    -0.207834    -1.138421
| 12> C     -1.374938    -0.586537    -0.916980
| 13> C      0.908714    -1.469874    -1.413545
| 14> C      2.141494    -1.699435    -0.937393
| 15> C      2.855818    -0.776827     0.009043
| 16> C      2.193308     0.571917     0.107944
| 17> C      2.921868     1.648962     0.442774
| 18> H     -4.128071     0.892255     0.650381
| 19> H     -4.063018     0.135931    -0.981721
| 20> H     -3.767159    -0.871927     0.488248
| 21> H     -2.018317     1.445099    -0.555794
| 22> H     -1.958001    -0.187459     2.042824
| 23> H     -1.691365     1.560519     1.766744
| 24> H      0.233298    -0.775718     1.584052
| 25> H      0.497594     0.894215     2.186553
| 26> H      0.412902     1.724333    -0.200520
| 27> H      0.172223     0.405945    -2.064961
| 28> H     -1.873786    -0.683107    -1.906794
| 29> H     -1.450878    -1.574998    -0.408299
| 30> H      0.485573    -2.198097    -2.100395
| 31> H      2.636163    -2.627712    -1.207461
| 32> H      3.902442    -0.665327    -0.349010
| 33> H      2.881063    -1.242986     1.016551
| 34> H      3.996789     1.575659     0.578154
| 35> H      2.453901     2.617472     0.590757
| 36> *
| 37> 
| 38>                          ****END OF INPUT****
================================================================================

                       *****************************
                       * Geometry Optimization Run *
                       *****************************

Geometry optimization settings:
Update method            Update   .... BFGS
Choice of coordinates    CoordSys .... (2022) Redundant Internals
Initial Hessian          InHess   .... Almloef's Model
Max. no of cycles        MaxIter  .... 90

Convergence Tolerances:
Energy Change            TolE     ....  5.0000e-06 Eh
Max. Gradient            TolMAXG  ....  3.0000e-04 Eh/bohr
RMS Gradient             TolRMSG  ....  1.0000e-04 Eh/bohr
Max. Displacement        TolMAXD  ....  4.0000e-03 bohr
RMS Displacement         TolRMSD  ....  2.0000e-03 bohr
Strict Convergence                .... False

------------------------------------------------------------------------------
                        ORCA OPTIMIZATION COORDINATE SETUP
------------------------------------------------------------------------------

The optimization will be done in redundant internal coordinates (2022)
Making redundant internal coordinates   ...  (2022 redundants) done
Evaluating the initial hessian          ...  (Almloef) done
Evaluating the coordinates              ...  done
Calculating the B-matrix                .... done
Calculating the G-matrix                .... done
Diagonalizing the G-matrix              .... done
The first mode is                       ....   77
The number of degrees of freedom        ....   84

    -----------------------------------------------------------------
                    Redundant Internal Coordinates


    -----------------------------------------------------------------
         Definition                    Initial Value    Approx d2E/dq
    -----------------------------------------------------------------
      1. B(C   1,C   0)                  1.5328         0.369768   
      2. B(C   2,C   1)                  1.5496         0.347653   
      3. B(C   3,C   2)                  1.5436         0.355388   
      4. B(C   4,C   3)                  1.5387         0.361794   
      5. B(C   5,C   4)                  1.5591         0.335742   
      6. B(C   6,C   5)                  1.5528         0.343577   
      7. B(C   6,C   1)                  1.5389         0.361499   
      8. B(C   7,C   5)                  1.5163         0.392902   
      9. B(C   8,C   7)                  1.3413         0.747117   
     10. B(C   9,C   8)                  1.5024         0.413439   
     11. B(C  10,C   9)                  1.5059         0.408119   
     12. B(C  10,C   4)                  1.5132         0.397294   
     13. B(C  11,C  10)                  1.3427         0.743271   
     14. B(H  12,C   0)                  1.1109         0.333445   
     15. B(H  13,C   0)                  1.1109         0.333494   
     16. B(H  14,C   0)                  1.1113         0.333030   
     17. B(H  15,C   1)                  1.1135         0.330361   
     18. B(H  16,C   2)                  1.1126         0.331435   
     19. B(H  17,C   2)                  1.1122         0.331955   
     20. B(H  18,C   3)                  1.1129         0.331057   
     21. B(H  19,C   3)                  1.1123         0.331759   
     22. B(H  20,C   4)                  1.1150         0.328544   
     23. B(H  21,C   5)                  1.1129         0.331058   
     24. B(H  22,C   6)                  1.1126         0.331395   
     25. B(H  23,C   6)                  1.1143         0.329394   
     26. B(H  24,C   7)                  1.0868         0.364367   
     27. B(H  25,C   8)                  1.0860         0.365470   
     28. B(H  26,C   9)                  1.1118         0.332410   
     29. B(H  27,C   9)                  1.1104         0.334086   
     30. B(H  28,C  11)                  1.0859         0.365579   
     31. B(H  29,C  11)                  1.0858         0.365735   
     32. A(C   1,C   0,H  14)          110.7185         0.319658   
     33. A(H  12,C   0,H  14)          108.8999         0.283879   
     34. A(C   1,C   0,H  13)          110.1349         0.319730   
     35. A(H  12,C   0,H  13)          108.2204         0.283940   
     36. A(C   1,C   0,H  12)          110.0255         0.319723   
     37. A(H  13,C   0,H  14)          108.7860         0.283885   
     38. A(C   0,C   1,H  15)          107.3662         0.319238   
     39. A(C   6,C   1,H  15)          108.0835         0.318062   
     40. A(C   0,C   1,C   6)          110.9410         0.360688   
     41. A(C   2,C   1,H  15)          108.6357         0.316047   
     42. A(C   0,C   1,C   2)          110.8668         0.358297   
     43. A(C   2,C   1,C   6)          110.8148         0.356922   
     44. A(C   1,C   2,H  17)          108.4481         0.316294   
     45. A(C   1,C   2,H  16)          110.4814         0.316213   
     46. A(C   3,C   2,H  16)          107.9924         0.317348   
     47. A(C   1,C   2,C   3)          113.4375         0.355890   
     48. A(C   3,C   2,H  17)          109.1801         0.317429   
     49. A(H  16,C   2,H  17)          107.1086         0.283470   
     50. A(C   2,C   3,C   4)          111.6918         0.358309   
     51. A(C   2,C   3,H  19)          108.9887         0.317398   
     52. A(H  18,C   3,H  19)          107.5313         0.283394   
     53. A(C   4,C   3,H  19)          110.1245         0.318324   
     54. A(C   4,C   3,H  18)          109.1544         0.318214   
     55. A(C   2,C   3,H  18)          109.2544         0.317289   
     56. A(C   5,C   4,C  10)          111.9260         0.360558   
     57. A(C   3,C   4,C  10)          110.6538         0.365190   
     58. A(C  10,C   4,H  20)          108.3083         0.322718   
     59. A(C   5,C   4,H  20)          107.2005         0.313981   
     60. A(C   3,C   4,H  20)          107.2737         0.317819   
     61. A(C   3,C   4,C   5)          111.2603         0.354865   
     62. A(C   4,C   5,C   6)          112.4609         0.351775   
     63. A(C   7,C   5,H  21)          106.3114         0.322534   
     64. A(C   6,C   5,H  21)          107.6328         0.315550   
     65. A(C   4,C   5,H  21)          106.8823         0.314370   
     66. A(C   6,C   5,C   7)          108.9826         0.361294   
     67. A(C   4,C   5,C   7)          114.1691         0.359876   
     68. A(H  22,C   6,H  23)          107.3723         0.283124   
     69. A(C   5,C   6,H  23)          110.2936         0.315291   
     70. A(C   1,C   6,H  23)          108.1850         0.317911   
     71. A(C   5,C   6,H  22)          108.9287         0.315602   
     72. A(C   1,C   6,H  22)          109.9095         0.318225   
     73. A(C   1,C   6,C   5)          112.0422         0.356208   
     74. A(C   8,C   7,H  24)          117.8728         0.365023   
     75. A(C   5,C   7,H  24)          117.9354         0.327656   
     76. A(C   5,C   7,C   8)          124.0136         0.413635   
     77. A(C   9,C   8,H  25)          117.7105         0.330590   
     78. A(C   7,C   8,H  25)          118.4673         0.365212   
     79. A(C   7,C   8,C   9)          123.7454         0.417401   
     80. A(C   8,C   9,C  10)          112.4698         0.375396   
     81. A(H  26,C   9,H  27)          108.2346         0.283881   
     82. A(C  10,C   9,H  27)          109.0506         0.325037   
     83. A(C   8,C   9,H  27)          108.9402         0.325730   
     84. A(C  10,C   9,H  26)          110.2112         0.324768   
     85. A(C   8,C   9,H  26)          107.8364         0.325460   
     86. A(C   9,C  10,C  11)          119.7407         0.416057   
     87. A(C   4,C  10,C  11)          120.3545         0.414073   
     88. A(C   4,C  10,C   9)          119.3489         0.372826   
     89. A(H  28,C  11,H  29)          118.0257         0.292243   
     90. A(C  10,C  11,H  29)          121.0394         0.364934   
     91. A(C  10,C  11,H  28)          120.9343         0.364908   
     92. D(C   2,C   1,C   0,H  13)    175.9813         0.010931   
     93. D(C   2,C   1,C   0,H  12)     56.7665         0.010931   
     94. D(C   6,C   1,C   0,H  12)   -179.6560         0.010931   
     95. D(C   6,C   1,C   0,H  13)    -60.4412         0.010931   
     96. D(C   6,C   1,C   0,H  14)     59.9160         0.010931   
     97. D(C   2,C   1,C   0,H  14)    -63.6615         0.010931   
     98. D(C   3,C   2,C   1,C   6)     32.8492         0.009748   
     99. D(H  16,C   2,C   1,H  15)    152.8315         0.009748   
    100. D(H  16,C   2,C   1,C   6)    -88.5711         0.009748   
    101. D(H  16,C   2,C   1,C   0)     35.0789         0.009748   
    102. D(C   3,C   2,C   1,C   0)    156.4991         0.009748   
    103. D(C   3,C   2,C   1,H  15)    -85.7482         0.009748   
    104. D(C   4,C   3,C   2,H  16)    149.7494         0.010152   
    105. D(C   4,C   3,C   2,H  17)    -94.1174         0.010152   
    106. D(C   4,C   3,C   2,C   1)     26.9450         0.010152   
    107. D(H  18,C   3,C   2,H  17)    145.0195         0.010152   
    108. D(H  18,C   3,C   2,H  16)     28.8862         0.010152   
    109. D(H  18,C   3,C   2,C   1)    -93.9181         0.010152   
    110. D(C  10,C   4,C   3,H  19)     51.9310         0.010494   
    111. D(C  10,C   4,C   3,H  18)    -65.9019         0.010494   
    112. D(C  10,C   4,C   3,C   2)    173.1767         0.010494   
    113. D(C   5,C   4,C   3,H  18)     59.1882         0.010494   
    114. D(C   5,C   4,C   3,C   2)    -61.7332         0.010494   
    115. D(C   5,C   4,C   3,H  19)    177.0210         0.010494   
    116. D(C   7,C   5,C   4,H  20)    150.8696         0.009148   
    117. D(C   7,C   5,C   4,C  10)     32.2442         0.009148   
    118. D(C   7,C   5,C   4,C   3)    -92.1308         0.009148   
    119. D(C   6,C   5,C   4,H  20)    -84.2874         0.009148   
    120. D(C   6,C   5,C   4,C  10)    157.0871         0.009148   
    121. D(C   6,C   5,C   4,C   3)     32.7122         0.009148   
    122. D(C   5,C   6,C   1,C   0)    174.4805         0.010478   
    123. D(H  22,C   6,C   5,H  21)     31.5972         0.009540   
    124. D(H  22,C   6,C   5,C   7)    -83.2999         0.009540   
    125. D(H  22,C   6,C   5,C   4)    149.0579         0.009540   
    126. D(C   1,C   6,C   5,H  21)    -90.2221         0.009540   
    127. D(C   1,C   6,C   5,C   7)    154.8808         0.009540   
    128. D(C   1,C   6,C   5,C   4)     27.2386         0.009540   
    129. D(H  22,C   6,C   1,H  15)    -64.2368         0.010478   
    130. D(H  22,C   6,C   1,C   2)    176.8320         0.010478   
    131. D(H  22,C   6,C   1,C   0)     53.2247         0.010478   
    132. D(C   5,C   6,C   1,H  15)     57.0191         0.010478   
    133. D(C   5,C   6,C   1,C   2)    -61.9122         0.010478   
    134. D(H  24,C   7,C   5,C   6)     44.1768         0.011476   
    135. D(H  24,C   7,C   5,C   4)    170.8475         0.011476   
    136. D(C   8,C   7,C   5,H  21)    103.4639         0.011476   
    137. D(C   8,C   7,C   5,C   6)   -140.7868         0.011476   
    138. D(C   8,C   7,C   5,C   4)    -14.1161         0.011476   
    139. D(H  25,C   8,C   7,H  24)     -3.7646         0.039778   
    140. D(H  25,C   8,C   7,C   5)   -178.8038         0.039778   
    141. D(C   9,C   8,C   7,H  24)    179.4999         0.039778   
    142. D(C   9,C   8,C   7,C   5)      4.4607         0.039778   
    143. D(H  27,C   9,C   8,C   7)    107.3489         0.012652   
    144. D(H  26,C   9,C   8,H  25)     47.8448         0.012652   
    145. D(H  26,C   9,C   8,C   7)   -135.3968         0.012652   
    146. D(C  10,C   9,C   8,H  25)    169.5684         0.012652   
    147. D(C  10,C   9,C   8,C   7)    -13.6731         0.012652   
    148. D(C   4,C  10,C   9,C   8)     35.0201         0.012340   
    149. D(C  11,C  10,C   4,C   5)    143.6555         0.011721   
    150. D(C  11,C  10,C   4,C   3)    -91.6322         0.011721   
    151. D(C   9,C  10,C   4,H  20)   -162.8824         0.011721   
    152. D(C   9,C  10,C   4,C   5)    -44.9158         0.011721   
    153. D(C   4,C  10,C   9,H  26)    155.3833         0.012340   
    154. D(C   9,C  10,C   4,C   3)     79.7966         0.011721   
    155. D(C  11,C  10,C   9,H  26)    -33.1347         0.012340   
    156. D(C  11,C  10,C   9,C   8)   -153.4978         0.012340   
    157. D(C   4,C  10,C   9,H  27)    -85.9386         0.012340   
    158. D(H  29,C  11,C  10,C   9)   -175.5101         0.039330   
    159. D(H  29,C  11,C  10,C   4)     -4.1149         0.039330   
    160. D(H  28,C  11,C  10,C   9)      4.1997         0.039330   
    161. D(H  28,C  11,C  10,C   4)    175.5949         0.039330   
    -----------------------------------------------------------------

Number of atoms                         .... 30
Number of degrees of freedom            .... 161


         *************************************************************
         *                GEOMETRY OPTIMIZATION CYCLE   1            *
         *************************************************************
---------------------------------
CARTESIAN COORDINATES (ANGSTROEM)
---------------------------------
  C     -3.609015    0.129015    0.032142
  C     -2.113768    0.454156   -0.057074
  C     -1.484096    0.548121    1.355678
  C      0.039107    0.298350    1.366811
  C      0.685565    0.665891    0.019713
  C      0.114589   -0.207834   -1.138421
  C     -1.374938   -0.586537   -0.916980
  C      0.908714   -1.469874   -1.413545
  C      2.141494   -1.699435   -0.937393
  C      2.855818   -0.776827    0.009043
  C      2.193308    0.571917    0.107944
  C      2.921868    1.648962    0.442774
  H     -4.128071    0.892255    0.650381
  H     -4.063018    0.135931   -0.981721
  H     -3.767159   -0.871927    0.488248
  H     -2.018317    1.445099   -0.555794
  H     -1.958001   -0.187459    2.042824
  H     -1.691365    1.560519    1.766744
  H      0.233298   -0.775718    1.584052
  H      0.497594    0.894215    2.186553
  H      0.412902    1.724333   -0.200520
  H      0.172223    0.405945   -2.064961
  H     -1.873786   -0.683107   -1.906794
  H     -1.450878   -1.574998   -0.408299
  H      0.485573   -2.198097   -2.100395
  H      2.636163   -2.627712   -1.207461
  H      3.902442   -0.665327   -0.349010
  H      2.881063   -1.242986    1.016551
  H      3.996789    1.575659    0.578154
  H      2.453901    2.617472    0.590757

----------------------------
CARTESIAN COORDINATES (A.U.)
----------------------------
  NO LB      ZA    FRAG     MASS         X           Y           Z
   0 C     4.0000*   0    12.011   -6.820050    0.243803    0.060740
   1 C     4.0000*   0    12.011   -3.994443    0.858230   -0.107854
   2 C     4.0000*   0    12.011   -2.804535    1.035799    2.561860
   3 C     4.0000*   0    12.011    0.073902    0.563800    2.582898
   4 C     4.0000*   0    12.011    1.295530    1.258352    0.037252
   5 C     4.0000*   0    12.011    0.216542   -0.392749   -2.151304
   6 C     4.0000*   0    12.011   -2.598256   -1.108394   -1.732841
   7 C     4.0000*   0    12.011    1.717221   -2.777659   -2.671213
   8 C     4.0000*   0    12.011    4.046837   -3.211467   -1.771416
   9 C     4.0000*   0    12.011    5.396714   -1.467990    0.017089
  10 C     4.0000*   0    12.011    4.144751    1.080767    0.203985
  11 C     4.0000*   0    12.011    5.521530    3.116087    0.836722
  12 H     1.0000    0     1.008   -7.800924    1.686118    1.229042
  13 H     1.0000    0     1.008   -7.677991    0.256872   -1.855184
  14 H     1.0000    0     1.008   -7.118899   -1.647703    0.922655
  15 H     1.0000    0     1.008   -3.814066    2.730841   -1.050298
  16 H     1.0000    0     1.008   -3.700086   -0.354246    3.860378
  17 H     1.0000    0     1.008   -3.196217    2.948954    3.338662
  18 H     1.0000    0     1.008    0.440869   -1.465895    2.993424
  19 H     1.0000    0     1.008    0.940316    1.689821    4.131986
  20 H     1.0000    0     1.008    0.780272    3.258517   -0.378928
  21 H     1.0000    0     1.008    0.325454    0.767125   -3.902211
  22 H     1.0000    0     1.008   -3.540942   -1.290885   -3.603318
  23 H     1.0000    0     1.008   -2.741762   -2.976315   -0.771573
  24 H     1.0000    0     1.008    0.917600   -4.153801   -3.969171
  25 H     1.0000    0     1.008    4.981626   -4.965656   -2.281771
  26 H     1.0000    0     1.008    7.374547   -1.257286   -0.659533
  27 H     1.0000    0     1.008    5.444420   -2.348903    1.921003
  28 H     1.0000    0     1.008    7.552837    2.977564    1.092553
  29 H     1.0000    0     1.008    4.637201    4.946305    1.116369
* core charge reduced due to ECP

--------------------------------
INTERNAL COORDINATES (ANGSTROEM)
--------------------------------
 C      0   0   0     0.000000000000     0.00000000     0.00000000
 C      1   0   0     1.532788229191     0.00000000     0.00000000
 C      2   1   0     1.549575574896   110.86677464     0.00000000
 C      3   2   1     1.543585720114   113.43752750   156.49910912
 C      4   3   2     1.538722637141   111.69180431    26.94501676
 C      5   4   3     1.559064889656   111.26027164   298.26675738
 C      2   1   3     1.538944449285   110.94103563   123.57749921
 C      6   5   4     1.516269333793   114.16911208   267.86920058
 C      8   6   5     1.341329753724   124.01358023   345.88389057
 C      9   8   6     1.502399880437   123.74535640     4.46066915
 C     10   9   8     1.505925391723   112.46975840   346.32689903
 C     11  10   9     1.342734796795   119.74073009   206.50220195
 H      1   2   3     1.110933791842   110.02550538    56.76649609
 H      1   2   3     1.110893666304   110.13488673   175.98134819
 H      1   2   3     1.111272736701   110.71847293   296.33849609
 H      2   1   3     1.113463318233   107.36618957   241.47598474
 H      3   2   1     1.112579664896   110.48143324    35.07887693
 H      3   2   1     1.112153498902   108.44814925   277.97218180
 H      4   3   2     1.112890769656   109.25442885   266.08186725
 H      4   3   2     1.112313972742   108.98871643   148.84728166
 H      5   4   3     1.114965090584   107.27370486    55.22168941
 H      6   5   4     1.112889352270   106.88233338   150.61726979
 H      7   2   1     1.112612621985   109.90954842    53.22466574
 H      7   2   1     1.114261366055   108.18495377   296.27363789
 H      8   6   5     1.086793433045   117.93542970   170.84751132
 H      9   8   6     1.085970686950   118.46733190   181.19618799
 H     10   9   8     1.111780553070   107.83640504   224.60323114
 H     10   9   8     1.110411587372   108.94019963   107.34892698
 H     12  11  10     1.085889603252   120.93427245     4.19970053
 H     12  11  10     1.085773319564   121.03939501   184.48991944

---------------------------
INTERNAL COORDINATES (A.U.)
---------------------------
 C      0   0   0     0.000000000000     0.00000000     0.00000000
 C      1   0   0     2.896549974469     0.00000000     0.00000000
 C      2   1   0     2.928273460366   110.86677464     0.00000000
 C      3   2   1     2.916954275247   113.43752750   156.49910912
 C      4   3   2     2.907764380261   111.69180431    26.94501676
 C      5   4   3     2.946205666461   111.26027164   298.26675738
 C      2   1   3     2.908183544467   110.94103563   123.57749921
 C      6   5   4     2.865333786132   114.16911208   267.86920058
 C      8   6   5     2.534745889818   124.01358023   345.88389057
 C      9   8   6     2.839124317661   123.74535640     4.46066915
 C     10   9   8     2.845786568475   112.46975840   346.32689903
 C     11  10   9     2.537401036430   119.74073009   206.50220195
 H      1   2   3     2.099360619501   110.02550538    56.76649609
 H      1   2   3     2.099284793222   110.13488673   175.98134819
 H      1   2   3     2.100001132459   110.71847293   296.33849609
 H      2   1   3     2.104140731627   107.36618957   241.47598474
 H      3   2   1     2.102470868824   110.48143324    35.07887693
 H      3   2   1     2.101665531808   108.44814925   277.97218180
 H      4   3   2     2.103058771619   109.25442885   266.08186725
 H      4   3   2     2.101968783417   108.98871643   148.84728166
 H      5   4   3     2.106978670087   107.27370486    55.22168941
 H      6   5   4     2.103056093148   106.88233338   150.61726979
 H      7   2   1     2.102533148695   109.90954842    53.22466574
 H      7   2   1     2.105648823452   108.18495377   296.27363789
 H      8   6   5     2.053741952599   117.93542970   170.84751132
 H      9   8   6     2.052187187801   118.46733190   181.19618799
 H     10   9   8     2.100960766322   107.83640504   224.60323114
 H     10   9   8     2.098373796066   108.94019963   107.34892698
 H     12  11  10     2.052033961818   120.93427245     4.19970053
 H     12  11  10     2.051814217495   121.03939501   184.48991944

---------------------
BASIS SET INFORMATION
---------------------
There are 2 groups of distinct atoms

 Group   1 Type C   : 6s6p2d contracted to 2s2p1d pattern {42/42/2}
 Group   2 Type H   : 8s2p contracted to 2s1p pattern {53/2}

Atom   0C    basis set group =>   1
Atom   1C    basis set group =>   1
Atom   2C    basis set group =>   1
Atom   3C    basis set group =>   1
Atom   4C    basis set group =>   1
Atom   5C    basis set group =>   1
Atom   6C    basis set group =>   1
Atom   7C    basis set group =>   1
Atom   8C    basis set group =>   1
Atom   9C    basis set group =>   1
Atom  10C    basis set group =>   1
Atom  11C    basis set group =>   1
Atom  12H    basis set group =>   2
Atom  13H    basis set group =>   2
Atom  14H    basis set group =>   2
Atom  15H    basis set group =>   2
Atom  16H    basis set group =>   2
Atom  17H    basis set group =>   2
Atom  18H    basis set group =>   2
Atom  19H    basis set group =>   2
Atom  20H    basis set group =>   2
Atom  21H    basis set group =>   2
Atom  22H    basis set group =>   2
Atom  23H    basis set group =>   2
Atom  24H    basis set group =>   2
Atom  25H    basis set group =>   2
Atom  26H    basis set group =>   2
Atom  27H    basis set group =>   2
Atom  28H    basis set group =>   2
Atom  29H    basis set group =>   2
---------------------------------
AUXILIARY/J BASIS SET INFORMATION
---------------------------------
There are 2 groups of distinct atoms

 Group   1 Type C   : 12s5p4d2f1g contracted to 6s4p3d1f1g pattern {711111/2111/211/2/1}
 Group   2 Type H   : 5s2p1d contracted to 3s1p1d pattern {311/2/1}

Atom   0C    basis set group =>   1
Atom   1C    basis set group =>   1
Atom   2C    basis set group =>   1
Atom   3C    basis set group =>   1
Atom   4C    basis set group =>   1
Atom   5C    basis set group =>   1
Atom   6C    basis set group =>   1
Atom   7C    basis set group =>   1
Atom   8C    basis set group =>   1
Atom   9C    basis set group =>   1
Atom  10C    basis set group =>   1
Atom  11C    basis set group =>   1
Atom  12H    basis set group =>   2
Atom  13H    basis set group =>   2
Atom  14H    basis set group =>   2
Atom  15H    basis set group =>   2
Atom  16H    basis set group =>   2
Atom  17H    basis set group =>   2
Atom  18H    basis set group =>   2
Atom  19H    basis set group =>   2
Atom  20H    basis set group =>   2
Atom  21H    basis set group =>   2
Atom  22H    basis set group =>   2
Atom  23H    basis set group =>   2
Atom  24H    basis set group =>   2
Atom  25H    basis set group =>   2
Atom  26H    basis set group =>   2
Atom  27H    basis set group =>   2
Atom  28H    basis set group =>   2
Atom  29H    basis set group =>   2
-------------------------
ECP PARAMETER INFORMATION
-------------------------

 Group 1, Type C  ECP vDZP-ECP (replacing 2 core electrons, lmax=3)

Atom   0C    ECP group =>   1
Atom   1C    ECP group =>   1
Atom   2C    ECP group =>   1
Atom   3C    ECP group =>   1
Atom   4C    ECP group =>   1
Atom   5C    ECP group =>   1
Atom   6C    ECP group =>   1
Atom   7C    ECP group =>   1
Atom   8C    ECP group =>   1
Atom   9C    ECP group =>   1
Atom  10C    ECP group =>   1
Atom  11C    ECP group =>   1



           ************************************************************
           *        Program running with 40 parallel MPI-processes    *
           *              working on a common directory               *
           ************************************************************
------------------------------------------------------------------------------
                             ORCA STARTUP CALCULATIONS
                           -- RI-GTO INTEGRALS CHOSEN --
------------------------------------------------------------------------------
------------------------------------------------------------------------------
                   ___                                                        
                  /   \      - P O W E R E D   B Y -                         
                 /     \                                                     
                 |  |  |   _    _      __       _____    __    __             
                 |  |  |  | |  | |    /  \     |  _  \  |  |  /  |          
                  \  \/   | |  | |   /    \    | | | |  |  | /  /          
                 / \  \   | |__| |  /  /\  \   | |_| |  |  |/  /          
                |  |  |   |  __  | /  /__\  \  |    /   |      \           
                |  |  |   | |  | | |   __   |  |    \   |  |\   \          
                \     /   | |  | | |  |  |  |  | |\  \  |  | \   \       
                 \___/    |_|  |_| |__|  |__|  |_| \__\ |__|  \__/        
                                                                              
                      - O R C A' S   B I G   F R I E N D -                    
                                      &                                       
                       - I N T E G R A L  F E E D E R -                       
                                                                              
 v1 FN, 2020, v2 2021, v3 2022-2024                                           
------------------------------------------------------------------------------


----------------------
SHARK INTEGRAL PACKAGE
----------------------

Number of atoms                             ...     30
Number of basis functions                   ...    246
Number of shells                            ...    114
Maximum angular momentum                    ...      2
Integral batch strategy                     ... SHARK/LIBINT Hybrid
RI-J (if used) integral strategy            ... SPLIT-RIJ (Revised 2003 algorithm where possible)
Printlevel                                  ...      1
Contraction scheme used                     ... SEGMENTED contraction
Prescreening option                         ... SCHWARTZ
   Thresh                                   ... 2.500e-11
   Tcut                                     ... 2.500e-12
   Tpresel                                  ... 2.500e-12 
Coulomb Range Separation                    ... NOT USED
Exchange Range Separation                   ... Long Range
   Mu parameter                             ... 3.000e-01
   Scaling (regular/separated)              ... 1.670e-01 8.330e-01
Multipole approximations                    ... NOT USED
Finite Nucleus Model                        ... NOT USED
CABS basis                                  ... NOT available
Auxiliary Coulomb fitting basis             ... AVAILABLE
   # of basis functions in Aux-J            ...    786
   # of shells in Aux-J                     ...    270
   Maximum angular momentum in Aux-J        ...      4
Auxiliary J/K fitting basis                 ... NOT available
Auxiliary Correlation fitting basis         ... NOT available
Auxiliary 'external' fitting basis          ... NOT available

Checking pre-screening integrals            ... done (  0.0 sec) Dimension = 114
Check shell pair data                       ... done (  0.0 sec)
Shell pair information
Shell pair cut-off parameter TPreSel        ...   2.5e-12
Total number of shell pairs                 ...      6555
Shell pairs after pre-screening             ...      6526
Total number of primitive shell pairs       ...     61158
Primitive shell pairs kept                  ...     49131
          la=0 lb=0:   1825 shell pairs
          la=1 lb=0:   2506 shell pairs
          la=1 lb=1:    893 shell pairs
          la=2 lb=0:    720 shell pairs
          la=2 lb=1:    504 shell pairs
          la=2 lb=2:     78 shell pairs

Calculating one electron integrals          ... done (  0.0 sec)
Calculating ECP integrals                   ... done (  0.1 sec)
Calculating RI/J V-Matrix + Cholesky decomp.... done (  0.0 sec)
Calculating Nuclear repulsion               ... done (  0.0 sec) ENN=    384.190266601124 Eh

Diagonalization of the overlap matrix:
Smallest eigenvalue                        ... 9.037e-04
Time for diagonalization                   ...    0.008 sec
Threshold for overlap eigenvalues          ... 1.000e-07
Number of eigenvalues below threshold      ... 0
Time for construction of square roots      ...    0.005 sec
Total time needed                          ...    0.017 sec

-------------------
DFT GRID GENERATION
-------------------

General Integration Accuracy     IntAcc      ... 4.388
Radial Grid Type                 RadialGrid  ... OptM3 with GC (2021)
Angular Grid (max. ang.)         AngularGrid ... 4 (Lebedev-302)
Angular grid pruning method      GridPruning ... 4 (adaptive)
Weight generation scheme         WeightScheme... mBecke (2022)
Basis function cutoff            BFCut       ... 1.0000e-11
Integration weight cutoff        WCut        ... 1.0000e-14
Partially contracted basis set               ... off
Rotationally invariant grid construction     ... off
Angular grids for H and He will be reduced by one unit

Total number of grid points                  ...   128521
Total number of batches                      ...     2026
Average number of points per batch           ...       63
Average number of grid points per atom       ...     4284

--------------------
COSX GRID GENERATION
--------------------

GRIDX 1
-------
General Integration Accuracy     IntAcc      ... 3.816
Radial Grid Type                 RadialGrid  ... OptM3 with GC (2021)
Angular Grid (max. ang.)         AngularGrid ... 1 (Lebedev-50)
Angular grid pruning method      GridPruning ... 4 (adaptive)
Weight generation scheme         WeightScheme... mBecke (2022)
Basis function cutoff            BFCut       ... 1.0000e-11
Integration weight cutoff        WCut        ... 1.0000e-14
Partially contracted basis set               ... on
Rotationally invariant grid construction     ... off
Angular grids for H and He will be reduced by one unit

Total number of grid points                  ...    16438
Total number of batches                      ...      150
Average number of points per batch           ...      109
Average number of grid points per atom       ...      548
UseSFitting                                  ... on

GRIDX 2
-------
General Integration Accuracy     IntAcc      ... 4.020
Radial Grid Type                 RadialGrid  ... OptM3 with GC (2021)
Angular Grid (max. ang.)         AngularGrid ... 2 (Lebedev-110)
Angular grid pruning method      GridPruning ... 4 (adaptive)
Weight generation scheme         WeightScheme... mBecke (2022)
Basis function cutoff            BFCut       ... 1.0000e-11
Integration weight cutoff        WCut        ... 1.0000e-14
Partially contracted basis set               ... on
Rotationally invariant grid construction     ... off
Angular grids for H and He will be reduced by one unit

Total number of grid points                  ...    34315
Total number of batches                      ...      286
Average number of points per batch           ...      119
Average number of grid points per atom       ...     1144
UseSFitting                                  ... on

GRIDX 3
-------
General Integration Accuracy     IntAcc      ... 4.338
Radial Grid Type                 RadialGrid  ... OptM3 with GC (2021)
Angular Grid (max. ang.)         AngularGrid ... 3 (Lebedev-194)
Angular grid pruning method      GridPruning ... 4 (adaptive)
Weight generation scheme         WeightScheme... mBecke (2022)
Basis function cutoff            BFCut       ... 1.0000e-11
Integration weight cutoff        WCut        ... 1.0000e-14
Partially contracted basis set               ... on
Rotationally invariant grid construction     ... off
Angular grids for H and He will be reduced by one unit

Total number of grid points                  ...    74615
Total number of batches                      ...      596
Average number of points per batch           ...      125
Average number of grid points per atom       ...     2487
UseSFitting                                  ... on
Initializing property integral containers    ... done (  0.0 sec)

SHARK setup successfully completed in   3.9 seconds

Maximum memory used throughout the entire STARTUP-calculation: 37.9 MB


           ************************************************************
           *        Program running with 40 parallel MPI-processes    *
           *              working on a common directory               *
           ************************************************************
-------------------------------------------------------------------------------
                                 ORCA GUESS
                   Start orbitals & Density for SCF / CASSCF
-------------------------------------------------------------------------------

------------
SCF SETTINGS
------------
Hamiltonian:
 Density Functional     Method          .... DFT(GTOs)
 Exchange Functional    Exchange        .... WB97X-V
 Correlation Functional Correlation     .... WB97X-V
 Gradients option       PostSCFGGA      .... off
 Hybrid DFT is turned on
   Fraction HF Exchange ScalHFX         ....  0.167000
   Scaling of DF-GGA-X  ScalDFX         ....  0.000000
   Scaling of DF-GGA-C  ScalDFC         ....  1.000000
   Scaling of DF-LDA-C  ScalLDAC        ....  1.000000
   Perturbative correction              ....  0.000000
 Long-range corrected/Screened/Range-Separated Hybrid DFT is turned on
   Amount of maximum screened exact exchange              ....  0.833000
   Range separation parameter mu (erf(mu*r12)/r12)        ....  0.300000
   NL short-range parameter             ....  6.000000
   NL long-range parameter              ....  0.010000
 RI-approximation to the Coulomb term is turned on
   Number of AuxJ basis functions       .... 786
   RIJ-COSX (HFX calculated with COS-X)).... on


General Settings:
 Integral files         IntName         .... ./output/_z_cadina_1_6_4_diene/_z_cadina_1_6_4_diene
 Hartree-Fock type      HFTyp           .... RHF
 Total Charge           Charge          ....    0
 Multiplicity           Mult            ....    1
 Number of Electrons    NEL             ....   66
 Basis Dimension        Dim             ....  246
 Nuclear Repulsion      ENuc            ....    384.1902666011 Eh

Convergence Acceleration:
 AO-DIIS                CNVDIIS         .... on
   Start iteration      DIISMaxIt       ....    12
   Startup error        DIISStart       ....  0.200000
   # of expansion vecs  DIISMaxEq       ....     5
   Bias factor          DIISBfac        ....   1.050
   Max. coefficient     DIISMaxC        ....  10.000
 MO-DIIS                CNVKDIIS        .... off
 Trust-Rad. Augm. Hess. CNVTRAH         .... auto
   Auto Start mean grad. ratio tolernc. ....  1.125000
   Auto Start start iteration           ....    50
   Auto Start num. interpolation iter.  ....    10
   Max. Number of Micro iterations      ....    24
   Max. Number of Macro iterations      .... Maxiter - #DIIS iter
   Number of Davidson start vectors     ....     2
   Converg. threshold    (grad. norm)   ....   1.000e-05
   Grad. Scal. Fac. for Micro threshold ....   0.100
   Minimum threshold for Micro iter.    ....   1.000e-02
   NR start threshold (gradient norm)   ....   1.000e-04
   Initial trust radius                 ....   0.400
   Minimum AH scaling param. (alpha)    ....   1.000
   Maximum AH scaling param. (alpha)    .... 1000.000
   Quad. conv. algorithm                .... NR
   White noise on init. David. guess    .... on
   Maximum white noise                  ....   0.010
   Pseudo random numbers                .... off
   Inactive MOs                         .... canonical
   Orbital update algorithm             .... Taylor
   Preconditioner                       .... Diag
   Full preconditioner red. dimension   ....   250
 SOSCF                  CNVSOSCF        .... on
   Start iteration      SOSCFMaxIt      ....   150
   Startup grad/error   SOSCFStart      ....  0.003300
   Hessian update       SOSCFHessUp     .... L-BFGS
 Level Shifting         CNVShift        .... on
   Level shift para.    LevelShift      ....    0.2500
   Turn off err/grad.   ShiftErr        ....    0.0010
 Zerner damping         CNVZerner       .... off
 Static damping         CNVDamp         .... on
   Fraction old density DampFac         ....    0.7000
   Max. Damping (<1)    DampMax         ....    0.9800
   Min. Damping (>=0)   DampMin         ....    0.0000
   Turn off err/grad.   DampErr         ....    0.1000

SCF Procedure:
 Maximum # iterations   MaxIter         ....   125
 SCF integral mode      SCFMode         .... Direct
   Integral package                     .... SHARK and LIBINT hybrid scheme
 Reset frequency        DirectResetFreq ....    20
 Integral Threshold     Thresh          ....  2.500e-11 Eh
 Primitive CutOff       TCut            ....  2.500e-12 Eh

Convergence Tolerance:
 Convergence Check Mode ConvCheckMode   .... Total+1el-Energy
 Convergence forced     ConvForced      .... 0
 Energy Change          TolE            ....  1.000e-08 Eh
 1-El. energy change                    ....  1.000e-05 Eh
 Orbital Gradient       TolG            ....  1.000e-05
 Orbital Rotation angle TolX            ....  1.000e-05
 DIIS Error             TolErr          ....  5.000e-07

------------------------------
INITIAL GUESS: MODEL POTENTIAL
------------------------------
Loading Hartree-Fock densities                     ... done
Atomic calculation to generate a density for atom 0 (C  with ECP)
  Multiplicity assumed   :    1
  Atomic configuration   : 1s2 2s2 2p2 
  Number of open shells  : 1
  Command: /home/aspe232/Project/Software/ORCA/6_0_1/build/orca ./output/_z_cadina_1_6_4_diene/_z_cadina_1_6_4_diene_atom6.inp "" > ./output/_z_cadina_1_6_4_diene/_z_cadina_1_6_4_diene_atom6.out
Returned from the atomic calculation with res=0
Calculating cut-offs                               ... done
Initializing the effective Hamiltonian             ... done
Setting up the integral package (SHARK)            ... done
Starting the Coulomb interaction                   ... done (   0.1 sec)
Making the grid                                    ... done (   0.8 sec)
Mapping shells                                     ... done
Starting the XC term evaluation                    ... done (   0.0 sec)
  promolecular density results
     # of electrons  =     89.989227201
     EX              =    -44.145819704
     EC              =     -3.606777966
     EX+EC           =    -47.752597670
Transforming the Hamiltonian                       ... done (   0.1 sec)
Diagonalizing the Hamiltonian                      ... done (   0.0 sec)
Back transforming the eigenvectors                 ... done (   0.1 sec)
Now organizing SCF variables                       ... done
                      ------------------
                      INITIAL GUESS DONE (   1.8 sec)
                      ------------------
             **** ENERGY FILE WAS UPDATED (./output/_z_cadina_1_6_4_diene/_z_cadina_1_6_4_diene.en.tmp) ****
Finished Guess after   2.4 sec
Maximum memory used throughout the entire GUESS-calculation: 24.3 MB


           ************************************************************
           *        Program running with 40 parallel MPI-processes    *
           *              working on a common directory               *
           ************************************************************

-------------------------------------------------------------------------------------------
                                      ORCA LEAN-SCF
                              memory conserving SCF solver
-------------------------------------------------------------------------------------------

----------------------------------------D-I-I-S--------------------------------------------
Iteration    Energy (Eh)           Delta-E    RMSDP     MaxDP     DIISErr   Damp  Time(sec)
-------------------------------------------------------------------------------------------
               ***  Starting incremental Fock matrix formation  ***
    1    -78.6472344919689590     0.00e+00  3.84e-03  7.43e-02  1.78e-01  0.700   5.9
    2    -78.8531714768024017    -2.06e-01  2.82e-03  5.35e-02  1.08e-01  0.700   4.9
                               ***Turning on AO-DIIS***
    3    -78.9605860096628476    -1.07e-01  1.49e-03  2.89e-02  6.10e-02  0.700   3.9
    4    -79.0240953128557067    -6.35e-02  3.19e-03  6.16e-02  3.75e-02  0.000   4.1
    5    -79.1577714338155829    -1.34e-01  2.42e-04  6.83e-03  6.25e-03  0.000   4.1
                              *** Initializing SOSCF ***
---------------------------------------S-O-S-C-F--------------------------------------
Iteration    Energy (Eh)           Delta-E    RMSDP     MaxDP     MaxGrad    Time(sec)
--------------------------------------------------------------------------------------
    6    -79.1581511154757322    -3.80e-04  1.11e-04  2.10e-03  1.75e-03     4.2
               *** Restarting incremental Fock matrix formation ***
    7    -79.1581341253656205     1.70e-05  6.33e-05  1.16e-03  2.71e-04     5.7
    8    -79.1581444807078469    -1.04e-05  3.87e-05  9.31e-04  2.75e-04     5.0
    9    -79.1581466679634218    -2.19e-06  1.36e-05  2.39e-04  7.13e-05     5.2
   10    -79.1581470578370272    -3.90e-07  2.45e-06  5.34e-05  1.33e-05     5.2
   11    -79.1581470540181158     3.82e-09  7.48e-07  1.78e-05  5.95e-06     4.6
                 **** Energy Check signals convergence ****

               *****************************************************
               *                     SUCCESS                       *
               *           SCF CONVERGED AFTER  11 CYCLES          *
               *****************************************************

Recomputing exchange energy using gridx3       ... done (    5.164 sec)
Old exchange energy                            :    -12.486484133 Eh
New exchange energy                            :    -12.486479514 Eh
Exchange energy change after final integration :      0.000004619 Eh
Total energy after final integration           :    -79.158142435 Eh
             **** ENERGY FILE WAS UPDATED (./output/_z_cadina_1_6_4_diene/_z_cadina_1_6_4_diene.en.tmp) ****

----------------
TOTAL SCF ENERGY
----------------

Total Energy       :        -79.15814243508129 Eh           -2154.00256 eV

Components:
Nuclear Repulsion  :        384.19026660112445 Eh           10454.34864 eV
Electronic Energy  :       -463.34841365514256 Eh          -12608.35133 eV
One Electron Energy:       -878.68760553149286 Eh          -23910.30532 eV
Two Electron Energy:        415.33919187635030 Eh           11301.95399 eV

Virial components:
Potential Energy   :       -140.74710901588656 Eh           -3829.92355 eV
Kinetic Energy     :         61.58896658080529 Eh            1675.92098 eV
Virial Ratio       :          2.28526498867658

DFT components:
N(Alpha)           :       33.000061019545 electrons
N(Beta)            :       33.000061019545 electrons
N(Total)           :       66.000122039090 electrons
E(X)               :      -12.670002677215 Eh       
E(C)               :       -2.468203357739 Eh       
E(XC)              :      -15.138206034955 Eh       

---------------
SCF CONVERGENCE
---------------

  Last Energy change         ...   -3.8189e-09  Tolerance :   1.0000e-08
  Last MAX-Density change    ...    1.7826e-05  Tolerance :   1.0000e-07
  Last RMS-Density change    ...    7.4764e-07  Tolerance :   5.0000e-09
  Last DIIS Error            ...    1.7472e-03  Tolerance :   5.0000e-07
  Last Orbital Gradient      ...    5.9462e-06  Tolerance :   1.0000e-05
  Last Orbital Rotation      ...    1.5280e-05  Tolerance :   1.0000e-05


----------------
ORBITAL ENERGIES
----------------

  NO   OCC          E(Eh)            E(eV) 
   0   2.0000      -0.996757       -27.1231 
   1   2.0000      -0.950967       -25.8771 
   2   2.0000      -0.912595       -24.8330 
   3   2.0000      -0.890395       -24.2289 
   4   2.0000      -0.866081       -23.5672 
   5   2.0000      -0.806770       -21.9533 
   6   2.0000      -0.798347       -21.7241 
   7   2.0000      -0.741541       -20.1784 
   8   2.0000      -0.729772       -19.8581 
   9   2.0000      -0.680236       -18.5102 
  10   2.0000      -0.656579       -17.8664 
  11   2.0000      -0.617881       -16.8134 
  12   2.0000      -0.605206       -16.4685 
  13   2.0000      -0.582680       -15.8555 
  14   2.0000      -0.569650       -15.5010 
  15   2.0000      -0.559304       -15.2194 
  16   2.0000      -0.541807       -14.7433 
  17   2.0000      -0.530797       -14.4437 
  18   2.0000      -0.524059       -14.2604 
  19   2.0000      -0.508659       -13.8413 
  20   2.0000      -0.502930       -13.6854 
  21   2.0000      -0.483985       -13.1699 
  22   2.0000      -0.482379       -13.1262 
  23   2.0000      -0.469843       -12.7851 
  24   2.0000      -0.461097       -12.5471 
  25   2.0000      -0.448193       -12.1960 
  26   2.0000      -0.445109       -12.1120 
  27   2.0000      -0.431275       -11.7356 
  28   2.0000      -0.409833       -11.1521 
  29   2.0000      -0.395126       -10.7519 
  30   2.0000      -0.393994       -10.7211 
  31   2.0000      -0.343103        -9.3363 
  32   2.0000      -0.336960        -9.1692 
  33   0.0000       0.079857         2.1730 
  34   0.0000       0.081810         2.2262 
  35   0.0000       0.092710         2.5228 
  36   0.0000       0.098018         2.6672 
  37   0.0000       0.103769         2.8237 
  38   0.0000       0.105297         2.8653 
  39   0.0000       0.118416         3.2223 
  40   0.0000       0.121309         3.3010 
  41   0.0000       0.132272         3.5993 
  42   0.0000       0.138754         3.7757 
  43   0.0000       0.141663         3.8548 
*Only the first 10 virtual orbitals were printed.

                    ********************************
                    * MULLIKEN POPULATION ANALYSIS *
                    ********************************

-----------------------
MULLIKEN ATOMIC CHARGES
-----------------------
   0 C :   -0.075222
   1 C :   -0.102989
   2 C :   -0.051532
   3 C :   -0.030732
   4 C :   -0.106944
   5 C :   -0.084790
   6 C :   -0.045180
   7 C :   -0.008849
   8 C :   -0.029196
   9 C :   -0.089167
  10 C :   -0.037363
  11 C :   -0.034516
  12 H :    0.037154
  13 H :    0.034417
  14 H :    0.034420
  15 H :    0.037447
  16 H :    0.035343
  17 H :    0.040270
  18 H :    0.037347
  19 H :    0.049781
  20 H :    0.044914
  21 H :    0.059033
  22 H :    0.045149
  23 H :    0.036574
  24 H :    0.019693
  25 H :    0.016776
  26 H :    0.060480
  27 H :    0.064435
  28 H :    0.019840
  29 H :    0.023409
Sum of atomic charges:    0.0000000

--------------------------------
MULLIKEN REDUCED ORBITAL CHARGES
--------------------------------
  0 C s       :     0.963007  s :     0.963007
      pz      :     1.044513  p :     3.037356
      px      :     0.957767
      py      :     1.035076
      dz2     :     0.011728  d :     0.074860
      dxz     :     0.018982
      dyz     :     0.012410
      dx2y2   :     0.017096
      dxy     :     0.014644

  1 C s       :     1.053558  s :     1.053558
      pz      :     0.952311  p :     2.925198
      px      :     0.961478
      py      :     1.011410
      dz2     :     0.023986  d :     0.124232
      dxz     :     0.025988
      dyz     :     0.026491
      dx2y2   :     0.029327
      dxy     :     0.018440

  2 C s       :     0.999720  s :     0.999720
      pz      :     0.965172  p :     2.955698
      px      :     0.945427
      py      :     1.045099
      dz2     :     0.016223  d :     0.096114
      dxz     :     0.022338
      dyz     :     0.021016
      dx2y2   :     0.021314
      dxy     :     0.015223

  3 C s       :     1.000850  s :     1.000850
      pz      :     0.960916  p :     2.932483
      px      :     0.934357
      py      :     1.037210
      dz2     :     0.019172  d :     0.097399
      dxz     :     0.022888
      dyz     :     0.016208
      dx2y2   :     0.024394
      dxy     :     0.014737

  4 C s       :     1.020540  s :     1.020540
      pz      :     0.957112  p :     2.963831
      px      :     0.976905
      py      :     1.029814
      dz2     :     0.028482  d :     0.122573
      dxz     :     0.026877
      dyz     :     0.020552
      dx2y2   :     0.029737
      dxy     :     0.016925

  5 C s       :     1.026594  s :     1.026594
      pz      :     1.008827  p :     2.937202
      px      :     0.940006
      py      :     0.988369
      dz2     :     0.021568  d :     0.120994
      dxz     :     0.018760
      dyz     :     0.029023
      dx2y2   :     0.026622
      dxy     :     0.025021

  6 C s       :     1.005336  s :     1.005336
      pz      :     1.012869  p :     2.942399
      px      :     0.927139
      py      :     1.002390
      dz2     :     0.017808  d :     0.097446
      dxz     :     0.020651
      dyz     :     0.016827
      dx2y2   :     0.025826
      dxy     :     0.016334

  7 C s       :     1.015405  s :     1.015405
      pz      :     0.975601  p :     2.899710
      px      :     0.972519
      py      :     0.951590
      dz2     :     0.009695  d :     0.093734
      dxz     :     0.017115
      dyz     :     0.017258
      dx2y2   :     0.023465
      dxy     :     0.026201

  8 C s       :     1.029165  s :     1.029165
      pz      :     0.958064  p :     2.905745
      px      :     0.986196
      py      :     0.961485
      dz2     :     0.017628  d :     0.094287
      dxz     :     0.018427
      dyz     :     0.010627
      dx2y2   :     0.020782
      dxy     :     0.026823

  9 C s       :     0.983001  s :     0.983001
      pz      :     1.015915  p :     3.004754
      px      :     1.025818
      py      :     0.963022
      dz2     :     0.022082  d :     0.101411
      dxz     :     0.011043
      dyz     :     0.025466
      dx2y2   :     0.024606
      dxy     :     0.018215

 10 C s       :     1.063686  s :     1.063686
      pz      :     0.944455  p :     2.852647
      px      :     0.949542
      py      :     0.958650
      dz2     :     0.008362  d :     0.121030
      dxz     :     0.018558
      dyz     :     0.022171
      dx2y2   :     0.038210
      dxy     :     0.033729

 11 C s       :     0.984950  s :     0.984950
      pz      :     1.006353  p :     2.984702
      px      :     0.991264
      py      :     0.987084
      dz2     :     0.005839  d :     0.064865
      dxz     :     0.005366
      dyz     :     0.009111
      dx2y2   :     0.028236
      dxy     :     0.016313

 12 H s       :     0.919602  s :     0.919602
      pz      :     0.014040  p :     0.043244
      px      :     0.013282
      py      :     0.015921

 13 H s       :     0.922330  s :     0.922330
      pz      :     0.020763  p :     0.043253
      px      :     0.012498
      py      :     0.009992

 14 H s       :     0.922627  s :     0.922627
      pz      :     0.012250  p :     0.042953
      px      :     0.009711
      py      :     0.020992

 15 H s       :     0.923042  s :     0.923042
      pz      :     0.011444  p :     0.039511
      px      :     0.008786
      py      :     0.019281

 16 H s       :     0.922556  s :     0.922556
      pz      :     0.014426  p :     0.042101
      px      :     0.012301
      py      :     0.015374

 17 H s       :     0.918159  s :     0.918159
      pz      :     0.011315  p :     0.041571
      px      :     0.009765
      py      :     0.020491

 18 H s       :     0.921147  s :     0.921147
      pz      :     0.009272  p :     0.041506
      px      :     0.009826
      py      :     0.022408

 19 H s       :     0.908219  s :     0.908219
      pz      :     0.016661  p :     0.042000
      px      :     0.012032
      py      :     0.013307

 20 H s       :     0.915262  s :     0.915262
      pz      :     0.009527  p :     0.039824
      px      :     0.009056
      py      :     0.021241

 21 H s       :     0.900579  s :     0.900579
      pz      :     0.018093  p :     0.040388
      px      :     0.009007
      py      :     0.013288

 22 H s       :     0.913233  s :     0.913233
      pz      :     0.020125  p :     0.041619
      px      :     0.012042
      py      :     0.009451

 23 H s       :     0.922488  s :     0.922488
      pz      :     0.011883  p :     0.040939
      px      :     0.008833
      py      :     0.020223

 24 H s       :     0.931929  s :     0.931929
      pz      :     0.018219  p :     0.048379
      px      :     0.012522
      py      :     0.017638

 25 H s       :     0.934902  s :     0.934902
      pz      :     0.013418  p :     0.048322
      px      :     0.013251
      py      :     0.021654

 26 H s       :     0.896037  s :     0.896037
      pz      :     0.011635  p :     0.043483
      px      :     0.022192
      py      :     0.009656

 27 H s       :     0.891789  s :     0.891789
      pz      :     0.021759  p :     0.043776
      px      :     0.009549
      py      :     0.012468

 28 H s       :     0.929552  s :     0.929552
      pz      :     0.014854  p :     0.050609
      px      :     0.025541
      py      :     0.010214

 29 H s       :     0.925770  s :     0.925770
      pz      :     0.015001  p :     0.050821
      px      :     0.013070
      py      :     0.022749



                     *******************************
                     * LOEWDIN POPULATION ANALYSIS *
                     *******************************

----------------------
LOEWDIN ATOMIC CHARGES
----------------------
   0 C :   -0.118530
   1 C :   -0.082677
   2 C :   -0.078709
   3 C :   -0.074775
   4 C :   -0.060809
   5 C :   -0.063381
   6 C :   -0.074207
   7 C :   -0.047654
   8 C :   -0.053707
   9 C :   -0.088108
  10 C :   -0.028300
  11 C :   -0.080197
  12 H :    0.047636
  13 H :    0.046088
  14 H :    0.045012
  15 H :    0.045840
  16 H :    0.047471
  17 H :    0.046149
  18 H :    0.046100
  19 H :    0.052014
  20 H :    0.057055
  21 H :    0.054460
  22 H :    0.049252
  23 H :    0.046834
  24 H :    0.042108
  25 H :    0.039415
  26 H :    0.063502
  27 H :    0.058703
  28 H :    0.032044
  29 H :    0.031372

-------------------------------
LOEWDIN REDUCED ORBITAL CHARGES
-------------------------------
  0 C s       :     0.780128  s :     0.780128
      pz      :     1.061793  p :     3.093676
      px      :     0.975619
      py      :     1.056264
      dz2     :     0.036794  d :     0.244727
      dxz     :     0.063319
      dyz     :     0.039673
      dx2y2   :     0.055511
      dxy     :     0.049429

  1 C s       :     0.757739  s :     0.757739
      pz      :     0.969044  p :     2.938414
      px      :     0.951330
      py      :     1.018040
      dz2     :     0.073473  d :     0.386524
      dxz     :     0.081182
      dyz     :     0.083582
      dx2y2   :     0.090510
      dxy     :     0.057776

  2 C s       :     0.768882  s :     0.768882
      pz      :     0.982006  p :     3.000825
      px      :     0.960785
      py      :     1.058034
      dz2     :     0.050398  d :     0.309001
      dxz     :     0.072469
      dyz     :     0.069845
      dx2y2   :     0.065835
      dxy     :     0.050455

  3 C s       :     0.766417  s :     0.766417
      pz      :     0.982901  p :     2.992637
      px      :     0.957429
      py      :     1.052308
      dz2     :     0.061939  d :     0.315721
      dxz     :     0.074056
      dyz     :     0.054391
      dx2y2   :     0.076677
      dxy     :     0.048658

  4 C s       :     0.751273  s :     0.751273
      pz      :     0.960508  p :     2.932751
      px      :     0.955258
      py      :     1.016985
      dz2     :     0.088213  d :     0.376786
      dxz     :     0.079562
      dyz     :     0.063099
      dx2y2   :     0.091541
      dxy     :     0.054370

  5 C s       :     0.757155  s :     0.757155
      pz      :     1.004323  p :     2.935089
      px      :     0.945954
      py      :     0.984812
      dz2     :     0.066186  d :     0.371138
      dxz     :     0.057526
      dyz     :     0.090529
      dx2y2   :     0.081583
      dxy     :     0.075314

  6 C s       :     0.766394  s :     0.766394
      pz      :     1.029303  p :     2.993534
      px      :     0.953830
      py      :     1.010401
      dz2     :     0.058276  d :     0.314278
      dxz     :     0.068039
      dyz     :     0.053745
      dx2y2   :     0.082728
      dxy     :     0.051491

  7 C s       :     0.809015  s :     0.809015
      pz      :     0.948340  p :     2.934438
      px      :     1.014516
      py      :     0.971581
      dz2     :     0.029349  d :     0.304201
      dxz     :     0.055103
      dyz     :     0.056418
      dx2y2   :     0.074560
      dxy     :     0.088771

  8 C s       :     0.809877  s :     0.809877
      pz      :     0.927981  p :     2.937180
      px      :     1.020044
      py      :     0.989155
      dz2     :     0.057745  d :     0.306650
      dxz     :     0.059878
      dyz     :     0.032368
      dx2y2   :     0.066937
      dxy     :     0.089722

  9 C s       :     0.758036  s :     0.758036
      pz      :     1.027332  p :     3.015344
      px      :     1.016340
      py      :     0.971671
      dz2     :     0.068079  d :     0.314728
      dxz     :     0.033385
      dyz     :     0.076525
      dx2y2   :     0.081749
      dxy     :     0.054989

 10 C s       :     0.794645  s :     0.794645
      pz      :     0.848798  p :     2.853346
      px      :     0.991710
      py      :     1.012838
      dz2     :     0.026005  d :     0.380308
      dxz     :     0.056500
      dyz     :     0.065291
      dx2y2   :     0.123893
      dxy     :     0.108619

 11 C s       :     0.827905  s :     0.827905
      pz      :     0.936206  p :     3.037055
      px      :     1.053795
      py      :     1.047053
      dz2     :     0.019629  d :     0.215237
      dxz     :     0.015052
      dyz     :     0.023834
      dx2y2   :     0.100453
      dxy     :     0.056269

 12 H s       :     0.807085  s :     0.807085
      pz      :     0.048435  p :     0.145280
      px      :     0.045124
      py      :     0.051721

 13 H s       :     0.808711  s :     0.808711
      pz      :     0.061671  p :     0.145202
      px      :     0.043495
      py      :     0.040036

 14 H s       :     0.810282  s :     0.810282
      pz      :     0.044532  p :     0.144706
      px      :     0.038185
      py      :     0.061989

 15 H s       :     0.805847  s :     0.805847
      pz      :     0.044707  p :     0.148313
      px      :     0.039346
      py      :     0.064259

 16 H s       :     0.806229  s :     0.806229
      pz      :     0.049804  p :     0.146301
      px      :     0.044545
      py      :     0.051951

 17 H s       :     0.807121  s :     0.807121
      pz      :     0.043917  p :     0.146730
      px      :     0.039691
      py      :     0.063122

 18 H s       :     0.807282  s :     0.807282
      pz      :     0.040043  p :     0.146618
      px      :     0.039452
      py      :     0.067123

 19 H s       :     0.803018  s :     0.803018
      pz      :     0.054349  p :     0.144968
      px      :     0.043795
      py      :     0.046824

 20 H s       :     0.798370  s :     0.798370
      pz      :     0.039065  p :     0.144575
      px      :     0.037306
      py      :     0.068204

 21 H s       :     0.795094  s :     0.795094
      pz      :     0.061468  p :     0.150446
      px      :     0.039502
      py      :     0.049475

 22 H s       :     0.805545  s :     0.805545
      pz      :     0.061349  p :     0.145203
      px      :     0.043880
      py      :     0.039975

 23 H s       :     0.807618  s :     0.807618
      pz      :     0.044651  p :     0.145548
      px      :     0.036386
      py      :     0.064512

 24 H s       :     0.805743  s :     0.805743
      pz      :     0.055819  p :     0.152149
      px      :     0.041280
      py      :     0.055050

 25 H s       :     0.807918  s :     0.807918
      pz      :     0.044341  p :     0.152667
      px      :     0.043321
      py      :     0.065004

 26 H s       :     0.792640  s :     0.792640
      pz      :     0.041637  p :     0.143858
      px      :     0.065874
      py      :     0.036347

 27 H s       :     0.791671  s :     0.791671
      pz      :     0.064291  p :     0.149626
      px      :     0.040236
      py      :     0.045100

 28 H s       :     0.814785  s :     0.814785
      pz      :     0.047093  p :     0.153170
      px      :     0.068937
      py      :     0.037140

 29 H s       :     0.815135  s :     0.815135
      pz      :     0.047154  p :     0.153493
      px      :     0.044522
      py      :     0.061818



                      *****************************
                      * MAYER POPULATION ANALYSIS *
                      *****************************

  NA   - Mulliken gross atomic population
  ZA   - Total nuclear charge
  QA   - Mulliken gross atomic charge
  VA   - Mayer's total valence
  BVA  - Mayer's bonded valence
  FA   - Mayer's free valence

  ATOM       NA         ZA         QA         VA         BVA        FA
  0 C      4.0752     4.0000    -0.0752     3.9846     3.9846    -0.0000
  1 C      4.1030     4.0000    -0.1030     4.0126     4.0126    -0.0000
  2 C      4.0515     4.0000    -0.0515     3.9531     3.9531    -0.0000
  3 C      4.0307     4.0000    -0.0307     3.9342     3.9342     0.0000
  4 C      4.1069     4.0000    -0.1069     4.0260     4.0260     0.0000
  5 C      4.0848     4.0000    -0.0848     4.0030     4.0030     0.0000
  6 C      4.0452     4.0000    -0.0452     3.9287     3.9287     0.0000
  7 C      4.0088     4.0000    -0.0088     4.0257     4.0257     0.0000
  8 C      4.0292     4.0000    -0.0292     4.0194     4.0194     0.0000
  9 C      4.0892     4.0000    -0.0892     4.0211     4.0211     0.0000
 10 C      4.0374     4.0000    -0.0374     4.0961     4.0961     0.0000
 11 C      4.0345     4.0000    -0.0345     3.9862     3.9862     0.0000
 12 H      0.9628     1.0000     0.0372     1.0263     1.0263    -0.0000
 13 H      0.9656     1.0000     0.0344     1.0281     1.0281    -0.0000
 14 H      0.9656     1.0000     0.0344     1.0277     1.0277     0.0000
 15 H      0.9626     1.0000     0.0374     1.0070     1.0070    -0.0000
 16 H      0.9647     1.0000     0.0353     1.0211     1.0211    -0.0000
 17 H      0.9597     1.0000     0.0403     1.0117     1.0117    -0.0000
 18 H      0.9627     1.0000     0.0373     1.0085     1.0085     0.0000
 19 H      0.9502     1.0000     0.0498     1.0146     1.0146    -0.0000
 20 H      0.9551     1.0000     0.0449     1.0077     1.0077     0.0000
 21 H      0.9410     1.0000     0.0590     1.0040     1.0040     0.0000
 22 H      0.9549     1.0000     0.0451     1.0093     1.0093     0.0000
 23 H      0.9634     1.0000     0.0366     1.0197     1.0197     0.0000
[...]
 39:   1075.33   0.000813    4.11  0.000236  (-0.013058  0.003802  0.007146)
 40:   1094.89   0.000008    0.04  0.000002  ( 0.000914 -0.000959 -0.000731)
 41:   1145.13   0.000028    0.14  0.000008  (-0.001837 -0.000411 -0.002038)
 42:   1156.83   0.000329    1.66  0.000089  (-0.008673 -0.002603  0.002592)
 43:   1175.74   0.000321    1.62  0.000085  ( 0.006201 -0.003880  0.005626)
 44:   1181.49   0.000037    0.19  0.000010  (-0.002435  0.001325  0.001480)
 45:   1216.10   0.000139    0.70  0.000036  (-0.002489 -0.004248 -0.003388)
 46:   1229.07   0.000406    2.05  0.000103  ( 0.009094  0.004342 -0.001250)
 47:   1245.41   0.000160    0.81  0.000040  (-0.002822 -0.005484 -0.001452)
 48:   1283.19   0.000118    0.60  0.000029  ( 0.000049  0.001723 -0.005081)
 49:   1304.60   0.000495    2.50  0.000118  ( 0.007688  0.004850 -0.005975)
 50:   1322.03   0.000085    0.43  0.000020  ( 0.002168  0.003903  0.000243)
 51:   1342.41   0.000135    0.68  0.000031  (-0.004344  0.001858 -0.003024)
 52:   1347.10   0.000177    0.90  0.000041  (-0.005525 -0.000504 -0.003213)
 53:   1366.35   0.000094    0.47  0.000021  (-0.004295 -0.000141  0.001723)
 54:   1370.54   0.000075    0.38  0.000017  (-0.000529 -0.004032 -0.000707)
 55:   1383.39   0.000026    0.13  0.000006  ( 0.000731  0.000728  0.002182)
 56:   1391.93   0.000039    0.20  0.000009  ( 0.002785  0.000013 -0.001033)
 57:   1400.13   0.001090    5.51  0.000243  ( 0.014306 -0.006038 -0.001316)
 58:   1423.51   0.000430    2.17  0.000094  ( 0.005014 -0.000711 -0.008280)
 59:   1429.41   0.000038    0.19  0.000008  ( 0.002568 -0.000931 -0.000861)
 60:   1441.30   0.000463    2.34  0.000100  (-0.007693 -0.006373  0.000587)
 61:   1450.91   0.001043    5.27  0.000224  ( 0.014813  0.002211 -0.000066)
 62:   1458.54   0.000351    1.78  0.000075  (-0.000234 -0.008656  0.000462)
 63:   1487.14   0.001109    5.61  0.000233  (-0.004722  0.012919 -0.006601)
 64:   1506.32   0.003015   15.24  0.000625  (-0.021819 -0.000704 -0.012171)
 65:   1516.80   0.000446    2.26  0.000092  (-0.003984  0.008379  0.002399)
 66:   1521.83   0.000314    1.59  0.000064  (-0.001713 -0.007713 -0.001397)
 67:   1527.46   0.001476    7.46  0.000301  ( 0.004281 -0.016361  0.003930)
 68:   1528.47   0.001864    9.42  0.000381  ( 0.000851  0.004182  0.019035)
 69:   1544.02   0.001740    8.79  0.000352  (-0.001942 -0.015237  0.010760)
 70:   1777.97   0.004988   25.21  0.000875  ( 0.018999  0.022561 -0.002348)
 71:   1787.19   0.003052   15.43  0.000533  (-0.007968 -0.021165 -0.004642)
 72:   3075.08   0.002591   13.09  0.000263  (-0.003237 -0.005401  0.014942)
 73:   3080.23   0.001245    6.29  0.000126  (-0.003510 -0.006666  0.008332)
 74:   3084.82   0.004516   22.82  0.000457  (-0.011136  0.008188 -0.016302)
 75:   3085.27   0.004934   24.93  0.000499  (-0.007847 -0.020770 -0.002468)
 76:   3089.47   0.003906   19.74  0.000395  (-0.011621 -0.011074 -0.011698)
 77:   3091.97   0.012841   64.89  0.001296  ( 0.034132 -0.002725 -0.011116)
 78:   3105.84   0.002780   14.05  0.000279  (-0.004679  0.004267  0.015466)
 79:   3111.66   0.007900   39.93  0.000792  ( 0.007239 -0.022216  0.015695)
 80:   3141.42   0.001392    7.03  0.000138  ( 0.005392  0.009897  0.003352)
 81:   3142.49   0.007561   38.21  0.000751  ( 0.008156 -0.009798  0.024255)
 82:   3153.22   0.002695   13.62  0.000267  (-0.015724  0.001757  0.004045)
 83:   3163.45   0.006101   30.83  0.000602  (-0.003892 -0.022592 -0.008737)
 84:   3178.81   0.005686   28.73  0.000558  ( 0.006768 -0.022240  0.004214)
 85:   3184.54   0.004132   20.88  0.000405  (-0.000785 -0.001515 -0.020050)
 86:   3202.37   0.001893    9.57  0.000184  (-0.008412 -0.010622 -0.000950)
 87:   3209.37   0.001616    8.17  0.000157  ( 0.007700  0.002863  0.009468)
 88:   3238.01   0.004964   25.09  0.000478  (-0.004787  0.018825  0.010057)
 89:   3296.42   0.001364    6.89  0.000129  (-0.009669  0.005970  0.000137)

* The epsilon (eps) is given for a Dirac delta lineshape.
** The dipole moment derivative (T) already includes vibrational overlap.

The first frequency considered to be a vibration is 6
The total number of vibrations considered is 84


--------------------------
THERMOCHEMISTRY AT 298.15K
--------------------------

Temperature         ...   298.15 K
Pressure            ...     1.00 atm
Total Mass          ...   162.28 AMU
Quasi RRHO          ...     True
Cut-Off Frequency   ...     1.00 cm^-1

Throughout the following assumptions are being made:
  (1) The electronic state is orbitally nondegenerate
  (2) There are no thermally accessible electronically excited states
  (3) Hindered rotations indicated by low frequency modes are not
      treated as such but are treated as vibrations and this may
      cause some error
  (4) All equations used are the standard statistical mechanics
      equations for an ideal gas
  (5) All vibrations are strictly harmonic

freq.      74.39  E(vib)   ...       0.49 
freq.     104.66  E(vib)   ...       0.46 
freq.     135.94  E(vib)   ...       0.42 
freq.     172.59  E(vib)   ...       0.38 
freq.     196.33  E(vib)   ...       0.36 
freq.     251.57  E(vib)   ...       0.30 
freq.     271.31  E(vib)   ...       0.29 
freq.     306.37  E(vib)   ...       0.26 
freq.     337.72  E(vib)   ...       0.24 
freq.     412.22  E(vib)   ...       0.19 
freq.     423.36  E(vib)   ...       0.18 
freq.     447.86  E(vib)   ...       0.17 
freq.     493.64  E(vib)   ...       0.14 
freq.     507.99  E(vib)   ...       0.14 
freq.     572.64  E(vib)   ...       0.11 
freq.     596.06  E(vib)   ...       0.10 
freq.     610.39  E(vib)   ...       0.10 
freq.     717.07  E(vib)   ...       0.07 
freq.     751.16  E(vib)   ...       0.06 
freq.     772.67  E(vib)   ...       0.05 
freq.     811.40  E(vib)   ...       0.05 
freq.     868.19  E(vib)   ...       0.04 
freq.     891.20  E(vib)   ...       0.04 
freq.     926.60  E(vib)   ...       0.03 
freq.     936.68  E(vib)   ...       0.03 
freq.     952.45  E(vib)   ...       0.03 
freq.     961.61  E(vib)   ...       0.03 
freq.     979.08  E(vib)   ...       0.03 
freq.    1001.31  E(vib)   ...       0.02 
freq.    1022.91  E(vib)   ...       0.02 
freq.    1029.72  E(vib)   ...       0.02 
freq.    1039.55  E(vib)   ...       0.02 
freq.    1049.10  E(vib)   ...       0.02 
freq.    1075.33  E(vib)   ...       0.02 
freq.    1094.89  E(vib)   ...       0.02 
freq.    1145.13  E(vib)   ...       0.01 
freq.    1156.83  E(vib)   ...       0.01 
freq.    1175.74  E(vib)   ...       0.01 
freq.    1181.49  E(vib)   ...       0.01 
freq.    1216.10  E(vib)   ...       0.01 
freq.    1229.07  E(vib)   ...       0.01 
freq.    1245.41  E(vib)   ...       0.01 
freq.    1283.19  E(vib)   ...       0.01 
freq.    1304.60  E(vib)   ...       0.01 
freq.    1322.03  E(vib)   ...       0.01 
freq.    1342.41  E(vib)   ...       0.01 
freq.    1347.10  E(vib)   ...       0.01 
freq.    1366.35  E(vib)   ...       0.01 
freq.    1370.54  E(vib)   ...       0.01 
freq.    1383.39  E(vib)   ...       0.00 
freq.    1391.93  E(vib)   ...       0.00 
freq.    1400.13  E(vib)   ...       0.00 
freq.    1423.51  E(vib)   ...       0.00 
freq.    1429.41  E(vib)   ...       0.00 
freq.    1441.30  E(vib)   ...       0.00 
freq.    1450.91  E(vib)   ...       0.00 
freq.    1458.54  E(vib)   ...       0.00 
freq.    1487.14  E(vib)   ...       0.00 
freq.    1506.32  E(vib)   ...       0.00 
freq.    1516.80  E(vib)   ...       0.00 
freq.    1521.83  E(vib)   ...       0.00 
freq.    1527.46  E(vib)   ...       0.00 
freq.    1528.47  E(vib)   ...       0.00 
freq.    1544.02  E(vib)   ...       0.00 
freq.    1777.97  E(vib)   ...       0.00 
freq.    1787.19  E(vib)   ...       0.00 
freq.    3075.08  E(vib)   ...       0.00 
freq.    3080.23  E(vib)   ...       0.00 
freq.    3084.82  E(vib)   ...       0.00 
freq.    3085.27  E(vib)   ...       0.00 
freq.    3089.47  E(vib)   ...       0.00 
freq.    3091.97  E(vib)   ...       0.00 
freq.    3105.84  E(vib)   ...       0.00 
freq.    3111.66  E(vib)   ...       0.00 
freq.    3141.42  E(vib)   ...       0.00 
freq.    3142.49  E(vib)   ...       0.00 
freq.    3153.22  E(vib)   ...       0.00 
freq.    3163.45  E(vib)   ...       0.00 
freq.    3178.81  E(vib)   ...       0.00 
freq.    3184.54  E(vib)   ...       0.00 
freq.    3202.37  E(vib)   ...       0.00 
freq.    3209.37  E(vib)   ...       0.00 
freq.    3238.01  E(vib)   ...       0.00 
freq.    3296.42  E(vib)   ...       0.00 

------------
INNER ENERGY
------------

The inner energy is: U= E(el) + E(ZPE) + E(vib) + E(rot) + E(trans)
    E(el)   - is the total energy from the electronic structure calculation
              = E(kin-el) + E(nuc-el) + E(el-el) + E(nuc-nuc)
    E(ZPE)  - the the zero temperature vibrational energy from the frequency calculation
    E(vib)  - the the finite temperature correction to E(ZPE) due to population
              of excited vibrational states
    E(rot)  - is the rotational thermal energy
    E(trans)- is the translational thermal energy

Summary of contributions to the inner energy U:
Electronic energy                ...    -79.20722952 Eh
Zero point energy                ...      0.27951445 Eh     175.40 kcal/mol
Thermal vibrational correction   ...      0.00806850 Eh       5.06 kcal/mol
Thermal rotational correction    ...      0.00141627 Eh       0.89 kcal/mol
Thermal translational correction ...      0.00141627 Eh       0.89 kcal/mol
-----------------------------------------------------------------------
Total thermal energy                    -78.91681403 Eh


Summary of corrections to the electronic energy:
(perhaps to be used in another calculation)
Total thermal correction                  0.01090104 Eh       6.84 kcal/mol
Non-thermal (ZPE) correction              0.27951445 Eh     175.40 kcal/mol
-----------------------------------------------------------------------
Total correction                          0.29041550 Eh     182.24 kcal/mol


--------
ENTHALPY
--------

The enthalpy is H = U + kB*T
                kB is Boltzmann's constant
Total thermal energy              ...    -78.91681403 Eh 
Thermal Enthalpy correction       ...      0.00094421 Eh       0.59 kcal/mol
-----------------------------------------------------------------------
Total Enthalpy                    ...    -78.91586982 Eh


Note: Only C1 symmetry has been detected, increase convergence thresholds 
      if your molecule has a higher symmetry. Symmetry factor of 1.0 is   
      used for the rotational entropy correction. 
 

Note: Rotational entropy computed according to Herzberg 
Infrared and Raman Spectra, Chapter V,1, Van Nostrand Reinhold, 1945 
Point Group:  C1, Symmetry Number:   1  
Rotational constants in cm-1:     0.059706     0.022267     0.018899 

Vibrational entropy computed according to the QRRHO of S. Grimme
Chem.Eur.J. 2012 18 9955 using a reference frequency of 100.0 cm-1


-------
ENTROPY
-------

The entropy contributions are T*S = T*(S(el)+S(vib)+S(rot)+S(trans))
     S(el)   - electronic entropy
     S(vib)  - vibrational entropy
     S(rot)  - rotational entropy
     S(trans)- translational entropy
The entropies will be listed as multiplied by the temperature to get
units of energy

Electronic entropy                ...      0.00000000 Eh      0.00 kcal/mol
Vibrational entropy               ...      0.01337087 Eh      8.39 kcal/mol
Rotational entropy                ...      0.01451101 Eh      9.11 kcal/mol
Translational entropy             ...      0.01955690 Eh     12.27 kcal/mol
-----------------------------------------------------------------------
Final entropy term                ...      0.04743877 Eh     29.77 kcal/mol

In case the symmetry of your molecule has not been determined correctly
or in case you have a reason to use a different symmetry number we print 
out the resulting rotational entropy values for sn=1,12:

 non-linear molecules -----------------------------------
|  sn= 1 | S(rot)=       0.01451101 Eh      9.11 kcal/mol|
|  sn= 2 | S(rot)=       0.01385655 Eh      8.70 kcal/mol|
|  sn= 3 | S(rot)=       0.01347372 Eh      8.45 kcal/mol|
|  sn= 4 | S(rot)=       0.01320209 Eh      8.28 kcal/mol|
|  sn= 5 | S(rot)=       0.01299141 Eh      8.15 kcal/mol|
|  sn= 6 | S(rot)=       0.01281926 Eh      8.04 kcal/mol|
|  sn= 7 | S(rot)=       0.01267372 Eh      7.95 kcal/mol|
|  sn= 8 | S(rot)=       0.01254764 Eh      7.87 kcal/mol|
|  sn= 9 | S(rot)=       0.01243643 Eh      7.80 kcal/mol|
|  sn=10 | S(rot)=       0.01233695 Eh      7.74 kcal/mol|
|  sn=11 | S(rot)=       0.01224696 Eh      7.69 kcal/mol|
|  sn=12 | S(rot)=       0.01216481 Eh      7.63 kcal/mol|
 linear molecules ---------------------------------------
|  Dinfh | S(rot)=       0.00907291 Eh      5.69 kcal/mol|
|  Cinfv | S(rot)=       0.00972737 Eh      6.10 kcal/mol|
 --------------------------------------------------------


-------------------
GIBBS FREE ENERGY
-------------------

The Gibbs free energy is G = H - T*S

Total enthalpy                    ...    -78.91586982 Eh 
Total entropy correction          ...     -0.04743877 Eh    -29.77 kcal/mol
-----------------------------------------------------------------------
Final Gibbs free energy         ...    -78.96330859 Eh

For completeness - the Gibbs free energy minus the electronic energy
G-E(el)                           ...      0.24392093 Eh    153.06 kcal/mol


Maximum memory used throughout the entire PROP-calculation: 152.6 MB

--------------------------------
SUGGESTED CITATIONS FOR THIS RUN
--------------------------------

Below you find a list of papers that are relevant to this ORCA run
We neither can nor want to force you to cite these papers, but we appreciate if you do
You receive ORCA, which is the product of decades of hard work by many enthusiastic individuals, for free
The only thing we kindly ask in return is that you cite our papers,
We deeply appreciate it, if you show your appreciation for ORCA by not just citing the generic ORCA reference.

Please note that relegating all ORCA citations to the supporting information does *not* help us.
SI sections are not indexed - citations you put there will not count into any citation statistics
But we need these citations in order to attract the funding resources that allow us to do what we are doing

Therefore, if you are a happy ORCA user, please consider citing a few of the papers listed below in the main body of your paper

In addition to the list printed below, the program has created the file ./output/_z_cadina_1_6_4_diene/_z_cadina_1_6_4_diene.bibtex that contains the list in bibtex format
You can import this file easily into all common literature databanks and citation aid programs


List of essential papers. We consider these as the minimum necessary citations

  1. Neese,F.
     Software update: the ORCA program system, version 5.0
     WIRES Comput. Molec. Sci., 2022 12(1)e1606
     doi.org/10.1002/wcms.1606
  2. Mueller,M.; Hansen,A.; Grimme,S.
     wB97X-3c: A composite range-separated hybrid DFT method with a molecule-optimized polarized valence double-zeta basis set
     J. Chem. Phys., 2023 158 014103
     doi.org/10.1063/5.0133026

List of papers to cite with high priority. The work reported in these papers was absolutely
necessary for this run to complete.
Our perspective: the developers of density functionals and basis sets usually get cited in chemistry papers
Good! But without the algorithms to do something with them, the functionals or basis sets would not do anything.
Hence, in our opinion, the algorithm design and method developments papers are equally worthy of getting cited

  1. Neese,F.
     An improvement of the resolution of the identity approximation for the formation of the Coulomb matrix
     J. Comp. Chem., 2003 24(14)1740-1747
     doi.org/10.1002/jcc.10318
  2. Neese,F.; Wennmohs,F.; Hansen,A.; Becker,U.
     Efficient, approximate and parallel Hartree-Fock and hybrid DFT calculations. A 'chain-of-spheres' algorithm for the Hartree-Fock exchange
     Chem. Phys., 2009 356(1-3)98-109
     doi.org/10.1016/j.chemphys.2008.10.036
  3. Bykov,D.; Petrenko,T.; Izsak,R.; Kossmann,S.; Becker,U.; Valeev,E.; Neese,F.
     Efficient implementation of the analytic second derivatives of Hartree-Fock and hybrid DFT energies: a detailed analysis of different approximations
     Molec. Phys., 2015 113 1961-1977
     doi.org/10.1080/00268976.2015.1025114
  4. Helmich-Paris,B.; de Souza,B.; Neese,F.; Izsák,R.
     An improved chain of spheres for exchange algorithm
     J. Chem. Phys., 2021 155 104109
     doi.org/doi: 10.1063/5.0058766.
  5. Neese,F.
     The SHARK Integral Generation and Digestion System
     J. Comp. Chem., 2022  1-16
     doi.org/10.1002/jcc.26942
  6. Caldeweyher,E.; Bannwarth,C.; Grimme,S.
     Extension of the D3 dispersion coefficient model
     J. Chem. Phys., 2017 147 034112
     doi.org/10.1063/1.4993215
  7. Caldeweyher,E.; Ehlert,S.; Hansen,A.; Neugebauer,H.; Spicher,S.; Bannwarth,C.; Grimme,S.
     A generally applicable atomic-charge dependent London dispersion correction
     J. Chem. Phys., 2019 150 154122
     doi.org/10.1063/1.5090222
  8. Caldeweyher,E.; Mewes,J.; Ehlert,S.; Grimme,S.
     Extension and evaluation of the D4 London-dispersion model for periodic systems
     Phys. Chem. Chem. Phys., 2020 22(16)8499-8512
     doi.org/10.1039/D0CP00502A
  9. Wittmann,L.; Gordiy,I.; Friede,M.; Helmich-Paris,B.; Grimme,S.; Hansen,A.; Bursch,M.
     Extension of the D3 and D4 London Dispersion Corrections to the full Actinides Series
     Phys. Chem. Chem. Phys., 2024 26(32)21379-21394
     doi.org/https://doi.org/10.1039/D4CP01514B 

List of suggested additional citations. These are papers that are important in the 'surrounding' of 
of this run, or papers that preceded the highly important papers. If you like your results we are grateful for a citation.

  1. Izsak,R.; Neese,F.
     An overlap fitted chain of spheres exchange method
     J. Chem. Phys., 2011 135 144105
     doi.org/10.1063/1.3646921
  2. Izsak,R.; Hansen,A.; Neese,F.
     The resolution of identity and chain of spheres approximations for the LPNO-CCSD singles Fock term
     Molec. Phys., 2012 110 2413-2417
     doi.org/10.1080/00268976.2012.687466
  3. Neese,F.
     The ORCA program system
     WIRES Comput. Molec. Sci., 2012 2(1)73-78
     doi.org/10.1002/wcms.81
  4. Izsak,R.; Neese,F.; Klopper,W.
     Robust fitting techniques in the chain of spheres approximation to the Fock exchange: The role of the complementary space
     J. Chem. Phys., 2013 139 
     doi.org/10.1063/1.4819264
  5. Neese,F.
     Software update: the ORCA program system, version 4.0
     WIRES Comput. Molec. Sci., 2018 8(1)1-6
     doi.org/10.1002/wcms.1327
  6. Neese,F.; Wennmohs,F.; Becker,U.; Riplinger,C.
     The ORCA quantum chemistry program package
     J. Chem. Phys., 2020 152 Art. No. L224108
     doi.org/10.1063/5.0004608

List of optional additional citations

  1. Neese,F.
     Approximate second-order SCF convergence for spin unrestricted wavefunctions
     Chem. Phys. Lett., 2000 325(1-3)93-98
     doi.org/10.1016/s0009-2614(00)00662-x

Timings for individual modules:

Sum of individual times          ...      824.913 sec (=  13.749 min)
Startup calculation              ...       37.520 sec (=   0.625 min)   4.5 %
SCF iterations                   ...      454.516 sec (=   7.575 min)  55.1 %
Property integrals               ...       70.934 sec (=   1.182 min)   8.6 %
SCF Response                     ...       44.433 sec (=   0.741 min)   5.4 %
Property calculations            ...      119.713 sec (=   1.995 min)  14.5 %
SCF Gradient evaluation          ...       97.551 sec (=   1.626 min)  11.8 %
Geometry relaxation              ...        0.247 sec (=   0.004 min)   0.0 %
                             ****ORCA TERMINATED NORMALLY****
TOTAL RUN TIME: 0 days 0 hours 13 minutes 49 seconds 386 msec
