
                                 *****************
                                 * O   R   C   A *
                                 *****************

                                            #,                                       
                                            ###                                      
                                            ####                                     
                                            #####                                    
                                            ######                                   
                                           ########,                                 
                                     ,,################,,,,,                         
                               ,,#################################,,                 
                          ,,##########################################,,             
                       ,#########################################, ''#####,          
                    ,#############################################,,   '####,        
                  ,##################################################,,,,####,       
                ,###########''''           ''''###############################       
              ,#####''   ,,,,##########,,,,          '''####'''          '####       
            ,##' ,,,,###########################,,,                        '##       
           ' ,,###''''                  '''############,,,                           
         ,,##''                                '''############,,,,        ,,,,,,###''
      ,#''                                            '''#######################'''  
     '                                                          ''''####''''         
             ,#######,   #######,   ,#######,      ##                                
            ,#'     '#,  ##    ##  ,#'     '#,    #''#        ,####,   ,####,        
            ##       ##  ##   ,#'  ##            #'  '#       #'       #'  '#        
            ##       ##  #######   ##           ,######,      #####,   #    #        
            '#,     ,#'  ##    ##  '#,     ,#' ,#      #,     #,   #   #,  ,#        
             '#######'   ##     ##  '#######'  #'      '#     '####' # '####'        



                #########################################################
                #                        -***-                          #
                #          Department of theory and spectroscopy        #
                #                                                       #
                #                      Frank Neese                      #
                #                                                       #
                #     Directorship, Architecture, Infrastructure        #
                #                    SHARK, DRIVERS                     #
                #        Core code/Algorithms in most modules           #
                #                                                       #
                #        Max Planck Institute fuer Kohlenforschung      #
                #                Kaiser Wilhelm Platz 1                 #
                #                 D-45470 Muelheim/Ruhr                 #
                #                      Germany                          #
                #                                                       #
                #                  All rights reserved                  #
                #                        -***-                          #
                #########################################################


                         Program Version 6.0.1  -  RELEASE   -


 With contributions from (in alphabetic order):
[Max-Planck-Institut fuer Kohlenforschung]                               
  Daniel Aravena         : Magnetic Suceptibility                        
  Michael Atanasov       : Ab Initio Ligand Field Theory (pilot matlab implementation)
  Alexander A. Auer      : GIAO ZORA, VPT2 properties, NMR spectrum      
  Ute Becker             : All parallelization in ORCA, NUMFREQ, NUMCALC 
  Giovanni Bistoni       : ED, misc. LED, open-shell LED, HFLD           
  Martin Brehm           : Molecular dynamics                            
  Dmytro Bykov           : pre 5.0 version of the SCF Hessian            
  Marcos Casanova-Páez   : Triplet and SCS-CIS(D). UHF-(DLPNO)-IP/EA/STEOM-CCSD. UHF-CVS-IP/STEOM-CCSD   
  Vijay G. Chilkuri      : MRCI spin determinant printing, contributions to CSF-ICE 
  Pauline Colinet        : FMM embedding                                 
  Dipayan Datta          : RHF DLPNO-CCSD density                        
  Achintya Kumar Dutta   : EOM-CC, STEOM-CC                              
  Nicolas Foglia         : Exact transition moments, OPA infrastructure, MCD improvements    
  Dmitry Ganyushin       : Spin-Orbit,Spin-Spin,Magnetic field MRCI      
  Miquel Garcia-Rates    : C-PCM and meta-GGA Hessian, CCSD/C-PCM, Gaussian charge scheme 
  Tiago L. C. Gouveia    : GS-ROHF, GS-ROCIS                             
  Yang Guo               : DLPNO-NEVPT2, F12-NEVPT2, CIM, IAO-localization        
  Andreas Hansen         : Spin unrestricted coupled pair/coupled cluster methods 
  Ingolf Harden          : AUTO-CI MPn and infrastructure                
  Benjamin Helmich-Paris : MC-RPA, TRAH-(SCF,CASSCF), AVAS, COSX integrals, SCF dyn. polar. 
  Lee Huntington         : MR-EOM, pCC                                   
  Robert Izsak           : Overlap fitted RIJCOSX, COSX-SCS-MP3, EOM     
  Riya Kayal             : Wick's Theorem for AUTO-CI, AUTO-CI UHF-CCSDT 
  Emily Kempfer          : AUTO-CI, RHF CISDT and CCSDT                  
  Christian Kollmar      : KDIIS, OOCD, Brueckner-CCSD(T), CCSD density, CASPT2, CASPT2-K, improved NEVPT2 
  Axel Koslowski         : Symmetry handling                             
  Simone Kossmann        : meta-GGA functionals, TD-DFT gradient, OOMP2, (MP2 Hessian; deprecated post 5.0) 
  Lucas Lang             : DCDCAS                                        
  Marvin Lechner         : AUTO-CI (C++ implementation), FIC-MRCC        
  Spencer Leger          : CASSCF response                               
  Dagmar Lenk            : GEPOL surface, SMD, ORCA-2-JSON               
  Dimitrios Liakos       : Extrapolation schemes; Compound Job, initial MDCI parallelization 
  Dimitrios Manganas     : Further ROCIS development; embedding schemes. LFT, Crystal Embedding 
  Dimitrios Pantazis     : SARC Basis sets                               
  Anastasios Papadopoulos: AUTO-CI, single reference methods and gradients 
  Taras Petrenko         : pre 6.0 DFT Hessian and TD-DFT gradient, (ASA, deprecated), ECA, 1-Electron XAS/XES, NRVS 
  Peter Pinski           : DLPNO-MP2, DLPNO-MP2 Gradient                 
  Christoph Reimann      : Effective Core Potentials                     
  Marius Retegan         : Local ZFS, SOC                                
  Christoph Riplinger    : Optimizer, TS searches, QM/MM, DLPNO-CCSD(T), (RO)-DLPNO pert. Triples 
  Michael Roemelt        : Original ROCIS implementation                 
  Masaaki Saitow         : Open-shell DLPNO-CCSD energy and density      
  Barbara Sandhoefer     : DKH picture change effects                    
  Kantharuban Sivalingam : CASSCF convergence/infrastructure, NEVPT2 and variants, FIC-MRCI 
  Bernardo de Souza      : ESD, SOC TD-DFT                               
  Georgi L. Stoychev     : AutoAux, RI-MP2 NMR, DLPNO-MP2 response, X2C  
  Van Anh Tran           : RI-MP2 g-tensors                              
  Willem Van den Heuvel  : Paramagnetic NMR                              
  Zikuan Wang            : NOTCH, Electric field optimization            
  Frank Wennmohs         : Technical directorship and infrastructure     
  Hang Xu                : AUTO-CI-Response properties                   
                                                                         
[FACCTs GmbH]                                                            
  Markus Bursch, Miquel Garcia-Rates, Christoph Riplinger, Bernardo de Souza, Georgi L. Stoychev 
                                                                 
  APM, Basis sets (HGBS, AHGBS, def-TZVP (Ac-Lr), def2-XVPD (La-Lu)), CI-OPT, improved COSX, DLPNO-Multilevel,           
  DOCKER, DRACO, updates on ESD, GOAT, IRC, LR-CPCM, MBIS, meta-GGA TD-DFT gradient, ML-optimized integration grids, 
  MM, NACMEs, nearIR, NEB, NEB-TS, NL-DFT gradient (VV10), 2- and 3-layer-ONIOM, interface openCOSMO-RS, QMMM,   
  Crystal-QMMM, SF, symmetry and pop. for TD-DFT, r2SCAN hybrids, SOLVATOR                                   
                                                                         
[Other institutions]                                                     
  V. Asgeirsson          : NEB                                           
  Christoph Bannwarth    : sTDA-DFT, sTD-DFT, PBEh-3c, B97-3c, D3        
  Sebastian Ehlert       : rSCAN, r2SCAN, r2SCAN-3c, D4, dhf basis sets  
  Marvin Friede          : D4 for Fr, Ra, Ac-Lr                          
  Lars Goerigk           : TD-DFT with DH, B97 family of functionals     
  Stefan Grimme          : VdW corrections, initial TS optimization, DFT functionals, gCP, sTDA/sTD-DF 
  Waldemar Hujo          : DFT-NL                                        
  H. Jonsson             : NEB                                           
  Holger Kruse           : gCP                                           
  Marcel Mueller         : wB97X-3c, vDZP basis set                      
  Hagen Neugebauer       : wr2SCAN                                       
  Tobias Risthaus        : range-separated hybrid DFT                    
  Lukas Wittmann         : regularized MP2, r2SCAN double-hybrids, wr2SCAN        
                                                                         
We gratefully acknowledge several colleagues who have allowed us to      
interface, adapt or use parts of their codes:                            
  Ed Valeev, F. Pavosevic, A. Kumar             : LibInt (2-el integral package), F12 methods 
  Garnet Chan, S. Sharma, J. Yang, R. Olivares  : DMRG                   
  Ulf Ekstrom                                   : XCFun DFT Library      
  Mihaly Kallay                                 : mrcc  (arbitrary order and MRCC methods)
  Frank Weinhold                                : gennbo (NPA and NBO analysis)           
  Simon Mueller                                 : openCOSMO-RS                            
  Christopher J. Cramer and Donald G. Truhlar   : smd solvation model                     
  S Lehtola, MJT Oliveira, MAL Marques          : LibXC Library                           
  Liviu Ungur et al                             : ANISO software                          


 Your calculation uses the libint2 library for the computation of 2-el integrals
 For citations please refer to: http://libint.valeyev.net

 Your ORCA version has been built with support for libXC version: 6.2.2
 For citations please refer to: https://libxc.gitlab.io

 This ORCA versions uses:
   CBLAS   interface :  Fast vector & matrix operations
   LAPACKE interface :  Fast linear algebra routines
   SCALAPACK package :  Parallel linear algebra routines
   Shared memory     :  Shared parallel matrices
   BLAS/LAPACK       :  OpenBLAS 0.3.27  USE64BITINT DYNAMIC_ARCH NO_AFFINITY SkylakeX SINGLE_THREADED
        Core in use  :  SkylakeX
   Copyright (c) 2011-2014, The OpenBLAS Project


Your calculation utilizes the atom-pairwise dispersion correction
based on EEQ partial charges (D4)


================================================================================

cite the ECPs for C  [vDZP-ECP] as follows:
   B-Ne (ecp-2-mwb), Al-Ar (ecp-10-mwb), Ga-Kr (ecp-28-mwb), Y-Cd (ecp-28-mwb), In-Xe (ecp-46-mwb):
     A. Bergner, M. Dolg, W. Küchle, H. Stoll, and H. Preuß, Mol. Phys. 80, 1431 (1993)., T. Leininger, A. Berning, A. Nicklass, H. Stoll, H.-J. Werner, and H.-J.Flad, Chem. Phys. 217, 19 (1997).
   Na-Mg, K-Ca, Rb-Sr, Cs-Ba (CRENBL):
     L. Fernandez Pacios and P. A. Christiansen, J. Chem. Phys. 82, 2664 (1985)., M. M. Hurley, L. F. Pacios, P. A. Christiansen, R. B. Ross, and W. C. Ermler, J. Chem. Phys. 84, 6840 (1986)., L. A. LaJohn, P. A. Christiansen, R. B. Ross, T. Atashroo, and W. C. Ermler, J. Chem. Phys. 87, 2812 (1987)., R. B. Ross, J. M. Powers, T. Atashroo, W. C. Ermler, L. A. LaJohn, and P. A. Christiansen, J. Chem. Phys. 93, 6654 (1990). 
   Sc-Zn (ecp-10-mdf):
     M. Dolg, U. Wedig, H. Stoll, and H. Preuss, J. Chem. Phys. 86, 866 (1986). 
   Y-Cd (ecp-28-mwb), Hf-Hg (ecp-60-mwb):
     D. Andrae, U. Häußermann, M. Dolg, H. Stoll, and H. Preuß, Theor. Chim. Acta 77, 123 (1990). 
   La (ecp-46-mwb):
     M. Dolg, H. Stoll, and H. Preuss, J. Chem. Phys. 90, 1730 (1989)., M. Dolg, H. Stoll, and H. Preuss, Theor. Chim. Acta 85, 441 (1993).
   Ce-Lu (SBKJC-ecp):
     T. R. Cundari and W. J. Stevens, J. Chem. Phys. 98, 5555 (1993).
   Tl-Rn (ecp-78-mwb):
     W. Küchle, M. Dolg, H. Stoll, and H. Preuss, Mol. Phys. 74, 1245 (1991).

ECP parameters for C  [vDZP-ECP] have been obtained from:
MM, AH, SG, J. Chem. Phys. 158, 014103 (2023), 10.1063/5.0133026

----- Orbital basis set information -----
Your calculation utilizes the basis: vDZP
   Marcel Mueller, Andreas Hansen, Stefan Grimme 
   J. Chem. Phys. 158, 014103 (2023). DOI: 10.1063/5.0133026

----- AuxJ basis set information -----
Your calculation utilizes the auxiliary basis: def2/J
   F. Weigend, Phys. Chem. Chem. Phys. 8, 1057 (2006).

================================================================================
                                        WARNINGS
                       Please study these warnings very carefully!
================================================================================

WARNING: Frozen-Core approximation turned on, but there are no core electrons.
  ===> : Turning off frozen-core approximation


WARNING: Geometry Optimization
  ===> : Switching off AutoStart
         For restart on a previous wavefunction, please use MOREAD

================================================================================
                                       INPUT FILE
================================================================================
NAME = ./output/beta_phellandrene/beta_phellandrene.inp
|  1> ! wB97X-3c OPT FREQ TightSCF
|  2> %pal
|  3>   nprocs 40
|  4> end
|  5> * xyz 0 1
|  6> C     -1.125975    -1.615095    -0.509272
|  7> C     -1.624374    -0.562111     0.493887
|  8> C     -2.953196     0.039958     0.005746
|  9> C     -0.581140     0.553069     0.813640
| 10> C      0.660623     0.049614     1.595167
| 11> C      1.815251    -0.438008     0.706930
| 12> C      2.083133     0.505997    -0.434215
| 13> C      3.280500     0.514750    -1.025096
| 14> C      0.996276     1.348846    -0.966656
| 15> C     -0.211035     1.381134    -0.398748
| 16> H     -0.662161    -1.140003    -1.398814
| 17> H     -0.400440    -2.295467    -0.022875
| 18> H     -1.968160    -2.252628    -0.853944
| 19> H     -1.854535    -1.093614     1.444314
| 20> H     -3.313277     0.816085     0.714123
| 21> H     -2.838431     0.493693    -1.001385
| 22> H     -3.731226    -0.751011    -0.054007
| 23> H     -1.091629     1.255118     1.510678
| 24> H      0.374021    -0.756806     2.304231
| 25> H      1.046363     0.892464     2.211584
| 26> H      2.723370    -0.532702     1.342729
| 27> H      1.603572    -1.444121     0.298679
| 28> H      3.482633     1.161944    -1.869835
| 29> H      4.078584    -0.127158    -0.672935
| 30> H      1.177859     1.973073    -1.834020
| 31> H     -0.966606     2.022982    -0.834480
| 32> *
| 33> 
| 34>                          ****END OF INPUT****
================================================================================

                       *****************************
                       * Geometry Optimization Run *
                       *****************************

Geometry optimization settings:
Update method            Update   .... BFGS
Choice of coordinates    CoordSys .... (2022) Redundant Internals
Initial Hessian          InHess   .... Almloef's Model
Max. no of cycles        MaxIter  .... 78

Convergence Tolerances:
Energy Change            TolE     ....  5.0000e-06 Eh
Max. Gradient            TolMAXG  ....  3.0000e-04 Eh/bohr
RMS Gradient             TolRMSG  ....  1.0000e-04 Eh/bohr
Max. Displacement        TolMAXD  ....  4.0000e-03 bohr
RMS Displacement         TolRMSD  ....  2.0000e-03 bohr
Strict Convergence                .... False

------------------------------------------------------------------------------
                        ORCA OPTIMIZATION COORDINATE SETUP
------------------------------------------------------------------------------

The optimization will be done in redundant internal coordinates (2022)
Making redundant internal coordinates   ...  (2022 redundants) done
Evaluating the initial hessian          ...  (Almloef) done
Evaluating the coordinates              ...  done
Calculating the B-matrix                .... done
Calculating the G-matrix                .... done
Diagonalizing the G-matrix              .... done
Small eigenvalue found = 2.063e-02
Small eigenvalue found = 2.977e-02
The first mode is                       ....   54
The number of degrees of freedom        ....   72

    -----------------------------------------------------------------
                    Redundant Internal Coordinates


    -----------------------------------------------------------------
         Definition                    Initial Value    Approx d2E/dq
    -----------------------------------------------------------------
      1. B(C   1,C   0)                  1.5374         0.363597   
      2. B(C   2,C   1)                  1.5384         0.362282   
      3. B(C   3,C   1)                  1.5602         0.334353   
      4. B(C   4,C   3)                  1.5512         0.345582   
      5. B(C   5,C   4)                  1.5362         0.365164   
      6. B(C   6,C   5)                  1.5050         0.409462   
      7. B(C   7,C   6)                  1.3353         0.763979   
      8. B(C   8,C   6)                  1.4748         0.457494   
      9. B(C   9,C   8)                  1.3346         0.765813   
     10. B(C   9,C   3)                  1.5141         0.396019   
     11. B(H  10,C   0)                  1.1100         0.334580   
     12. B(H  11,C   0)                  1.1072         0.338052   
     13. B(H  12,C   0)                  1.1111         0.333253   
     14. B(H  13,C   1)                  1.1130         0.330917   
     15. B(H  14,C   2)                  1.1108         0.333635   
     16. B(H  15,C   2)                  1.1106         0.333895   
     17. B(H  16,C   2)                  1.1111         0.333247   
     18. B(H  17,C   3)                  1.1133         0.330616   
     19. B(H  18,C   4)                  1.1114         0.332866   
     20. B(H  19,C   4)                  1.1132         0.330710   
     21. B(H  20,C   5)                  1.1126         0.331406   
     22. B(H  21,C   5)                  1.1062         0.339260   
     23. B(H  22,C   7)                  1.0832         0.369222   
     24. B(H  23,C   7)                  1.0831         0.369410   
     25. B(H  24,C   8)                  1.0840         0.368190   
     26. B(H  25,C   9)                  1.0829         0.369587   
     27. A(C   1,C   0,H  11)          110.2838         0.319560   
     28. A(C   1,C   0,H  10)          111.4213         0.319022   
     29. A(H  10,C   0,H  12)          108.2829         0.284058   
     30. A(H  11,C   0,H  12)          106.2829         0.284515   
     31. A(H  10,C   0,H  11)          109.9530         0.284691   
     32. A(C   1,C   0,H  12)          110.4685         0.318816   
     33. A(C   0,C   1,C   3)          113.9866         0.354915   
     34. A(C   2,C   1,H  13)          106.2144         0.318262   
     35. A(C   0,C   1,H  13)          107.2873         0.318450   
     36. A(C   0,C   1,C   2)          109.9403         0.359788   
     37. A(C   3,C   1,H  13)          107.7338         0.314137   
     38. A(C   2,C   1,C   3)          111.2767         0.354697   
     39. A(H  15,C   2,H  16)          108.3270         0.283967   
     40. A(C   1,C   2,H  16)          110.0789         0.318626   
     41. A(C   1,C   2,H  15)          111.0017         0.318727   
     42. A(C   1,C   2,H  14)          110.5556         0.318687   
     43. A(H  14,C   2,H  15)          109.0481         0.284018   
     44. A(H  14,C   2,H  16)          107.7407         0.283933   
     45. A(C   9,C   3,H  17)          105.5782         0.322881   
     46. A(C   4,C   3,H  17)          104.8507         0.315779   
     47. A(C   1,C   3,H  17)          105.8106         0.314090   
     48. A(C   4,C   3,C   9)          112.6589         0.362141   
     49. A(C   1,C   3,C   9)          112.9697         0.360106   
     50. A(C   1,C   3,C   4)          113.9878         0.351874   
     51. A(C   3,C   4,C   5)          114.4180         0.357172   
     52. A(C   5,C   4,H  19)          107.4616         0.318641   
     53. A(H  18,C   4,H  19)          106.5862         0.283494   
     54. A(C   3,C   4,H  19)          108.0980         0.315794   
     55. A(C   5,C   4,H  18)          109.4140         0.318979   
     56. A(C   3,C   4,H  18)          110.5175         0.316128   
     57. A(C   4,C   5,C   6)          111.9063         0.367667   
     58. A(H  20,C   5,H  21)          106.8381         0.284427   
     59. A(C   6,C   5,H  21)          108.9478         0.326035   
     60. A(C   4,C   5,H  21)          110.9932         0.319971   
     61. A(C   6,C   5,H  20)          109.9617         0.324782   
     62. A(C   4,C   5,H  20)          108.0638         0.318750   
     63. A(C   5,C   6,C   7)          119.9505         0.418342   
     64. A(C   7,C   6,C   8)          119.8234         0.426715   
     65. A(C   5,C   6,C   8)          120.0673         0.382254   
     66. A(H  22,C   7,H  23)          118.0466         0.293162   
     67. A(C   6,C   7,H  23)          120.8648         0.367285   
     68. A(C   6,C   7,H  22)          121.0885         0.367253   
     69. A(C   6,C   8,C   9)          121.7929         0.426899   
     70. A(C   9,C   8,H  24)          118.5620         0.367228   
     71. A(C   6,C   8,H  24)          119.6393         0.336605   
     72. A(C   3,C   9,C   8)          123.2724         0.416041   
     73. A(C   8,C   9,H  25)          118.3132         0.367466   
     74. A(C   3,C   9,H  25)          118.4103         0.328854   
     75. D(C   3,C   1,C   0,H  12)   -168.3667         0.010592   
     76. D(C   2,C   1,C   0,H  11)   -159.8341         0.010592   
     77. D(C   2,C   1,C   0,H  12)    -42.6396         0.010592   
     78. D(C   2,C   1,C   0,H  10)     77.7672         0.010592   
     79. D(C   3,C   1,C   0,H  11)     74.4388         0.010592   
     80. D(C   3,C   1,C   0,H  10)    -47.9599         0.010592   
     81. D(H  15,C   2,C   1,C   3)     69.4534         0.010521   
     82. D(H  15,C   2,C   1,H  13)   -173.5680         0.010521   
     83. D(H  14,C   2,C   1,C   0)   -178.9534         0.010521   
     84. D(H  15,C   2,C   1,C   0)    -57.8012         0.010521   
     85. D(H  14,C   2,C   1,H  13)     65.2798         0.010521   
     86. D(H  14,C   2,C   1,C   3)    -51.6988         0.010521   
     87. D(C   4,C   3,C   1,C   2)    167.3988         0.009080   
     88. D(C   4,C   3,C   1,C   0)    -67.5820         0.009080   
     89. D(C   9,C   3,C   1,H  13)   -178.3660         0.009080   
     90. D(C   9,C   3,C   1,C   2)    -62.3171         0.009080   
     91. D(C   9,C   3,C   1,C   0)     62.7021         0.009080   
     92. D(C   4,C   3,C   1,H  13)     51.3499         0.009080   
     93. D(H  18,C   4,C   3,H  17)     80.4644         0.009642   
     94. D(H  18,C   4,C   3,C   9)   -165.2197         0.009642   
     95. D(H  18,C   4,C   3,C   1)    -34.7818         0.009642   
     96. D(C   5,C   4,C   3,H  17)   -155.5026         0.009642   
     97. D(C   5,C   4,C   3,C   9)    -41.1867         0.009642   
     98. D(C   5,C   4,C   3,C   1)     89.2512         0.009642   
     99. D(H  20,C   5,C   4,H  19)     46.1852         0.010677   
    100. D(H  20,C   5,C   4,H  18)    -69.1649         0.010677   
    101. D(H  20,C   5,C   4,C   3)    166.2150         0.010677   
    102. D(C   6,C   5,C   4,H  19)    -75.0257         0.010677   
    103. D(C   6,C   5,C   4,H  18)    169.6241         0.010677   
    104. D(C   6,C   5,C   4,C   3)     45.0040         0.010677   
    105. D(C   7,C   6,C   5,C   4)    157.2808         0.012419   
    106. D(C   8,C   6,C   5,H  20)   -147.4138         0.012419   
    107. D(C   8,C   6,C   5,C   4)    -27.3062         0.012419   
    108. D(C   7,C   6,C   5,H  21)    -79.6048         0.012419   
    109. D(C   7,C   6,C   5,H  20)     37.1732         0.012419   
    110. D(H  23,C   7,C   6,C   8)   -177.5111         0.041776   
    111. D(H  23,C   7,C   6,C   5)     -2.0868         0.041776   
    112. D(H  22,C   7,C   6,C   8)      2.4379         0.041776   
    113. D(H  22,C   7,C   6,C   5)    177.8622         0.041776   
    114. D(H  24,C   8,C   6,C   7)     -0.1721         0.014260   
    115. D(H  24,C   8,C   6,C   5)   -175.5910         0.014260   
    116. D(C   9,C   8,C   6,C   7)   -179.2842         0.014260   
    117. D(C   9,C   8,C   6,C   5)      5.2969         0.014260   
    118. D(H  25,C   9,C   8,H  24)      0.6627         0.041997   
    119. D(H  25,C   9,C   8,C   6)    179.7840         0.041997   
    120. D(C   3,C   9,C   8,H  24)    179.9109         0.041997   
    121. D(C   3,C   9,C   8,C   6)     -0.9677         0.041997   
    122. D(H  25,C   9,C   3,C   4)   -161.6334         0.011650   
    123. D(H  25,C   9,C   3,C   1)     67.4145         0.011650   
    124. D(C   8,C   9,C   3,H  17)    132.9925         0.011650   
    125. D(C   8,C   9,C   3,C   4)     19.1190         0.011650   
    126. D(C   8,C   9,C   3,C   1)   -111.8331         0.011650   
    -----------------------------------------------------------------

Number of atoms                         .... 26
Number of degrees of freedom            .... 126


         *************************************************************
         *                GEOMETRY OPTIMIZATION CYCLE   1            *
         *************************************************************
---------------------------------
CARTESIAN COORDINATES (ANGSTROEM)
---------------------------------
  C     -1.125975   -1.615095   -0.509272
  C     -1.624374   -0.562111    0.493887
  C     -2.953196    0.039958    0.005746
  C     -0.581140    0.553069    0.813640
  C      0.660623    0.049614    1.595167
  C      1.815251   -0.438008    0.706930
  C      2.083133    0.505997   -0.434215
  C      3.280500    0.514750   -1.025096
  C      0.996276    1.348846   -0.966656
  C     -0.211035    1.381134   -0.398748
  H     -0.662161   -1.140003   -1.398814
  H     -0.400440   -2.295467   -0.022875
  H     -1.968160   -2.252628   -0.853944
  H     -1.854535   -1.093614    1.444314
  H     -3.313277    0.816085    0.714123
  H     -2.838431    0.493693   -1.001385
  H     -3.731226   -0.751011   -0.054007
  H     -1.091629    1.255118    1.510678
  H      0.374021   -0.756806    2.304231
  H      1.046363    0.892464    2.211584
  H      2.723370   -0.532702    1.342729
  H      1.603572   -1.444121    0.298679
  H      3.482633    1.161944   -1.869835
  H      4.078584   -0.127158   -0.672935
  H      1.177859    1.973073   -1.834020
  H     -0.966606    2.022982   -0.834480

----------------------------
CARTESIAN COORDINATES (A.U.)
----------------------------
  NO LB      ZA    FRAG     MASS         X           Y           Z
   0 C     4.0000*   0    12.011   -2.127784   -3.052087   -0.962385
   1 C     4.0000*   0    12.011   -3.069622   -1.062236    0.933311
   2 C     4.0000*   0    12.011   -5.580732    0.075510    0.010858
   3 C     4.0000*   0    12.011   -1.098195    1.045149    1.537557
   4 C     4.0000*   0    12.011    1.248397    0.093757    3.014429
   5 C     4.0000*   0    12.011    3.430327   -0.827715    1.335904
   6 C     4.0000*   0    12.011    3.936551    0.956196   -0.820547
   7 C     4.0000*   0    12.011    6.199247    0.972737   -1.937151
   8 C     4.0000*   0    12.011    1.882689    2.548950   -1.826715
   9 C     4.0000*   0    12.011   -0.398798    2.609965   -0.753525
  10 H     1.0000    0     1.008   -1.251303   -2.154293   -2.643375
  11 H     1.0000    0     1.008   -0.756722   -4.337804   -0.043227
  12 H     1.0000    0     1.008   -3.719283   -4.256850   -1.613720
  13 H     1.0000    0     1.008   -3.504563   -2.066631    2.729358
  14 H     1.0000    0     1.008   -6.261186    1.542177    1.349497
  15 H     1.0000    0     1.008   -5.363857    0.932945   -1.892343
  16 H     1.0000    0     1.008   -7.050995   -1.419205   -0.102058
  17 H     1.0000    0     1.008   -2.062880    2.371829    2.854768
  18 H     1.0000    0     1.008    0.706797   -1.430156    4.354366
  19 H     1.0000    0     1.008    1.977340    1.686513    4.179288
  20 H     1.0000    0     1.008    5.146423   -1.006661    2.537390
  21 H     1.0000    0     1.008    3.030312   -2.728993    0.564422
  22 H     1.0000    0     1.008    6.581223    2.195756   -3.533476
  23 H     1.0000    0     1.008    7.707407   -0.240294   -1.271663
  24 H     1.0000    0     1.008    2.225831    3.728568   -3.465796
  25 H     1.0000    0     1.008   -1.826621    3.822882   -1.576939
* core charge reduced due to ECP

--------------------------------
INTERNAL COORDINATES (ANGSTROEM)
--------------------------------
 C      0   0   0     0.000000000000     0.00000000     0.00000000
 C      1   0   0     1.537369456812     0.00000000     0.00000000
 C      2   1   0     1.538355168459   109.94032741     0.00000000
 C      2   1   3     1.560194087979   113.98657753   234.27294454
 C      4   2   1     1.551201707362   113.98776586   292.41804309
 C      5   4   2     1.536198555343   114.41795700    89.25122438
 C      6   5   4     1.505030935554   111.90630567    45.00404856
 C      7   6   5     1.335254546466   119.95053564   157.28078662
 C      7   6   5     1.474837616055   120.06733980   332.69381797
 C      9   7   6     1.334601761624   121.79290094     5.29694912
 H      1   2   3     1.110009371503   111.42134971    77.76718480
 H      1   2   3     1.107198779000   110.28379740   200.16588414
 H      1   2   3     1.111090764923   110.46847282   317.36037794
 H      2   1   3     1.113005394084   107.28733831   115.08754068
 H      3   2   1     1.110778745214   110.55560547   181.04661429
 H      3   2   1     1.110567110359   111.00168586   302.19880360
 H      3   2   1     1.111095432836   110.07893400    62.12851897
 H      4   2   1     1.113253695689   105.81063399   177.73710994
 H      5   4   2     1.111407071644   110.51752009   325.21823142
 H      5   4   2     1.113176260971   108.09801809   208.92533742
 H      6   5   4     1.112603900855   108.06375607   166.21495747
 H      6   5   4     1.106227936192   110.99315964   283.05497028
 H      8   7   6     1.083190565619   121.08853644   177.86220173
 H      8   7   6     1.083051855380   120.86481991   357.91315783
 H      9   7   6     1.083952047793   119.63927863   184.40904406
 H     10   9   7     1.082921403874   118.31317411   179.78404357

---------------------------
INTERNAL COORDINATES (A.U.)
---------------------------
 C      0   0   0     0.000000000000     0.00000000     0.00000000
 C      1   0   0     2.905207240030     0.00000000     0.00000000
 C      2   1   0     2.907069965091   109.94032741     0.00000000
 C      2   1   3     2.948339542044   113.98657753   234.27294454
 C      4   2   1     2.931346405385   113.98776586   292.41804309
 C      5   4   2     2.902994556923   114.41795700    89.25122438
 C      6   5   4     2.844096291276   111.90630567    45.00404856
 C      7   6   5     2.523265411895   119.95053564   157.28078662
 C      7   6   5     2.787039186349   120.06733980   332.69381797
 C      9   7   6     2.522031827318   121.79290094     5.29694912
 H      1   2   3     2.097613718226   111.42134971    77.76718480
 H      1   2   3     2.092302468121   110.28379740   200.16588414
 H      1   2   3     2.099657255634   110.46847282   317.36037794
 H      2   1   3     2.103275380395   107.28733831   115.08754068
 H      3   2   1     2.099067623835   110.55560547   181.04661429
 H      3   2   1     2.098667691919   111.00168586   302.19880360
 H      3   2   1     2.099666076712   110.07893400    62.12851897
 H      4   2   1     2.103744602429   105.81063399   177.73710994
 H      5   4   2     2.100254988710   110.51752009   325.21823142
 H      5   4   2     2.103598272017   108.09801809   208.92533742
 H      6   5   4     2.102516668149   108.06375607   166.21495747
 H      6   5   4     2.090467841095   110.99315964   283.05497028
 H      8   7   6     2.046933519867   121.08853644   177.86220173
 H      8   7   6     2.046671395503   120.86481991   357.91315783
 H      9   7   6     2.048372512631   119.63927863   184.40904406
 H     10   9   7     2.046424877884   118.31317411   179.78404357

---------------------
BASIS SET INFORMATION
---------------------
There are 2 groups of distinct atoms

 Group   1 Type C   : 6s6p2d contracted to 2s2p1d pattern {42/42/2}
 Group   2 Type H   : 8s2p contracted to 2s1p pattern {53/2}

Atom   0C    basis set group =>   1
Atom   1C    basis set group =>   1
Atom   2C    basis set group =>   1
Atom   3C    basis set group =>   1
Atom   4C    basis set group =>   1
Atom   5C    basis set group =>   1
Atom   6C    basis set group =>   1
Atom   7C    basis set group =>   1
Atom   8C    basis set group =>   1
Atom   9C    basis set group =>   1
Atom  10H    basis set group =>   2
Atom  11H    basis set group =>   2
Atom  12H    basis set group =>   2
Atom  13H    basis set group =>   2
Atom  14H    basis set group =>   2
Atom  15H    basis set group =>   2
Atom  16H    basis set group =>   2
Atom  17H    basis set group =>   2
Atom  18H    basis set group =>   2
Atom  19H    basis set group =>   2
Atom  20H    basis set group =>   2
Atom  21H    basis set group =>   2
Atom  22H    basis set group =>   2
Atom  23H    basis set group =>   2
Atom  24H    basis set group =>   2
Atom  25H    basis set group =>   2
---------------------------------
AUXILIARY/J BASIS SET INFORMATION
---------------------------------
There are 2 groups of distinct atoms

 Group   1 Type C   : 12s5p4d2f1g contracted to 6s4p3d1f1g pattern {711111/2111/211/2/1}
 Group   2 Type H   : 5s2p1d contracted to 3s1p1d pattern {311/2/1}

Atom   0C    basis set group =>   1
Atom   1C    basis set group =>   1
Atom   2C    basis set group =>   1
Atom   3C    basis set group =>   1
Atom   4C    basis set group =>   1
Atom   5C    basis set group =>   1
Atom   6C    basis set group =>   1
Atom   7C    basis set group =>   1
Atom   8C    basis set group =>   1
Atom   9C    basis set group =>   1
Atom  10H    basis set group =>   2
Atom  11H    basis set group =>   2
Atom  12H    basis set group =>   2
Atom  13H    basis set group =>   2
Atom  14H    basis set group =>   2
Atom  15H    basis set group =>   2
Atom  16H    basis set group =>   2
Atom  17H    basis set group =>   2
Atom  18H    basis set group =>   2
Atom  19H    basis set group =>   2
Atom  20H    basis set group =>   2
Atom  21H    basis set group =>   2
Atom  22H    basis set group =>   2
Atom  23H    basis set group =>   2
Atom  24H    basis set group =>   2
Atom  25H    basis set group =>   2
-------------------------
ECP PARAMETER INFORMATION
-------------------------

 Group 1, Type C  ECP vDZP-ECP (replacing 2 core electrons, lmax=3)

Atom   0C    ECP group =>   1
Atom   1C    ECP group =>   1
Atom   2C    ECP group =>   1
Atom   3C    ECP group =>   1
Atom   4C    ECP group =>   1
Atom   5C    ECP group =>   1
Atom   6C    ECP group =>   1
Atom   7C    ECP group =>   1
Atom   8C    ECP group =>   1
Atom   9C    ECP group =>   1



           ************************************************************
           *        Program running with 40 parallel MPI-processes    *
           *              working on a common directory               *
           ************************************************************
------------------------------------------------------------------------------
                             ORCA STARTUP CALCULATIONS
                           -- RI-GTO INTEGRALS CHOSEN --
------------------------------------------------------------------------------
------------------------------------------------------------------------------
                   ___                                                        
                  /   \      - P O W E R E D   B Y -                         
                 /     \                                                     
                 |  |  |   _    _      __       _____    __    __             
                 |  |  |  | |  | |    /  \     |  _  \  |  |  /  |          
                  \  \/   | |  | |   /    \    | | | |  |  | /  /          
                 / \  \   | |__| |  /  /\  \   | |_| |  |  |/  /          
                |  |  |   |  __  | /  /__\  \  |    /   |      \           
                |  |  |   | |  | | |   __   |  |    \   |  |\   \          
                \     /   | |  | | |  |  |  |  | |\  \  |  | \   \       
                 \___/    |_|  |_| |__|  |__|  |_| \__\ |__|  \__/        
                                                                              
                      - O R C A' S   B I G   F R I E N D -                    
                                      &                                       
                       - I N T E G R A L  F E E D E R -                       
                                                                              
 v1 FN, 2020, v2 2021, v3 2022-2024                                           
------------------------------------------------------------------------------


----------------------
SHARK INTEGRAL PACKAGE
----------------------

Number of atoms                             ...     26
Number of basis functions                   ...    210
Number of shells                            ...     98
Maximum angular momentum                    ...      2
Integral batch strategy                     ... SHARK/LIBINT Hybrid
RI-J (if used) integral strategy            ... SPLIT-RIJ (Revised 2003 algorithm where possible)
Printlevel                                  ...      1
Contraction scheme used                     ... SEGMENTED contraction
Prescreening option                         ... SCHWARTZ
   Thresh                                   ... 2.500e-11
   Tcut                                     ... 2.500e-12
   Tpresel                                  ... 2.500e-12 
Coulomb Range Separation                    ... NOT USED
Exchange Range Separation                   ... Long Range
   Mu parameter                             ... 3.000e-01
   Scaling (regular/separated)              ... 1.670e-01 8.330e-01
Multipole approximations                    ... NOT USED
Finite Nucleus Model                        ... NOT USED
CABS basis                                  ... NOT available
Auxiliary Coulomb fitting basis             ... AVAILABLE
   # of basis functions in Aux-J            ...    666
   # of shells in Aux-J                     ...    230
   Maximum angular momentum in Aux-J        ...      4
Auxiliary J/K fitting basis                 ... NOT available
Auxiliary Correlation fitting basis         ... NOT available
Auxiliary 'external' fitting basis          ... NOT available

Checking pre-screening integrals            ... done (  0.0 sec) Dimension = 98
Check shell pair data                       ... done (  0.0 sec)
Shell pair information
Shell pair cut-off parameter TPreSel        ...   2.5e-12
Total number of shell pairs                 ...      4851
Shell pairs after pre-screening             ...      4847
Total number of primitive shell pairs       ...     45524
Primitive shell pairs kept                  ...     37661
          la=0 lb=0:   1378 shell pairs
          la=1 lb=0:   1870 shell pairs
          la=1 lb=1:    664 shell pairs
          la=2 lb=0:    520 shell pairs
          la=2 lb=1:    360 shell pairs
          la=2 lb=2:     55 shell pairs

Calculating one electron integrals          ... done (  0.0 sec)
Calculating ECP integrals                   ... done (  0.1 sec)
Calculating RI/J V-Matrix + Cholesky decomp.... done (  0.0 sec)
Calculating Nuclear repulsion               ... done (  0.0 sec) ENN=    290.128365184216 Eh

Diagonalization of the overlap matrix:
Smallest eigenvalue                        ... 9.526e-04
Time for diagonalization                   ...    0.006 sec
Threshold for overlap eigenvalues          ... 1.000e-07
Number of eigenvalues below threshold      ... 0
Time for construction of square roots      ...    0.004 sec
Total time needed                          ...    0.014 sec

-------------------
DFT GRID GENERATION
-------------------

General Integration Accuracy     IntAcc      ... 4.388
Radial Grid Type                 RadialGrid  ... OptM3 with GC (2021)
Angular Grid (max. ang.)         AngularGrid ... 4 (Lebedev-302)
Angular grid pruning method      GridPruning ... 4 (adaptive)
Weight generation scheme         WeightScheme... mBecke (2022)
Basis function cutoff            BFCut       ... 1.0000e-11
Integration weight cutoff        WCut        ... 1.0000e-14
Partially contracted basis set               ... off
Rotationally invariant grid construction     ... off
Angular grids for H and He will be reduced by one unit

Total number of grid points                  ...   110694
Total number of batches                      ...     1744
Average number of points per batch           ...       63
Average number of grid points per atom       ...     4257

--------------------
COSX GRID GENERATION
--------------------

GRIDX 1
-------
General Integration Accuracy     IntAcc      ... 3.816
Radial Grid Type                 RadialGrid  ... OptM3 with GC (2021)
Angular Grid (max. ang.)         AngularGrid ... 1 (Lebedev-50)
Angular grid pruning method      GridPruning ... 4 (adaptive)
Weight generation scheme         WeightScheme... mBecke (2022)
Basis function cutoff            BFCut       ... 1.0000e-11
Integration weight cutoff        WCut        ... 1.0000e-14
Partially contracted basis set               ... on
Rotationally invariant grid construction     ... off
Angular grids for H and He will be reduced by one unit

Total number of grid points                  ...    14168
Total number of batches                      ...      128
Average number of points per batch           ...      110
Average number of grid points per atom       ...      545
UseSFitting                                  ... on

GRIDX 2
-------
General Integration Accuracy     IntAcc      ... 4.020
Radial Grid Type                 RadialGrid  ... OptM3 with GC (2021)
Angular Grid (max. ang.)         AngularGrid ... 2 (Lebedev-110)
Angular grid pruning method      GridPruning ... 4 (adaptive)
Weight generation scheme         WeightScheme... mBecke (2022)
Basis function cutoff            BFCut       ... 1.0000e-11
Integration weight cutoff        WCut        ... 1.0000e-14
Partially contracted basis set               ... on
Rotationally invariant grid construction     ... off
Angular grids for H and He will be reduced by one unit

Total number of grid points                  ...    29554
Total number of batches                      ...      245
Average number of points per batch           ...      120
Average number of grid points per atom       ...     1137
UseSFitting                                  ... on

GRIDX 3
-------
General Integration Accuracy     IntAcc      ... 4.338
Radial Grid Type                 RadialGrid  ... OptM3 with GC (2021)
Angular Grid (max. ang.)         AngularGrid ... 3 (Lebedev-194)
Angular grid pruning method      GridPruning ... 4 (adaptive)
Weight generation scheme         WeightScheme... mBecke (2022)
Basis function cutoff            BFCut       ... 1.0000e-11
Integration weight cutoff        WCut        ... 1.0000e-14
Partially contracted basis set               ... on
Rotationally invariant grid construction     ... off
Angular grids for H and He will be reduced by one unit

Total number of grid points                  ...    64285
Total number of batches                      ...      516
Average number of points per batch           ...      124
Average number of grid points per atom       ...     2472
UseSFitting                                  ... on
Initializing property integral containers    ... done (  0.0 sec)

SHARK setup successfully completed in   3.5 seconds

Maximum memory used throughout the entire STARTUP-calculation: 31.8 MB


           ************************************************************
           *        Program running with 40 parallel MPI-processes    *
           *              working on a common directory               *
           ************************************************************
-------------------------------------------------------------------------------
                                 ORCA GUESS
                   Start orbitals & Density for SCF / CASSCF
-------------------------------------------------------------------------------

------------
SCF SETTINGS
------------
Hamiltonian:
 Density Functional     Method          .... DFT(GTOs)
 Exchange Functional    Exchange        .... WB97X-V
 Correlation Functional Correlation     .... WB97X-V
 Gradients option       PostSCFGGA      .... off
 Hybrid DFT is turned on
   Fraction HF Exchange ScalHFX         ....  0.167000
   Scaling of DF-GGA-X  ScalDFX         ....  0.000000
   Scaling of DF-GGA-C  ScalDFC         ....  1.000000
   Scaling of DF-LDA-C  ScalLDAC        ....  1.000000
   Perturbative correction              ....  0.000000
 Long-range corrected/Screened/Range-Separated Hybrid DFT is turned on
   Amount of maximum screened exact exchange              ....  0.833000
   Range separation parameter mu (erf(mu*r12)/r12)        ....  0.300000
   NL short-range parameter             ....  6.000000
   NL long-range parameter              ....  0.010000
 RI-approximation to the Coulomb term is turned on
   Number of AuxJ basis functions       .... 666
   RIJ-COSX (HFX calculated with COS-X)).... on


General Settings:
 Integral files         IntName         .... ./output/beta_phellandrene/beta_phellandrene
 Hartree-Fock type      HFTyp           .... RHF
 Total Charge           Charge          ....    0
 Multiplicity           Mult            ....    1
 Number of Electrons    NEL             ....   56
 Basis Dimension        Dim             ....  210
 Nuclear Repulsion      ENuc            ....    290.1283651842 Eh

Convergence Acceleration:
 AO-DIIS                CNVDIIS         .... on
   Start iteration      DIISMaxIt       ....    12
   Startup error        DIISStart       ....  0.200000
   # of expansion vecs  DIISMaxEq       ....     5
   Bias factor          DIISBfac        ....   1.050
   Max. coefficient     DIISMaxC        ....  10.000
 MO-DIIS                CNVKDIIS        .... off
 Trust-Rad. Augm. Hess. CNVTRAH         .... auto
   Auto Start mean grad. ratio tolernc. ....  1.125000
   Auto Start start iteration           ....    50
   Auto Start num. interpolation iter.  ....    10
   Max. Number of Micro iterations      ....    24
   Max. Number of Macro iterations      .... Maxiter - #DIIS iter
   Number of Davidson start vectors     ....     2
   Converg. threshold    (grad. norm)   ....   1.000e-05
   Grad. Scal. Fac. for Micro threshold ....   0.100
   Minimum threshold for Micro iter.    ....   1.000e-02
   NR start threshold (gradient norm)   ....   1.000e-04
   Initial trust radius                 ....   0.400
   Minimum AH scaling param. (alpha)    ....   1.000
   Maximum AH scaling param. (alpha)    .... 1000.000
   Quad. conv. algorithm                .... NR
   White noise on init. David. guess    .... on
   Maximum white noise                  ....   0.010
   Pseudo random numbers                .... off
   Inactive MOs                         .... canonical
   Orbital update algorithm             .... Taylor
   Preconditioner                       .... Diag
   Full preconditioner red. dimension   ....   250
 SOSCF                  CNVSOSCF        .... on
   Start iteration      SOSCFMaxIt      ....   150
   Startup grad/error   SOSCFStart      ....  0.003300
   Hessian update       SOSCFHessUp     .... L-BFGS
 Level Shifting         CNVShift        .... on
   Level shift para.    LevelShift      ....    0.2500
   Turn off err/grad.   ShiftErr        ....    0.0010
 Zerner damping         CNVZerner       .... off
 Static damping         CNVDamp         .... on
   Fraction old density DampFac         ....    0.7000
   Max. Damping (<1)    DampMax         ....    0.9800
   Min. Damping (>=0)   DampMin         ....    0.0000
   Turn off err/grad.   DampErr         ....    0.1000

SCF Procedure:
 Maximum # iterations   MaxIter         ....   125
 SCF integral mode      SCFMode         .... Direct
   Integral package                     .... SHARK and LIBINT hybrid scheme
 Reset frequency        DirectResetFreq ....    20
 Integral Threshold     Thresh          ....  2.500e-11 Eh
 Primitive CutOff       TCut            ....  2.500e-12 Eh

Convergence Tolerance:
 Convergence Check Mode ConvCheckMode   .... Total+1el-Energy
 Convergence forced     ConvForced      .... 0
 Energy Change          TolE            ....  1.000e-08 Eh
 1-El. energy change                    ....  1.000e-05 Eh
 Orbital Gradient       TolG            ....  1.000e-05
 Orbital Rotation angle TolX            ....  1.000e-05
 DIIS Error             TolErr          ....  5.000e-07

------------------------------
INITIAL GUESS: MODEL POTENTIAL
------------------------------
Loading Hartree-Fock densities                     ... done
Atomic calculation to generate a density for atom 0 (C  with ECP)
  Multiplicity assumed   :    1
  Atomic configuration   : 1s2 2s2 2p2 
  Number of open shells  : 1
  Command: /home/aspe232/Project/Software/ORCA/6_0_1/build/orca ./output/beta_phellandrene/beta_phellandrene_atom6.inp "" > ./output/beta_phellandrene/beta_phellandrene_atom6.out
Returned from the atomic calculation with res=0
Calculating cut-offs                               ... done
Initializing the effective Hamiltonian             ... done
Setting up the integral package (SHARK)            ... done
Starting the Coulomb interaction                   ... done (   0.0 sec)
Making the grid                                    ... done (   0.6 sec)
Mapping shells                                     ... done
Starting the XC term evaluation                    ... done (   0.1 sec)
  promolecular density results
     # of electrons  =     75.993576191
     EX              =    -36.899404410
     EC              =     -3.024633234
     EX+EC           =    -39.924037643
Transforming the Hamiltonian                       ... done (   0.1 sec)
Diagonalizing the Hamiltonian                      ... done (   0.0 sec)
Back transforming the eigenvectors                 ... done (   0.0 sec)
Now organizing SCF variables                       ... done
                      ------------------
                      INITIAL GUESS DONE (   1.3 sec)
                      ------------------
             **** ENERGY FILE WAS UPDATED (./output/beta_phellandrene/beta_phellandrene.en.tmp) ****
Finished Guess after   1.9 sec
Maximum memory used throughout the entire GUESS-calculation: 20.0 MB


           ************************************************************
           *        Program running with 40 parallel MPI-processes    *
           *              working on a common directory               *
           ************************************************************

-------------------------------------------------------------------------------------------
                                      ORCA LEAN-SCF
                              memory conserving SCF solver
-------------------------------------------------------------------------------------------

----------------------------------------D-I-I-S--------------------------------------------
Iteration    Energy (Eh)           Delta-E    RMSDP     MaxDP     DIISErr   Damp  Time(sec)
-------------------------------------------------------------------------------------------
               ***  Starting incremental Fock matrix formation  ***
    1    -66.1191215898931546     0.00e+00  4.04e-03  7.00e-02  1.71e-01  0.700   4.1
    2    -66.2997170006577221    -1.81e-01  2.98e-03  5.19e-02  1.04e-01  0.700   3.7
                               ***Turning on AO-DIIS***
    3    -66.3937108913998486    -9.40e-02  1.56e-03  2.87e-02  5.38e-02  0.700   3.4
    4    -66.4492135959508232    -5.55e-02  3.32e-03  5.84e-02  3.38e-02  0.000   3.4
    5    -66.5659762730122679    -1.17e-01  2.58e-04  6.19e-03  5.91e-03  0.000   3.3
                              *** Initializing SOSCF ***
---------------------------------------S-O-S-C-F--------------------------------------
Iteration    Energy (Eh)           Delta-E    RMSDP     MaxDP     MaxGrad    Time(sec)
--------------------------------------------------------------------------------------
    6    -66.5663117372644706    -3.35e-04  1.19e-04  1.77e-03  1.23e-03     3.3
               *** Restarting incremental Fock matrix formation ***
    7    -66.5663335428914706    -2.18e-05  6.96e-05  1.14e-03  5.70e-04     3.9
    8    -66.5663465958881488    -1.31e-05  4.83e-05  7.14e-04  3.73e-04     4.1
    9    -66.5663496583363212    -3.06e-06  1.63e-05  2.20e-04  1.16e-04     4.1
   10    -66.5663501559037059    -4.98e-07  3.07e-06  5.41e-05  1.09e-05     3.6
   11    -66.5663501639742776    -8.07e-09  7.84e-07  1.88e-05  7.46e-06     3.5
                 **** Energy Check signals convergence ****

               *****************************************************
               *                     SUCCESS                       *
               *           SCF CONVERGED AFTER  11 CYCLES          *
               *****************************************************

Recomputing exchange energy using gridx3       ... done (    3.705 sec)
Old exchange energy                            :    -10.582448537 Eh
New exchange energy                            :    -10.582487212 Eh
Exchange energy change after final integration :     -0.000038674 Eh
Total energy after final integration           :    -66.566388838 Eh
             **** ENERGY FILE WAS UPDATED (./output/beta_phellandrene/beta_phellandrene.en.tmp) ****

----------------
TOTAL SCF ENERGY
----------------

Total Energy       :        -66.56638883845626 Eh           -1811.36353 eV

Components:
Nuclear Repulsion  :        290.12836518421585 Eh            7894.79418 eV
Electronic Energy  :       -356.69471534819013 Eh           -9706.15666 eV
One Electron Energy:       -672.65661714037060 Eh          -18303.91711 eV
Two Electron Energy:        315.96190179218047 Eh            8597.76045 eV

Virial components:
Potential Energy   :       -118.48405889261564 Eh           -3224.11515 eV
Kinetic Energy     :         51.91767005415937 Eh            1412.75163 eV
Virial Ratio       :          2.28215285410566

DFT components:
N(Alpha)           :       27.999962694983 electrons
N(Beta)            :       27.999962694983 electrons
N(Total)           :       55.999925389965 electrons
E(X)               :      -10.712832288741 Eh       
E(C)               :       -2.078157951534 Eh       
E(XC)              :      -12.790990240276 Eh       

---------------
SCF CONVERGENCE
---------------

  Last Energy change         ...    8.0706e-09  Tolerance :   1.0000e-08
  Last MAX-Density change    ...    1.8769e-05  Tolerance :   1.0000e-07
  Last RMS-Density change    ...    7.8449e-07  Tolerance :   5.0000e-09
  Last DIIS Error            ...    1.2346e-03  Tolerance :   5.0000e-07
  Last Orbital Gradient      ...    7.4552e-06  Tolerance :   1.0000e-05
  Last Orbital Rotation      ...    1.8300e-05  Tolerance :   1.0000e-05


----------------
ORBITAL ENERGIES
----------------

  NO   OCC          E(Eh)            E(eV) 
   0   2.0000      -0.988941       -26.9105 
   1   2.0000      -0.940133       -25.5823 
   2   2.0000      -0.887641       -24.1539 
   3   2.0000      -0.883991       -24.0546 
   4   2.0000      -0.813185       -22.1279 
   5   2.0000      -0.802417       -21.8349 
   6   2.0000      -0.736908       -20.0523 
   7   2.0000      -0.714753       -19.4494 
   8   2.0000      -0.679352       -18.4861 
   9   2.0000      -0.609575       -16.5874 
  10   2.0000      -0.600981       -16.3535 
  11   2.0000      -0.582444       -15.8491 
  12   2.0000      -0.567915       -15.4538 
  13   2.0000      -0.555160       -15.1067 
  14   2.0000      -0.534044       -14.5321 
  15   2.0000      -0.515877       -14.0377 
  16   2.0000      -0.512802       -13.9541 
  17   2.0000      -0.495150       -13.4737 
  18   2.0000      -0.485884       -13.2216 
  19   2.0000      -0.480339       -13.0707 
  20   2.0000      -0.476496       -12.9661 
  21   2.0000      -0.444837       -12.1046 
  22   2.0000      -0.439648       -11.9634 
  23   2.0000      -0.431506       -11.7419 
  24   2.0000      -0.412320       -11.2198 
  25   2.0000      -0.407635       -11.0923 
  26   2.0000      -0.391340       -10.6489 
  27   2.0000      -0.316062        -8.6005 
  28   0.0000       0.052827         1.4375 
  29   0.0000       0.085829         2.3355 
  30   0.0000       0.099224         2.7000 
  31   0.0000       0.100174         2.7259 
  32   0.0000       0.106383         2.8948 
  33   0.0000       0.119762         3.2589 
  34   0.0000       0.125608         3.4180 
  35   0.0000       0.131730         3.5846 
  36   0.0000       0.132230         3.5982 
  37   0.0000       0.157500         4.2858 
  38   0.0000       0.162748         4.4286 
*Only the first 10 virtual orbitals were printed.

                    ********************************
                    * MULLIKEN POPULATION ANALYSIS *
                    ********************************

-----------------------
MULLIKEN ATOMIC CHARGES
-----------------------
   0 C :   -0.062470
   1 C :   -0.087680
   2 C :   -0.074913
   3 C :   -0.132573
   4 C :   -0.047204
   5 C :   -0.075309
   6 C :   -0.061532
   7 C :   -0.023404
   8 C :   -0.011491
   9 C :    0.001893
  10 H :    0.051992
  11 H :    0.029063
  12 H :    0.033745
  13 H :    0.036630
  14 H :    0.033638
  15 H :    0.034011
  16 H :    0.039322
  17 H :    0.053111
  18 H :    0.039576
  19 H :    0.046796
  20 H :    0.051090
  21 H :    0.048525
  22 H :    0.022952
  23 H :    0.021346
  24 H :    0.014083
  25 H :    0.018803
Sum of atomic charges:   -0.0000000

--------------------------------
MULLIKEN REDUCED ORBITAL CHARGES
--------------------------------
  0 C s       :     0.958462  s :     0.958462
      pz      :     1.011434  p :     3.031322
      px      :     1.030738
      py      :     0.989150
      dz2     :     0.013114  d :     0.072686
      dxz     :     0.014777
      dyz     :     0.017546
      dx2y2   :     0.004805
      dxy     :     0.022445

  1 C s       :     1.053882  s :     1.053882
      pz      :     1.018718  p :     2.910021
      px      :     0.931285
      py      :     0.960018
      dz2     :     0.022034  d :     0.123777
      dxz     :     0.019677
      dyz     :     0.029417
      dx2y2   :     0.022836
      dxy     :     0.029813

  2 C s       :     0.964949  s :     0.964949
      pz      :     1.033801  p :     3.035873
      px      :     0.971035
      py      :     1.031036
      dz2     :     0.015208  d :     0.074092
      dxz     :     0.009611
      dyz     :     0.017904
      dx2y2   :     0.009583
      dxy     :     0.021787

  3 C s       :     1.025712  s :     1.025712
      pz      :     0.996431  p :     2.984499
      px      :     0.990444
      py      :     0.997624
      dz2     :     0.019487  d :     0.122363
      dxz     :     0.025930
      dyz     :     0.030069
      dx2y2   :     0.018913
      dxy     :     0.027964

  4 C s       :     0.992573  s :     0.992573
      pz      :     0.982964  p :     2.957289
      px      :     0.929376
      py      :     1.044950
      dz2     :     0.010019  d :     0.097342
      dxz     :     0.022339
      dyz     :     0.027031
      dx2y2   :     0.018919
      dxy     :     0.019034

  5 C s       :     0.996121  s :     0.996121
      pz      :     0.972172  p :     2.980247
      px      :     1.002277
      py      :     1.005799
      dz2     :     0.016817  d :     0.098941
      dxz     :     0.025348
      dyz     :     0.022504
      dx2y2   :     0.022653
      dxy     :     0.011619

  6 C s       :     1.048370  s :     1.048370
      pz      :     0.942871  p :     2.888106
      px      :     1.005062
      py      :     0.940173
      dz2     :     0.024113  d :     0.125057
      dxz     :     0.029829
      dyz     :     0.016350
      dx2y2   :     0.023718
      dxy     :     0.031046

  7 C s       :     0.984195  s :     0.984195
      pz      :     0.992184  p :     2.973754
      px      :     0.987035
      py      :     0.994534
      dz2     :     0.011684  d :     0.065455
      dxz     :     0.014320
      dyz     :     0.010188
      dx2y2   :     0.009090
      dxy     :     0.020174

  8 C s       :     0.992554  s :     0.992554
      pz      :     0.957704  p :     2.922871
      px      :     1.004946
      py      :     0.960222
      dz2     :     0.015665  d :     0.096065
      dxz     :     0.022457
      dyz     :     0.013973
      dx2y2   :     0.018543
      dxy     :     0.025427

  9 C s       :     1.014820  s :     1.014820
      pz      :     0.956082  p :     2.888982
      px      :     0.979345
      py      :     0.953555
      dz2     :     0.019145  d :     0.094305
      dxz     :     0.024736
      dyz     :     0.013662
      dx2y2   :     0.011308
      dxy     :     0.025454

 10 H s       :     0.903549  s :     0.903549
      pz      :     0.019059  p :     0.044459
      px      :     0.012590
      py      :     0.012810

 11 H s       :     0.926308  s :     0.926308
      pz      :     0.012584  p :     0.044628
      px      :     0.016428
      py      :     0.015616

 12 H s       :     0.922659  s :     0.922659
      pz      :     0.011600  p :     0.043596
      px      :     0.017316
      py      :     0.014680

 13 H s       :     0.923265  s :     0.923265
      pz      :     0.018318  p :     0.040105
      px      :     0.009631
      py      :     0.012156

 14 H s       :     0.923173  s :     0.923173
      pz      :     0.015109  p :     0.043189
      px      :     0.011371
      py      :     0.016709

 15 H s       :     0.922263  s :     0.922263
      pz      :     0.021427  p :     0.043726
      px      :     0.010109
      py      :     0.012189

 16 H s       :     0.917492  s :     0.917492
      pz      :     0.010241  p :     0.043186
      px      :     0.016757
      py      :     0.016188

 17 H s       :     0.906075  s :     0.906075
      pz      :     0.014583  p :     0.040814
      px      :     0.011708
      py      :     0.014522

 18 H s       :     0.917857  s :     0.917857
      pz      :     0.015002  p :     0.042567
      px      :     0.010669
      py      :     0.016896

 19 H s       :     0.912280  s :     0.912280
      pz      :     0.012360  p :     0.040924
      px      :     0.011327
      py      :     0.017238

 20 H s       :     0.906354  s :     0.906354
      pz      :     0.014215  p :     0.042556
      px      :     0.018785
      py      :     0.009556

 21 H s       :     0.907288  s :     0.907288
      pz      :     0.011890  p :     0.044187
      px      :     0.010938
      py      :     0.021359

 22 H s       :     0.925904  s :     0.925904
      pz      :     0.021727  p :     0.051144
      px      :     0.010879
      py      :     0.018538

 23 H s       :     0.927968  s :     0.927968
      pz      :     0.013464  p :     0.050686
      px      :     0.018880
      py      :     0.018342

 24 H s       :     0.937257  s :     0.937257
      pz      :     0.021287  p :     0.048659
      px      :     0.009981
      py      :     0.017391

 25 H s       :     0.932601  s :     0.932601
      pz      :     0.013245  p :     0.048597
      px      :     0.017906
      py      :     0.017446



                     *******************************
                     * LOEWDIN POPULATION ANALYSIS *
                     *******************************

----------------------
LOEWDIN ATOMIC CHARGES
----------------------
   0 C :   -0.113246
   1 C :   -0.078593
   2 C :   -0.118834
   3 C :   -0.072070
   4 C :   -0.074631
   5 C :   -0.079248
   6 C :   -0.053274
   7 C :   -0.070277
   8 C :   -0.047265
   9 C :   -0.031566
  10 H :    0.047361
  11 H :    0.040765
  12 H :    0.047918
  13 H :    0.048315
  14 H :    0.044981
  15 H :    0.043871
  16 H :    0.047737
  17 H :    0.056340
  18 H :    0.049291
  19 H :    0.052847
  20 H :    0.059023
  21 H :    0.048341
  22 H :    0.032444
  23 H :    0.033480
  24 H :    0.047227
  25 H :    0.039062

-------------------------------
LOEWDIN REDUCED ORBITAL CHARGES
-------------------------------
  0 C s       :     0.778173  s :     0.778173
      pz      :     1.024564  p :     3.094223
      px      :     1.052322
      py      :     1.017337
      dz2     :     0.044409  d :     0.240850
      dxz     :     0.048712
      dyz     :     0.057022
      dx2y2   :     0.016162
      dxy     :     0.074546

  1 C s       :     0.762683  s :     0.762683
      pz      :     1.014859  p :     2.932016
      px      :     0.951468
      py      :     0.965689
      dz2     :     0.069889  d :     0.383894
      dxz     :     0.061197
      dyz     :     0.090091
      dx2y2   :     0.071816
      dxy     :     0.090901

  2 C s       :     0.780019  s :     0.780019
      pz      :     1.053303  p :     3.095166
      px      :     0.991914
      py      :     1.049949
      dz2     :     0.050247  d :     0.243650
      dxz     :     0.031549
      dyz     :     0.057987
      dx2y2   :     0.031779
      dxy     :     0.072087

  3 C s       :     0.757067  s :     0.757067
      pz      :     0.987370  p :     2.940940
      px      :     0.966945
      py      :     0.986625
      dz2     :     0.057270  d :     0.374063
      dxz     :     0.080954
      dyz     :     0.091983
      dx2y2   :     0.057918
      dxy     :     0.085938

  4 C s       :     0.766257  s :     0.766257
      pz      :     0.995996  p :     2.996786
      px      :     0.958152
      py      :     1.042637
      dz2     :     0.033044  d :     0.311588
      dxz     :     0.070250
      dyz     :     0.087818
      dx2y2   :     0.060254
      dxy     :     0.060222

  5 C s       :     0.760102  s :     0.760102
      pz      :     0.985584  p :     3.006265
      px      :     1.005326
      py      :     1.015356
      dz2     :     0.050208  d :     0.312880
      dxz     :     0.081850
      dyz     :     0.070077
      dx2y2   :     0.074319
      dxy     :     0.036427

  6 C s       :     0.790264  s :     0.790264
      pz      :     0.939580  p :     2.874933
      px      :     1.022445
      py      :     0.912907
      dz2     :     0.075068  d :     0.388078
      dxz     :     0.092347
      dyz     :     0.051971
      dx2y2   :     0.076432
      dxy     :     0.092260

  7 C s       :     0.826208  s :     0.826208
      pz      :     1.003816  p :     3.026589
      px      :     1.040485
      py      :     0.982288
      dz2     :     0.037783  d :     0.217480
      dxz     :     0.050865
      dyz     :     0.031633
      dx2y2   :     0.034123
      dxy     :     0.063076

  8 C s       :     0.800473  s :     0.800473
      pz      :     0.985469  p :     2.940364
      px      :     1.015462
      py      :     0.939432
      dz2     :     0.048359  d :     0.306428
      dxz     :     0.072291
      dyz     :     0.045160
      dx2y2   :     0.064518
      dxy     :     0.076100

  9 C s       :     0.804432  s :     0.804432
      pz      :     0.948351  p :     2.922017
      px      :     1.044016
      py      :     0.929650
      dz2     :     0.062656  d :     0.305117
      dxz     :     0.082321
      dyz     :     0.042719
      dx2y2   :     0.039216
      dxy     :     0.078204

 10 H s       :     0.803957  s :     0.803957
      pz      :     0.057539  p :     0.148682
      px      :     0.045298
      py      :     0.045846

 11 H s       :     0.808603  s :     0.808603
      pz      :     0.044622  p :     0.150632
      px      :     0.055276
      py      :     0.050734

 12 H s       :     0.805664  s :     0.805664
      pz      :     0.043352  p :     0.146418
      px      :     0.055375
      py      :     0.047691

 13 H s       :     0.803693  s :     0.803693
      pz      :     0.062618  p :     0.147992
      px      :     0.039373
      py      :     0.046001

 14 H s       :     0.809047  s :     0.809047
      pz      :     0.050052  p :     0.145972
      px      :     0.041722
      py      :     0.054198

 15 H s       :     0.809102  s :     0.809102
      pz      :     0.062604  p :     0.147026
      px      :     0.039699
      py      :     0.044724

 16 H s       :     0.807245  s :     0.807245
      pz      :     0.040679  p :     0.145018
      px      :     0.051840
      py      :     0.052498

 17 H s       :     0.792756  s :     0.792756
      pz      :     0.051889  p :     0.150904
      px      :     0.046046
      py      :     0.052969

 18 H s       :     0.804810  s :     0.804810
      pz      :     0.051332  p :     0.145899
      px      :     0.039744
      py      :     0.054823

 19 H s       :     0.801820  s :     0.801820
      pz      :     0.048194  p :     0.145332
      px      :     0.041249
      py      :     0.055890

 20 H s       :     0.797334  s :     0.797334
      pz      :     0.045734  p :     0.143643
      px      :     0.058848
      py      :     0.039061

 21 H s       :     0.798855  s :     0.798855
      pz      :     0.043834  p :     0.152803
      px      :     0.043741
      py      :     0.065229

 22 H s       :     0.813654  s :     0.813654
      pz      :     0.061325  p :     0.153902
      px      :     0.037515
      py      :     0.055062

 23 H s       :     0.813711  s :     0.813711
      pz      :     0.044097  p :     0.152809
      px      :     0.053546
      py      :     0.055165

 24 H s       :     0.803953  s :     0.803953
      pz      :     0.061223  p :     0.148820
      px      :     0.035531
      py      :     0.052066

 25 H s       :     0.806738  s :     0.806738
      pz      :     0.045992  p :     0.154200
      px      :     0.054228
      py      :     0.053979



                      *****************************
                      * MAYER POPULATION ANALYSIS *
                      *****************************

  NA   - Mulliken gross atomic population
  ZA   - Total nuclear charge
  QA   - Mulliken gross atomic charge
  VA   - Mayer's total valence
  BVA  - Mayer's bonded valence
  FA   - Mayer's free valence

  ATOM       NA         ZA         QA         VA         BVA        FA
  0 C      4.0625     4.0000    -0.0625     3.9490     3.9490    -0.0000
  1 C      4.0877     4.0000    -0.0877     4.0156     4.0156    -0.0000
  2 C      4.0749     4.0000    -0.0749     3.9615     3.9615     0.0000
  3 C      4.1326     4.0000    -0.1326     4.0299     4.0299    -0.0000
  4 C      4.0472     4.0000    -0.0472     3.9659     3.9659    -0.0000
  5 C      4.0753     4.0000    -0.0753     3.9916     3.9916    -0.0000
  6 C      4.0615     4.0000    -0.0615     4.1588     4.1588    -0.0000
  7 C      4.0234     4.0000    -0.0234     3.9761     3.9761    -0.0000
  8 C      4.0115     4.0000    -0.0115     4.0862     4.0862     0.0000
  9 C      3.9981     4.0000     0.0019     4.0055     4.0055    -0.0000
 10 H      0.9480     1.0000     0.0520     1.0197     1.0197    -0.0000
 11 H      0.9709     1.0000     0.0291     1.0224     1.0224    -0.0000
 12 H      0.9663     1.0000     0.0337     1.0264     1.0264    -0.0000
 13 H      0.9634     1.0000     0.0366     1.0108     1.0108     0.0000
 14 H      0.9664     1.0000     0.0336     1.0278     1.0278     0.0000
 15 H      0.9660     1.0000     0.0340     1.0272     1.0272    -0.0000
 16 H      0.9607     1.0000     0.0393     1.0237     1.0237     0.0000
 17 H      0.9469     1.0000     0.0531     1.0037     1.0037    -0.0000
 18 H      0.9604     1.0000     0.0396     1.0238     1.0238    -0.0000
 19 H      0.9532     1.0000     0.0468     1.0118     1.0118    -0.0000
 20 H      0.9489     1.0000     0.0511     1.0181     1.0181    -0.0000
 21 H      0.9515     1.0000     0.0485     1.0140     1.0140     0.0000
 22 H      0.9770     1.0000     0.0230     1.0423     1.0423    -0.0000
 23 H      0.9787     1.0000     0.0213     1.0424     1.0424     0.0000
 24 H      0.9859     1.0000     0.0141     1.0451     1.0451    -0.0000
 25 H      0.9812     1.0000     0.0188     1.0338     1.0338    -0.0000

  Mayer bond orders larger than 0.100000
B(  0-C ,  1-C ) :   0.9869 B(  0-C , 10-H ) :   0.9885 B(  0-C , 11-H ) :   0.9992 
B(  0-C , 12-H ) :   0.9987 B(  1-C ,  2-C ) :   0.9974 B(  1-C ,  3-C ) :   0.9746 
B(  1-C , 13-H ) :   0.9996 B(  2-C , 14-H ) :   0.9986 B(  2-C , 15-H ) :   0.9927 
B(  2-C , 16-H ) :   0.9989 B(  3-C ,  4-C ) :   0.9984 B(  3-C ,  9-C ) :   1.0232 
B(  3-C , 17-H ) :   0.9952 B(  4-C ,  5-C ) :   0.9818 B(  4-C , 18-H ) :   1.0002 
B(  4-C , 19-H ) :   0.9983 B(  5-C ,  6-C ) :   1.0103 B(  5-C , 20-H ) :   0.9952 
B(  5-C , 21-H ) :   0.9822 B(  6-C ,  7-C ) :   1.8698 B(  6-C ,  8-C ) :   1.1360 
B(  7-C , 22-H ) :   0.9898 B(  7-C , 23-H ) :   0.9890 B(  8-C ,  9-C ) :   1.8514 
B(  8-C , 24-H ) :   0.9878 B(  9-C , 25-H ) :   0.9943 

-------
TIMINGS
-------

Total SCF time: 0 days 0 hours 0 min 48 sec 

Total time                  ....      48.587 sec
Sum of individual times     ....      46.686 sec  ( 96.1%)

SCF preparation             ....       2.464 sec  (  5.1%)
Fock matrix formation       ....      42.566 sec  ( 87.6%)
  Startup                   ....       0.191 sec  (  0.4% of F)
  Split-RI-J                ....       1.290 sec  (  3.0% of F)
  Chain of spheres X        ....      20.298 sec  ( 47.7% of F)
  XC integration            ....      20.208 sec  ( 47.5% of F)
    XC Preparation          ....       0.000 sec  (  0.0% of XC)
    Basis function eval.    ....       0.447 sec  (  2.2% of XC)
    Density eval.           ....       0.201 sec  (  1.0% of XC)
    XC-Functional eval.     ....       0.143 sec  (  0.7% of XC)
    XC-Potential eval.      ....       0.272 sec  (  1.3% of XC)
Diagonalization             ....       0.000 sec  (  0.0%)
Density matrix formation    ....       0.209 sec  (  0.4%)
Total Energy calculation    ....       0.582 sec  (  1.2%)
Population analysis         ....       0.063 sec  (  0.1%)
Orbital Transformation      ....       0.099 sec  (  0.2%)
Orbital Orthonormalization  ....       0.000 sec  (  0.0%)
DIIS solution               ....       0.478 sec  (  1.0%)
SOSCF solution              ....       0.224 sec  (  0.5%)
Finished LeanSCF after  48.6 sec

Maximum memory used throughout the entire LEANSCF-calculation: 39.0 MB


           ************************************************************
           *        Program running with 40 parallel MPI-processes    *
           *              working on a common directory               *
           ************************************************************

------------------------------------------------------------------------------
                         ORCA PROPERTY INTEGRAL CALCULATIONS
------------------------------------------------------------------------------

GBWName                                   ... ./output/beta_phellandrene/beta_phellandrene.gbw
Number of atoms                           ...     26
Number of basis functions                 ...    210
Max core memory                           ...   1024 MB

Dipole integrals                          ... YES
Quadrupole integrals                      ...  NO
Linear momentum integrals                 ...  NO
Angular momentum integrals                ...  NO
Higher moments length integrals           ...  NO
Higher moments velocity integrals         ...  NO
Kinetic energy integrals                  ...  NO
GIAO right hand sides                     ...  NO
GIAO dipole derivative integrals          ...  NO
SOC integrals                             ...  NO
EPR diamagnetic integrals (GIAO)          ...  NO
EPR gauge integrals                       ...  NO
Field gradient integrals                  ...  NO (   0 nuclei)
Spin-dipole/Fermi contact integrals       ...  NO (   0 nuclei)
Contact density integrals                 ...  NO (   0 nuclei)
Nucleus-orbit integrals                   ...  NO (   0 nuclei)
Geometric perturbations                   ...  NO (  26 nuclei)

Choice of electric origin   ... Center of mass
Position of electric origin ... (  0.3571,  0.2714,  0.0648) 
Choice of magnetic origin   ... GIAO
Position of magnetic origin ... (  0.0000,  0.0000,  0.0000) 

Calculating integrals                     ... Electric Dipole (Length)     done (  0.0 sec)

Property integrals calculated in   0.0 sec

Maximum memory used throughout the entire PROPINT-calculation: 16.9 MB


-------------------------------------------------------------------------------
                          DFT DISPERSION CORRECTION                            
                                                                               
                                DFTD4 V3.4.0                                   
-------------------------------------------------------------------------------
The wB97X-3c composite method is recognized
Using three-body term ABC
Active option DFTDOPT                   ...         5   

-------------------------   ----------------
Dispersion correction           -0.031066300
-------------------------   ----------------


-------------------------   --------------------
FINAL SINGLE POINT ENERGY       -66.597455138518
-------------------------   --------------------



           ************************************************************
           *        Program running with 40 parallel MPI-processes    *
           *              working on a common directory               *
           ************************************************************
------------------------------------------------------------------------------
                         ORCA SCF GRADIENT CALCULATION
------------------------------------------------------------------------------

Nuc. rep. gradient        (SHARK) ... done (  0.0 sec)
HCore & Overlap gradient  (SHARK) ... done (  0.1 sec)
ECP gradient              (SHARK) ... done (  0.4 sec)
Split-RIJ-J gradient      (SHARK) ... done (  0.4 sec)
COSX-gradient                     ... done (  5.8 sec)
XC gradient                       ... done (  1.8 sec)
[...]
 20:    650.94   0.000503    2.54  0.000241  (-0.006026  0.003930  0.013757)
 21:    715.39   0.001170    5.91  0.000510  (-0.001102 -0.015560 -0.016342)
 22:    743.05   0.000280    1.42  0.000118  (-0.005761 -0.006653 -0.006339)
 23:    792.19   0.000339    1.71  0.000134  (-0.006250  0.007037  0.006706)
 24:    803.65   0.000322    1.63  0.000125  (-0.006616  0.006162  0.006580)
 25:    852.74   0.002577   13.03  0.000943  (-0.012986 -0.026256 -0.009232)
 26:    908.58   0.000340    1.72  0.000117  ( 0.010660 -0.001680 -0.000512)
 27:    933.90   0.009816   49.61  0.003280  ( 0.009015  0.041754  0.038149)
 28:    953.42   0.000270    1.37  0.000088  ( 0.003785 -0.007666 -0.003913)
 29:    957.35   0.000925    4.68  0.000302  ( 0.010938 -0.002038  0.013335)
 30:    986.26   0.000400    2.02  0.000127  (-0.005848  0.002978  0.009140)
 31:    995.44   0.000513    2.59  0.000161  (-0.012054 -0.003910 -0.000375)
 32:   1019.56   0.001266    6.40  0.000388  ( 0.015862  0.010427  0.005221)
 33:   1031.44   0.000119    0.60  0.000036  (-0.001518 -0.003626  0.004535)
 34:   1037.69   0.000232    1.17  0.000070  (-0.007510  0.002206  0.002902)
 35:   1075.29   0.000526    2.66  0.000153  ( 0.004529  0.009808  0.005992)
 36:   1128.47   0.000028    0.14  0.000008  (-0.001549  0.000877  0.002122)
 37:   1147.59   0.002018   10.20  0.000549  (-0.022302 -0.007121 -0.000773)
 38:   1191.91   0.000571    2.89  0.000150  ( 0.009015  0.008167 -0.001276)
 39:   1207.03   0.000784    3.96  0.000203  ( 0.007494  0.010522 -0.005978)
 40:   1228.50   0.000564    2.85  0.000143  ( 0.011609  0.002695 -0.001123)
 41:   1259.08   0.000231    1.17  0.000057  ( 0.003642  0.000399  0.006614)
 42:   1291.11   0.000546    2.76  0.000132  (-0.010882 -0.002913 -0.002264)
 43:   1348.82   0.000027    0.14  0.000006  (-0.001472  0.001786 -0.000973)
 44:   1354.36   0.000016    0.08  0.000004  (-0.000242  0.000973  0.001639)
 45:   1366.02   0.000284    1.43  0.000065  ( 0.005113  0.003710 -0.004986)
 46:   1399.73   0.000121    0.61  0.000027  ( 0.003417  0.000200 -0.003912)
 47:   1409.29   0.000192    0.97  0.000043  ( 0.002482  0.004979  0.003415)
 48:   1414.92   0.000150    0.76  0.000033  ( 0.005188  0.002421 -0.000542)
 49:   1427.04   0.000417    2.11  0.000091  ( 0.008559  0.002551 -0.003377)
 50:   1444.13   0.003129   15.81  0.000676  ( 0.020440 -0.016074 -0.000101)
 51:   1454.65   0.001962    9.92  0.000421  (-0.010251 -0.010908 -0.014031)
 52:   1459.92   0.001164    5.88  0.000249  ( 0.014490  0.004276  0.004542)
 53:   1490.46   0.000404    2.04  0.000085  ( 0.006260  0.006006 -0.003056)
 54:   1507.90   0.001249    6.31  0.000259  ( 0.013160 -0.008013 -0.004600)
 55:   1519.66   0.000884    4.47  0.000182  ( 0.005074  0.001550  0.012384)
 56:   1521.24   0.001633    8.25  0.000335  (-0.012238  0.004576  0.012814)
 57:   1526.73   0.001411    7.13  0.000288  ( 0.008143 -0.006248  0.013532)
 58:   1539.00   0.001777    8.98  0.000360  (-0.004653 -0.000892 -0.018382)
 59:   1545.39   0.003346   16.91  0.000676  ( 0.010673  0.022081 -0.008610)
 60:   1728.97   0.002512   12.70  0.000453  ( 0.021046  0.002950 -0.001347)
 61:   1787.08   0.003838   19.40  0.000670  ( 0.022226  0.007994 -0.010600)
 62:   3067.67   0.002992   15.12  0.000304  ( 0.009120 -0.014870  0.000243)
 63:   3081.48   0.005098   25.76  0.000516  ( 0.008717  0.003128 -0.020749)
 64:   3095.07   0.006704   33.88  0.000676  ( 0.021402 -0.014720  0.001090)
 65:   3099.63   0.007055   35.65  0.000710  ( 0.008258  0.014239  0.020960)
 66:   3101.31   0.007088   35.82  0.000713  ( 0.010058  0.000284 -0.024739)
 67:   3123.31   0.003483   17.60  0.000348  ( 0.010760 -0.014544  0.004547)
 68:   3151.37   0.004738   23.95  0.000469  (-0.004878 -0.019709  0.007548)
 69:   3176.72   0.004703   23.77  0.000462  ( 0.017456  0.005638  0.011205)
 70:   3182.49   0.001314    6.64  0.000129  (-0.007846 -0.002977  0.007644)
 71:   3184.90   0.004715   23.83  0.000462  ( 0.004938  0.016855  0.012390)
 72:   3187.47   0.006687   33.79  0.000655  ( 0.018288  0.011380 -0.013811)
 73:   3201.61   0.003149   15.91  0.000307  (-0.008867  0.009849 -0.011458)
 74:   3207.44   0.001221    6.17  0.000119  (-0.010187 -0.001498  0.003580)
 75:   3224.05   0.000399    2.02  0.000039  (-0.005645  0.000042  0.002596)
 76:   3246.15   0.003647   18.43  0.000351  ( 0.006131 -0.012985  0.012014)
 77:   3303.67   0.000973    4.92  0.000092  (-0.001819  0.006835 -0.006472)

* The epsilon (eps) is given for a Dirac delta lineshape.
** The dipole moment derivative (T) already includes vibrational overlap.

The first frequency considered to be a vibration is 6
The total number of vibrations considered is 72


--------------------------
THERMOCHEMISTRY AT 298.15K
--------------------------

Temperature         ...   298.15 K
Pressure            ...     1.00 atm
Total Mass          ...   136.24 AMU
Quasi RRHO          ...     True
Cut-Off Frequency   ...     1.00 cm^-1

Throughout the following assumptions are being made:
  (1) The electronic state is orbitally nondegenerate
  (2) There are no thermally accessible electronically excited states
  (3) Hindered rotations indicated by low frequency modes are not
      treated as such but are treated as vibrations and this may
      cause some error
  (4) All equations used are the standard statistical mechanics
      equations for an ideal gas
  (5) All vibrations are strictly harmonic

freq.      63.28  E(vib)   ...       0.51 
freq.      76.17  E(vib)   ...       0.49 
freq.     185.25  E(vib)   ...       0.37 
freq.     189.89  E(vib)   ...       0.36 
freq.     250.13  E(vib)   ...       0.31 
freq.     261.42  E(vib)   ...       0.30 
freq.     284.70  E(vib)   ...       0.28 
freq.     343.16  E(vib)   ...       0.23 
freq.     362.08  E(vib)   ...       0.22 
freq.     387.68  E(vib)   ...       0.20 
freq.     418.17  E(vib)   ...       0.18 
freq.     459.04  E(vib)   ...       0.16 
freq.     513.71  E(vib)   ...       0.13 
freq.     572.64  E(vib)   ...       0.11 
freq.     650.94  E(vib)   ...       0.08 
freq.     715.39  E(vib)   ...       0.07 
freq.     743.05  E(vib)   ...       0.06 
freq.     792.19  E(vib)   ...       0.05 
freq.     803.65  E(vib)   ...       0.05 
freq.     852.74  E(vib)   ...       0.04 
freq.     908.58  E(vib)   ...       0.03 
freq.     933.90  E(vib)   ...       0.03 
freq.     953.42  E(vib)   ...       0.03 
freq.     957.35  E(vib)   ...       0.03 
freq.     986.26  E(vib)   ...       0.02 
freq.     995.44  E(vib)   ...       0.02 
freq.    1019.56  E(vib)   ...       0.02 
freq.    1031.44  E(vib)   ...       0.02 
freq.    1037.69  E(vib)   ...       0.02 
freq.    1075.29  E(vib)   ...       0.02 
freq.    1128.47  E(vib)   ...       0.01 
freq.    1147.59  E(vib)   ...       0.01 
freq.    1191.91  E(vib)   ...       0.01 
freq.    1207.03  E(vib)   ...       0.01 
freq.    1228.50  E(vib)   ...       0.01 
freq.    1259.08  E(vib)   ...       0.01 
freq.    1291.11  E(vib)   ...       0.01 
freq.    1348.82  E(vib)   ...       0.01 
freq.    1354.36  E(vib)   ...       0.01 
freq.    1366.02  E(vib)   ...       0.01 
freq.    1399.73  E(vib)   ...       0.00 
freq.    1409.29  E(vib)   ...       0.00 
freq.    1414.92  E(vib)   ...       0.00 
freq.    1427.04  E(vib)   ...       0.00 
freq.    1444.13  E(vib)   ...       0.00 
freq.    1454.65  E(vib)   ...       0.00 
freq.    1459.92  E(vib)   ...       0.00 
freq.    1490.46  E(vib)   ...       0.00 
freq.    1507.90  E(vib)   ...       0.00 
freq.    1519.66  E(vib)   ...       0.00 
freq.    1521.24  E(vib)   ...       0.00 
freq.    1526.73  E(vib)   ...       0.00 
freq.    1539.00  E(vib)   ...       0.00 
freq.    1545.39  E(vib)   ...       0.00 
freq.    1728.97  E(vib)   ...       0.00 
freq.    1787.08  E(vib)   ...       0.00 
freq.    3067.67  E(vib)   ...       0.00 
freq.    3081.48  E(vib)   ...       0.00 
freq.    3095.07  E(vib)   ...       0.00 
freq.    3099.63  E(vib)   ...       0.00 
freq.    3101.31  E(vib)   ...       0.00 
freq.    3123.31  E(vib)   ...       0.00 
freq.    3151.37  E(vib)   ...       0.00 
freq.    3176.72  E(vib)   ...       0.00 
freq.    3182.49  E(vib)   ...       0.00 
freq.    3184.90  E(vib)   ...       0.00 
freq.    3187.47  E(vib)   ...       0.00 
freq.    3201.61  E(vib)   ...       0.00 
freq.    3207.44  E(vib)   ...       0.00 
freq.    3224.05  E(vib)   ...       0.00 
freq.    3246.15  E(vib)   ...       0.00 
freq.    3303.67  E(vib)   ...       0.00 

------------
INNER ENERGY
------------

The inner energy is: U= E(el) + E(ZPE) + E(vib) + E(rot) + E(trans)
    E(el)   - is the total energy from the electronic structure calculation
              = E(kin-el) + E(nuc-el) + E(el-el) + E(nuc-nuc)
    E(ZPE)  - the the zero temperature vibrational energy from the frequency calculation
    E(vib)  - the the finite temperature correction to E(ZPE) due to population
              of excited vibrational states
    E(rot)  - is the rotational thermal energy
    E(trans)- is the translational thermal energy

Summary of contributions to the inner energy U:
Electronic energy                ...    -66.60495019 Eh
Zero point energy                ...      0.24184477 Eh     151.76 kcal/mol
Thermal vibrational correction   ...      0.00729666 Eh       4.58 kcal/mol
Thermal rotational correction    ...      0.00141627 Eh       0.89 kcal/mol
Thermal translational correction ...      0.00141627 Eh       0.89 kcal/mol
-----------------------------------------------------------------------
Total thermal energy                    -66.35297622 Eh


Summary of corrections to the electronic energy:
(perhaps to be used in another calculation)
Total thermal correction                  0.01012920 Eh       6.36 kcal/mol
Non-thermal (ZPE) correction              0.24184477 Eh     151.76 kcal/mol
-----------------------------------------------------------------------
Total correction                          0.25197397 Eh     158.12 kcal/mol


--------
ENTHALPY
--------

The enthalpy is H = U + kB*T
                kB is Boltzmann's constant
Total thermal energy              ...    -66.35297622 Eh 
Thermal Enthalpy correction       ...      0.00094421 Eh       0.59 kcal/mol
-----------------------------------------------------------------------
Total Enthalpy                    ...    -66.35203201 Eh


Note: Only C1 symmetry has been detected, increase convergence thresholds 
      if your molecule has a higher symmetry. Symmetry factor of 1.0 is   
      used for the rotational entropy correction. 
 

Note: Rotational entropy computed according to Herzberg 
Infrared and Raman Spectra, Chapter V,1, Van Nostrand Reinhold, 1945 
Point Group:  C1, Symmetry Number:   1  
Rotational constants in cm-1:     0.088014     0.028769     0.026426 

Vibrational entropy computed according to the QRRHO of S. Grimme
Chem.Eur.J. 2012 18 9955 using a reference frequency of 100.0 cm-1


-------
ENTROPY
-------

The entropy contributions are T*S = T*(S(el)+S(vib)+S(rot)+S(trans))
     S(el)   - electronic entropy
     S(vib)  - vibrational entropy
     S(rot)  - rotational entropy
     S(trans)- translational entropy
The entropies will be listed as multiplied by the temperature to get
units of energy

Electronic entropy                ...      0.00000000 Eh      0.00 kcal/mol
Vibrational entropy               ...      0.01205292 Eh      7.56 kcal/mol
Rotational entropy                ...      0.01404860 Eh      8.82 kcal/mol
Translational entropy             ...      0.01930920 Eh     12.12 kcal/mol
-----------------------------------------------------------------------
Final entropy term                ...      0.04541072 Eh     28.50 kcal/mol

In case the symmetry of your molecule has not been determined correctly
or in case you have a reason to use a different symmetry number we print 
out the resulting rotational entropy values for sn=1,12:

 non-linear molecules -----------------------------------
|  sn= 1 | S(rot)=       0.01404860 Eh      8.82 kcal/mol|
|  sn= 2 | S(rot)=       0.01339415 Eh      8.40 kcal/mol|
|  sn= 3 | S(rot)=       0.01301131 Eh      8.16 kcal/mol|
|  sn= 4 | S(rot)=       0.01273969 Eh      7.99 kcal/mol|
|  sn= 5 | S(rot)=       0.01252900 Eh      7.86 kcal/mol|
|  sn= 6 | S(rot)=       0.01235686 Eh      7.75 kcal/mol|
|  sn= 7 | S(rot)=       0.01221131 Eh      7.66 kcal/mol|
|  sn= 8 | S(rot)=       0.01208523 Eh      7.58 kcal/mol|
|  sn= 9 | S(rot)=       0.01197402 Eh      7.51 kcal/mol|
|  sn=10 | S(rot)=       0.01187454 Eh      7.45 kcal/mol|
|  sn=11 | S(rot)=       0.01178455 Eh      7.39 kcal/mol|
|  sn=12 | S(rot)=       0.01170240 Eh      7.34 kcal/mol|
 linear molecules ---------------------------------------
|  Dinfh | S(rot)=       0.00875639 Eh      5.49 kcal/mol|
|  Cinfv | S(rot)=       0.00941084 Eh      5.91 kcal/mol|
 --------------------------------------------------------


-------------------
GIBBS FREE ENERGY
-------------------

The Gibbs free energy is G = H - T*S

Total enthalpy                    ...    -66.35203201 Eh 
Total entropy correction          ...     -0.04541072 Eh    -28.50 kcal/mol
-----------------------------------------------------------------------
Final Gibbs free energy         ...    -66.39744274 Eh

For completeness - the Gibbs free energy minus the electronic energy
G-E(el)                           ...      0.20750745 Eh    130.21 kcal/mol


Maximum memory used throughout the entire PROP-calculation: 113.5 MB

--------------------------------
SUGGESTED CITATIONS FOR THIS RUN
--------------------------------

Below you find a list of papers that are relevant to this ORCA run
We neither can nor want to force you to cite these papers, but we appreciate if you do
You receive ORCA, which is the product of decades of hard work by many enthusiastic individuals, for free
The only thing we kindly ask in return is that you cite our papers,
We deeply appreciate it, if you show your appreciation for ORCA by not just citing the generic ORCA reference.

Please note that relegating all ORCA citations to the supporting information does *not* help us.
SI sections are not indexed - citations you put there will not count into any citation statistics
But we need these citations in order to attract the funding resources that allow us to do what we are doing

Therefore, if you are a happy ORCA user, please consider citing a few of the papers listed below in the main body of your paper

In addition to the list printed below, the program has created the file ./output/beta_phellandrene/beta_phellandrene.bibtex that contains the list in bibtex format
You can import this file easily into all common literature databanks and citation aid programs


List of essential papers. We consider these as the minimum necessary citations

  1. Neese,F.
     Software update: the ORCA program system, version 5.0
     WIRES Comput. Molec. Sci., 2022 12(1)e1606
     doi.org/10.1002/wcms.1606
  2. Mueller,M.; Hansen,A.; Grimme,S.
     wB97X-3c: A composite range-separated hybrid DFT method with a molecule-optimized polarized valence double-zeta basis set
     J. Chem. Phys., 2023 158 014103
     doi.org/10.1063/5.0133026

List of papers to cite with high priority. The work reported in these papers was absolutely
necessary for this run to complete.
Our perspective: the developers of density functionals and basis sets usually get cited in chemistry papers
Good! But without the algorithms to do something with them, the functionals or basis sets would not do anything.
Hence, in our opinion, the algorithm design and method developments papers are equally worthy of getting cited

  1. Neese,F.
     An improvement of the resolution of the identity approximation for the formation of the Coulomb matrix
     J. Comp. Chem., 2003 24(14)1740-1747
     doi.org/10.1002/jcc.10318
  2. Neese,F.; Wennmohs,F.; Hansen,A.; Becker,U.
     Efficient, approximate and parallel Hartree-Fock and hybrid DFT calculations. A 'chain-of-spheres' algorithm for the Hartree-Fock exchange
     Chem. Phys., 2009 356(1-3)98-109
     doi.org/10.1016/j.chemphys.2008.10.036
  3. Bykov,D.; Petrenko,T.; Izsak,R.; Kossmann,S.; Becker,U.; Valeev,E.; Neese,F.
     Efficient implementation of the analytic second derivatives of Hartree-Fock and hybrid DFT energies: a detailed analysis of different approximations
     Molec. Phys., 2015 113 1961-1977
     doi.org/10.1080/00268976.2015.1025114
  4. Helmich-Paris,B.; de Souza,B.; Neese,F.; Izsák,R.
     An improved chain of spheres for exchange algorithm
     J. Chem. Phys., 2021 155 104109
     doi.org/doi: 10.1063/5.0058766.
  5. Neese,F.
     The SHARK Integral Generation and Digestion System
     J. Comp. Chem., 2022  1-16
     doi.org/10.1002/jcc.26942
  6. Caldeweyher,E.; Bannwarth,C.; Grimme,S.
     Extension of the D3 dispersion coefficient model
     J. Chem. Phys., 2017 147 034112
     doi.org/10.1063/1.4993215
  7. Caldeweyher,E.; Ehlert,S.; Hansen,A.; Neugebauer,H.; Spicher,S.; Bannwarth,C.; Grimme,S.
     A generally applicable atomic-charge dependent London dispersion correction
     J. Chem. Phys., 2019 150 154122
     doi.org/10.1063/1.5090222
  8. Caldeweyher,E.; Mewes,J.; Ehlert,S.; Grimme,S.
     Extension and evaluation of the D4 London-dispersion model for periodic systems
     Phys. Chem. Chem. Phys., 2020 22(16)8499-8512
     doi.org/10.1039/D0CP00502A
  9. Wittmann,L.; Gordiy,I.; Friede,M.; Helmich-Paris,B.; Grimme,S.; Hansen,A.; Bursch,M.
     Extension of the D3 and D4 London Dispersion Corrections to the full Actinides Series
     Phys. Chem. Chem. Phys., 2024 26(32)21379-21394
     doi.org/https://doi.org/10.1039/D4CP01514B 

List of suggested additional citations. These are papers that are important in the 'surrounding' of 
of this run, or papers that preceded the highly important papers. If you like your results we are grateful for a citation.

  1. Izsak,R.; Neese,F.
     An overlap fitted chain of spheres exchange method
     J. Chem. Phys., 2011 135 144105
     doi.org/10.1063/1.3646921
  2. Izsak,R.; Hansen,A.; Neese,F.
     The resolution of identity and chain of spheres approximations for the LPNO-CCSD singles Fock term
     Molec. Phys., 2012 110 2413-2417
     doi.org/10.1080/00268976.2012.687466
  3. Neese,F.
     The ORCA program system
     WIRES Comput. Molec. Sci., 2012 2(1)73-78
     doi.org/10.1002/wcms.81
  4. Izsak,R.; Neese,F.; Klopper,W.
     Robust fitting techniques in the chain of spheres approximation to the Fock exchange: The role of the complementary space
     J. Chem. Phys., 2013 139 
     doi.org/10.1063/1.4819264
  5. Neese,F.
     Software update: the ORCA program system, version 4.0
     WIRES Comput. Molec. Sci., 2018 8(1)1-6
     doi.org/10.1002/wcms.1327
  6. Neese,F.; Wennmohs,F.; Becker,U.; Riplinger,C.
     The ORCA quantum chemistry program package
     J. Chem. Phys., 2020 152 Art. No. L224108
     doi.org/10.1063/5.0004608

List of optional additional citations

  1. Neese,F.
     Approximate second-order SCF convergence for spin unrestricted wavefunctions
     Chem. Phys. Lett., 2000 325(1-3)93-98
     doi.org/10.1016/s0009-2614(00)00662-x

Timings for individual modules:

Sum of individual times          ...      622.803 sec (=  10.380 min)
Startup calculation              ...       32.881 sec (=   0.548 min)   5.3 %
SCF iterations                   ...      358.935 sec (=   5.982 min)  57.6 %
Property integrals               ...       48.809 sec (=   0.813 min)   7.8 %
SCF Response                     ...       34.486 sec (=   0.575 min)   5.5 %
Property calculations            ...       73.835 sec (=   1.231 min)  11.9 %
SCF Gradient evaluation          ...       73.722 sec (=   1.229 min)  11.8 %
Geometry relaxation              ...        0.134 sec (=   0.002 min)   0.0 %
                             ****ORCA TERMINATED NORMALLY****
TOTAL RUN TIME: 0 days 0 hours 10 minutes 27 seconds 119 msec
