
                                 *****************
                                 * O   R   C   A *
                                 *****************

                                            #,                                       
                                            ###                                      
                                            ####                                     
                                            #####                                    
                                            ######                                   
                                           ########,                                 
                                     ,,################,,,,,                         
                               ,,#################################,,                 
                          ,,##########################################,,             
                       ,#########################################, ''#####,          
                    ,#############################################,,   '####,        
                  ,##################################################,,,,####,       
                ,###########''''           ''''###############################       
              ,#####''   ,,,,##########,,,,          '''####'''          '####       
            ,##' ,,,,###########################,,,                        '##       
           ' ,,###''''                  '''############,,,                           
         ,,##''                                '''############,,,,        ,,,,,,###''
      ,#''                                            '''#######################'''  
     '                                                          ''''####''''         
             ,#######,   #######,   ,#######,      ##                                
            ,#'     '#,  ##    ##  ,#'     '#,    #''#        ,####,   ,####,        
            ##       ##  ##   ,#'  ##            #'  '#       #'       #'  '#        
            ##       ##  #######   ##           ,######,      #####,   #    #        
            '#,     ,#'  ##    ##  '#,     ,#' ,#      #,     #,   #   #,  ,#        
             '#######'   ##     ##  '#######'  #'      '#     '####' # '####'        



                #########################################################
                #                        -***-                          #
                #          Department of theory and spectroscopy        #
                #                                                       #
                #                      Frank Neese                      #
                #                                                       #
                #     Directorship, Architecture, Infrastructure        #
                #                    SHARK, DRIVERS                     #
                #        Core code/Algorithms in most modules           #
                #                                                       #
                #        Max Planck Institute fuer Kohlenforschung      #
                #                Kaiser Wilhelm Platz 1                 #
                #                 D-45470 Muelheim/Ruhr                 #
                #                      Germany                          #
                #                                                       #
                #                  All rights reserved                  #
                #                        -***-                          #
                #########################################################


                         Program Version 6.0.1  -  RELEASE   -


 With contributions from (in alphabetic order):
[Max-Planck-Institut fuer Kohlenforschung]                               
  Daniel Aravena         : Magnetic Suceptibility                        
  Michael Atanasov       : Ab Initio Ligand Field Theory (pilot matlab implementation)
  Alexander A. Auer      : GIAO ZORA, VPT2 properties, NMR spectrum      
  Ute Becker             : All parallelization in ORCA, NUMFREQ, NUMCALC 
  Giovanni Bistoni       : ED, misc. LED, open-shell LED, HFLD           
  Martin Brehm           : Molecular dynamics                            
  Dmytro Bykov           : pre 5.0 version of the SCF Hessian            
  Marcos Casanova-Páez   : Triplet and SCS-CIS(D). UHF-(DLPNO)-IP/EA/STEOM-CCSD. UHF-CVS-IP/STEOM-CCSD   
  Vijay G. Chilkuri      : MRCI spin determinant printing, contributions to CSF-ICE 
  Pauline Colinet        : FMM embedding                                 
  Dipayan Datta          : RHF DLPNO-CCSD density                        
  Achintya Kumar Dutta   : EOM-CC, STEOM-CC                              
  Nicolas Foglia         : Exact transition moments, OPA infrastructure, MCD improvements    
  Dmitry Ganyushin       : Spin-Orbit,Spin-Spin,Magnetic field MRCI      
  Miquel Garcia-Rates    : C-PCM and meta-GGA Hessian, CCSD/C-PCM, Gaussian charge scheme 
  Tiago L. C. Gouveia    : GS-ROHF, GS-ROCIS                             
  Yang Guo               : DLPNO-NEVPT2, F12-NEVPT2, CIM, IAO-localization        
  Andreas Hansen         : Spin unrestricted coupled pair/coupled cluster methods 
  Ingolf Harden          : AUTO-CI MPn and infrastructure                
  Benjamin Helmich-Paris : MC-RPA, TRAH-(SCF,CASSCF), AVAS, COSX integrals, SCF dyn. polar. 
  Lee Huntington         : MR-EOM, pCC                                   
  Robert Izsak           : Overlap fitted RIJCOSX, COSX-SCS-MP3, EOM     
  Riya Kayal             : Wick's Theorem for AUTO-CI, AUTO-CI UHF-CCSDT 
  Emily Kempfer          : AUTO-CI, RHF CISDT and CCSDT                  
  Christian Kollmar      : KDIIS, OOCD, Brueckner-CCSD(T), CCSD density, CASPT2, CASPT2-K, improved NEVPT2 
  Axel Koslowski         : Symmetry handling                             
  Simone Kossmann        : meta-GGA functionals, TD-DFT gradient, OOMP2, (MP2 Hessian; deprecated post 5.0) 
  Lucas Lang             : DCDCAS                                        
  Marvin Lechner         : AUTO-CI (C++ implementation), FIC-MRCC        
  Spencer Leger          : CASSCF response                               
  Dagmar Lenk            : GEPOL surface, SMD, ORCA-2-JSON               
  Dimitrios Liakos       : Extrapolation schemes; Compound Job, initial MDCI parallelization 
  Dimitrios Manganas     : Further ROCIS development; embedding schemes. LFT, Crystal Embedding 
  Dimitrios Pantazis     : SARC Basis sets                               
  Anastasios Papadopoulos: AUTO-CI, single reference methods and gradients 
  Taras Petrenko         : pre 6.0 DFT Hessian and TD-DFT gradient, (ASA, deprecated), ECA, 1-Electron XAS/XES, NRVS 
  Peter Pinski           : DLPNO-MP2, DLPNO-MP2 Gradient                 
  Christoph Reimann      : Effective Core Potentials                     
  Marius Retegan         : Local ZFS, SOC                                
  Christoph Riplinger    : Optimizer, TS searches, QM/MM, DLPNO-CCSD(T), (RO)-DLPNO pert. Triples 
  Michael Roemelt        : Original ROCIS implementation                 
  Masaaki Saitow         : Open-shell DLPNO-CCSD energy and density      
  Barbara Sandhoefer     : DKH picture change effects                    
  Kantharuban Sivalingam : CASSCF convergence/infrastructure, NEVPT2 and variants, FIC-MRCI 
  Bernardo de Souza      : ESD, SOC TD-DFT                               
  Georgi L. Stoychev     : AutoAux, RI-MP2 NMR, DLPNO-MP2 response, X2C  
  Van Anh Tran           : RI-MP2 g-tensors                              
  Willem Van den Heuvel  : Paramagnetic NMR                              
  Zikuan Wang            : NOTCH, Electric field optimization            
  Frank Wennmohs         : Technical directorship and infrastructure     
  Hang Xu                : AUTO-CI-Response properties                   
                                                                         
[FACCTs GmbH]                                                            
  Markus Bursch, Miquel Garcia-Rates, Christoph Riplinger, Bernardo de Souza, Georgi L. Stoychev 
                                                                 
  APM, Basis sets (HGBS, AHGBS, def-TZVP (Ac-Lr), def2-XVPD (La-Lu)), CI-OPT, improved COSX, DLPNO-Multilevel,           
  DOCKER, DRACO, updates on ESD, GOAT, IRC, LR-CPCM, MBIS, meta-GGA TD-DFT gradient, ML-optimized integration grids, 
  MM, NACMEs, nearIR, NEB, NEB-TS, NL-DFT gradient (VV10), 2- and 3-layer-ONIOM, interface openCOSMO-RS, QMMM,   
  Crystal-QMMM, SF, symmetry and pop. for TD-DFT, r2SCAN hybrids, SOLVATOR                                   
                                                                         
[Other institutions]                                                     
  V. Asgeirsson          : NEB                                           
  Christoph Bannwarth    : sTDA-DFT, sTD-DFT, PBEh-3c, B97-3c, D3        
  Sebastian Ehlert       : rSCAN, r2SCAN, r2SCAN-3c, D4, dhf basis sets  
  Marvin Friede          : D4 for Fr, Ra, Ac-Lr                          
  Lars Goerigk           : TD-DFT with DH, B97 family of functionals     
  Stefan Grimme          : VdW corrections, initial TS optimization, DFT functionals, gCP, sTDA/sTD-DF 
  Waldemar Hujo          : DFT-NL                                        
  H. Jonsson             : NEB                                           
  Holger Kruse           : gCP                                           
  Marcel Mueller         : wB97X-3c, vDZP basis set                      
  Hagen Neugebauer       : wr2SCAN                                       
  Tobias Risthaus        : range-separated hybrid DFT                    
  Lukas Wittmann         : regularized MP2, r2SCAN double-hybrids, wr2SCAN        
                                                                         
We gratefully acknowledge several colleagues who have allowed us to      
interface, adapt or use parts of their codes:                            
  Ed Valeev, F. Pavosevic, A. Kumar             : LibInt (2-el integral package), F12 methods 
  Garnet Chan, S. Sharma, J. Yang, R. Olivares  : DMRG                   
  Ulf Ekstrom                                   : XCFun DFT Library      
  Mihaly Kallay                                 : mrcc  (arbitrary order and MRCC methods)
  Frank Weinhold                                : gennbo (NPA and NBO analysis)           
  Simon Mueller                                 : openCOSMO-RS                            
  Christopher J. Cramer and Donald G. Truhlar   : smd solvation model                     
  S Lehtola, MJT Oliveira, MAL Marques          : LibXC Library                           
  Liviu Ungur et al                             : ANISO software                          


 Your calculation uses the libint2 library for the computation of 2-el integrals
 For citations please refer to: http://libint.valeyev.net

 Your ORCA version has been built with support for libXC version: 6.2.2
 For citations please refer to: https://libxc.gitlab.io

 This ORCA versions uses:
   CBLAS   interface :  Fast vector & matrix operations
   LAPACKE interface :  Fast linear algebra routines
   SCALAPACK package :  Parallel linear algebra routines
   Shared memory     :  Shared parallel matrices
   BLAS/LAPACK       :  OpenBLAS 0.3.27  USE64BITINT DYNAMIC_ARCH NO_AFFINITY SkylakeX SINGLE_THREADED
        Core in use  :  SkylakeX
   Copyright (c) 2011-2014, The OpenBLAS Project


Your calculation utilizes the atom-pairwise dispersion correction
based on EEQ partial charges (D4)


================================================================================

cite the ECPs for C  [vDZP-ECP], O  [vDZP-ECP] as follows:
   B-Ne (ecp-2-mwb), Al-Ar (ecp-10-mwb), Ga-Kr (ecp-28-mwb), Y-Cd (ecp-28-mwb), In-Xe (ecp-46-mwb):
     A. Bergner, M. Dolg, W. Küchle, H. Stoll, and H. Preuß, Mol. Phys. 80, 1431 (1993)., T. Leininger, A. Berning, A. Nicklass, H. Stoll, H.-J. Werner, and H.-J.Flad, Chem. Phys. 217, 19 (1997).
   Na-Mg, K-Ca, Rb-Sr, Cs-Ba (CRENBL):
     L. Fernandez Pacios and P. A. Christiansen, J. Chem. Phys. 82, 2664 (1985)., M. M. Hurley, L. F. Pacios, P. A. Christiansen, R. B. Ross, and W. C. Ermler, J. Chem. Phys. 84, 6840 (1986)., L. A. LaJohn, P. A. Christiansen, R. B. Ross, T. Atashroo, and W. C. Ermler, J. Chem. Phys. 87, 2812 (1987)., R. B. Ross, J. M. Powers, T. Atashroo, W. C. Ermler, L. A. LaJohn, and P. A. Christiansen, J. Chem. Phys. 93, 6654 (1990). 
   Sc-Zn (ecp-10-mdf):
     M. Dolg, U. Wedig, H. Stoll, and H. Preuss, J. Chem. Phys. 86, 866 (1986). 
   Y-Cd (ecp-28-mwb), Hf-Hg (ecp-60-mwb):
     D. Andrae, U. Häußermann, M. Dolg, H. Stoll, and H. Preuß, Theor. Chim. Acta 77, 123 (1990). 
   La (ecp-46-mwb):
     M. Dolg, H. Stoll, and H. Preuss, J. Chem. Phys. 90, 1730 (1989)., M. Dolg, H. Stoll, and H. Preuss, Theor. Chim. Acta 85, 441 (1993).
   Ce-Lu (SBKJC-ecp):
     T. R. Cundari and W. J. Stevens, J. Chem. Phys. 98, 5555 (1993).
   Tl-Rn (ecp-78-mwb):
     W. Küchle, M. Dolg, H. Stoll, and H. Preuss, Mol. Phys. 74, 1245 (1991).

ECP parameters for C  [vDZP-ECP], O  [vDZP-ECP] have been obtained from:
MM, AH, SG, J. Chem. Phys. 158, 014103 (2023), 10.1063/5.0133026

----- Orbital basis set information -----
Your calculation utilizes the basis: vDZP
   Marcel Mueller, Andreas Hansen, Stefan Grimme 
   J. Chem. Phys. 158, 014103 (2023). DOI: 10.1063/5.0133026

----- AuxJ basis set information -----
Your calculation utilizes the auxiliary basis: def2/J
   F. Weigend, Phys. Chem. Chem. Phys. 8, 1057 (2006).

================================================================================
                                        WARNINGS
                       Please study these warnings very carefully!
================================================================================

WARNING: Frozen-Core approximation turned on, but there are no core electrons.
  ===> : Turning off frozen-core approximation


WARNING: Geometry Optimization
  ===> : Switching off AutoStart
         For restart on a previous wavefunction, please use MOREAD

================================================================================
                                       INPUT FILE
================================================================================
NAME = ./output/himachalol/himachalol.inp
|  1> ! wB97X-3c OPT FREQ TightSCF
|  2> %pal
|  3>   nprocs 40
|  4> end
|  5> * xyz 0 1
|  6> C      4.011868    -0.946959    -0.524869
|  7> C      2.564813    -0.827891    -0.130409
|  8> C      1.767826     0.038527    -0.779744
|  9> C      0.292647     0.249830    -0.440964
| 10> C     -0.339568    -0.893242     0.454095
| 11> C      0.590954    -2.129228     0.578710
| 12> C      2.002658    -1.696029     0.957988
| 13> C     -1.807799    -1.314514     0.048108
| 14> C     -2.842643    -0.191629     0.362084
| 15> C     -2.508223     1.219494    -0.152031
| 16> C     -1.401362     1.896813     0.676497
| 17> C      0.044950     1.705836     0.121082
| 18> C      0.269888     2.747415    -1.007234
| 19> C      1.034426     2.033956     1.268997
| 20> C     -1.927731    -1.741594    -1.441601
| 21> O     -2.154204    -2.430791     0.842187
| 22> H      4.543565    -1.686386     0.109899
| 23> H      4.087027    -1.271465    -1.584243
| 24> H      4.513979     0.036766    -0.408174
| 25> H      2.194766     0.630184    -1.584554
| 26> H     -0.185253     0.204582    -1.433901
| 27> H     -0.408285    -0.512711     1.495881
| 28> H      0.220694    -2.814660     1.371527
| 29> H      0.632937    -2.698569    -0.373402
| 30> H      2.632834    -2.599516     1.104729
| 31> H      1.984440    -1.126730     1.912441
| 32> H     -3.005185    -0.143567     1.461871
| 33> H     -3.826624    -0.482863    -0.068548
| 34> H     -3.430559     1.831185    -0.041471
| 35> H     -2.276829     1.216781    -1.235632
| 36> H     -1.631038     2.984210     0.738063
| 37> H     -1.464214     1.548986     1.731318
| 38> H      1.317227     2.732723    -1.372425
| 39> H      0.070722     3.778180    -0.642013
| 40> H     -0.401141     2.553418    -1.870269
| 41> H      0.966922     1.282661     2.082989
| 42> H      2.084428     2.059564     0.907759
| 43> H      0.809521     3.032020     1.704079
| 44> H     -1.130039    -2.454817    -1.727064
| 45> H     -1.904511    -0.882699    -2.139461
| 46> H     -2.899997    -2.249461    -1.617850
| 47> H     -3.093888    -2.687812     0.645554
| 48> *
| 49> 
| 50>                          ****END OF INPUT****
================================================================================

                       *****************************
                       * Geometry Optimization Run *
                       *****************************

Geometry optimization settings:
Update method            Update   .... BFGS
Choice of coordinates    CoordSys .... (2022) Redundant Internals
Initial Hessian          InHess   .... Almloef's Model
Max. no of cycles        MaxIter  .... 126

Convergence Tolerances:
Energy Change            TolE     ....  5.0000e-06 Eh
Max. Gradient            TolMAXG  ....  3.0000e-04 Eh/bohr
RMS Gradient             TolRMSG  ....  1.0000e-04 Eh/bohr
Max. Displacement        TolMAXD  ....  4.0000e-03 bohr
RMS Displacement         TolRMSD  ....  2.0000e-03 bohr
Strict Convergence                .... False

------------------------------------------------------------------------------
                        ORCA OPTIMIZATION COORDINATE SETUP
------------------------------------------------------------------------------

The optimization will be done in redundant internal coordinates (2022)
Making redundant internal coordinates   ...  (2022 redundants) done
Evaluating the initial hessian          ...  (Almloef) done
Evaluating the coordinates              ...  done
Calculating the B-matrix                .... done
Calculating the G-matrix                .... done
Diagonalizing the G-matrix              .... done
Small eigenvalue found = 1.875e-02
Small eigenvalue found = 2.184e-02
Small eigenvalue found = 2.767e-02
The first mode is                       ....  102
The number of degrees of freedom        ....  120

    -----------------------------------------------------------------
                    Redundant Internal Coordinates


    -----------------------------------------------------------------
         Definition                    Initial Value    Approx d2E/dq
    -----------------------------------------------------------------
      1. B(C   1,C   0)                  1.5046         0.410150   
      2. B(C   2,C   1)                  1.3444         0.738644   
      3. B(C   3,C   2)                  1.5283         0.375972   
      4. B(C   4,C   3)                  1.5835         0.306929   
      5. B(C   5,C   4)                  1.5521         0.344425   
      6. B(C   6,C   5)                  1.5246         0.381052   
      7. B(C   6,C   1)                  1.5014         0.414916   
      8. B(C   7,C   4)                  1.5805         0.310312   
      9. B(C   8,C   7)                  1.5590         0.335873   
     10. B(C   9,C   8)                  1.5386         0.361901   
     11. B(C  10,C   9)                  1.5396         0.360633   
     12. B(C  11,C  10)                  1.5610         0.333342   
     13. B(C  11,C   3)                  1.5803         0.310599   
     14. B(C  12,C  11)                  1.5520         0.344621   
     15. B(C  13,C  11)                  1.5506         0.346317   
     16. B(C  14,C   7)                  1.5544         0.341604   
     17. B(O  15,C   7)                  1.4130         0.514215   
     18. B(H  16,C   0)                  1.1101         0.334434   
     19. B(H  17,C   0)                  1.1105         0.333968   
     20. B(H  18,C   0)                  1.1106         0.333846   
     21. B(H  19,C   2)                  1.0863         0.365024   
     22. B(H  20,C   3)                  1.1029         0.343449   
     23. B(H  21,C   4)                  1.1112         0.333076   
     24. B(H  22,C   5)                  1.1115         0.332733   
     25. B(H  23,C   5)                  1.1101         0.334409   
     26. B(H  24,C   6)                  1.1113         0.333021   
     27. B(H  25,C   6)                  1.1115         0.332763   
     28. B(H  26,C   8)                  1.1128         0.331201   
     29. B(H  27,C   8)                  1.1129         0.331082   
     30. B(H  28,C   9)                  1.1122         0.331841   
     31. B(H  29,C   9)                  1.1080         0.337015   
     32. B(H  30,C  10)                  1.1131         0.330812   
     33. B(H  31,C  10)                  1.1125         0.331573   
     34. B(H  32,C  12)                  1.1093         0.335479   
     35. B(H  33,C  12)                  1.1115         0.332699   
     36. B(H  34,C  12)                  1.1103         0.334235   
     37. B(H  35,C  13)                  1.1098         0.334877   
     38. B(H  36,C  13)                  1.1107         0.333733   
     39. B(H  37,C  13)                  1.1118         0.332435   
     40. B(H  38,C  14)                  1.1075         0.337716   
     41. B(H  39,C  14)                  1.1069         0.338412   
     42. B(H  40,C  14)                  1.1110         0.333379   
     43. B(H  41,O  15)                  0.9938         0.459163   
     44. A(H  16,C   0,H  17)          108.5672         0.284134   
     45. A(H  17,C   0,H  18)          109.1757         0.284056   
     46. A(H  16,C   0,H  18)          108.2619         0.284118   
     47. A(C   1,C   0,H  17)          109.7745         0.325283   
     48. A(C   1,C   0,H  18)          109.7050         0.325264   
     49. A(C   1,C   0,H  16)          111.3117         0.325358   
     50. A(C   0,C   1,C   6)          120.2911         0.375950   
     51. A(C   2,C   1,C   6)          120.0521         0.416818   
     52. A(C   0,C   1,C   2)          119.6379         0.415962   
     53. A(C   1,C   2,H  19)          118.4141         0.364423   
     54. A(C   3,C   2,H  19)          117.9239         0.325385   
     55. A(C   1,C   2,C   3)          123.6593         0.409586   
     56. A(C   2,C   3,C  11)          110.9490         0.352505   
     57. A(C   4,C   3,C  11)          113.6714         0.340678   
     58. A(C  11,C   3,H  20)          106.8634         0.312283   
     59. A(C   2,C   3,H  20)          102.2992         0.322148   
     60. A(C   4,C   3,H  20)          107.8348         0.311683   
     61. A(C   2,C   3,C   4)          114.2602         0.351797   
     62. A(C   3,C   4,C   7)          114.7151         0.340625   
     63. A(C   7,C   4,H  21)          105.9410         0.310692   
     64. A(C   5,C   4,C   7)          111.4260         0.347276   
     65. A(C   3,C   4,H  21)          107.9033         0.310143   
     66. A(C   3,C   4,C   5)          112.3871         0.346636   
     67. A(C   5,C   4,H  21)          103.5619         0.315988   
     68. A(C   4,C   5,C   6)          110.4157         0.359564   
     69. A(C   6,C   5,H  23)          108.9087         0.321450   
     70. A(H  22,C   5,H  23)          107.9434         0.283967   
     71. A(C   4,C   5,H  23)          111.2360         0.316193   
     72. A(C   6,C   5,H  22)          107.8316         0.321185   
     73. A(C   4,C   5,H  22)          110.4032         0.315935   
     74. A(H  24,C   6,H  25)          108.1994         0.283787   
     75. A(C   5,C   6,H  25)          110.1196         0.321190   
     76. A(C   5,C   6,H  24)          109.0819         0.321231   
     77. A(C   1,C   6,H  24)          110.7012         0.325750   
     78. A(C   1,C   6,H  25)          109.4188         0.325708   
     79. A(C   1,C   6,C   5)          109.3077         0.371210   
     80. A(C   8,C   7,O  15)          107.0436         0.374542   
     81. A(C  14,C   7,O  15)          107.6152         0.375637   
     82. A(C   4,C   7,O  15)          107.0945         0.369472   
     83. A(C   8,C   7,C  14)          109.8594         0.351456   
     84. A(C   4,C   7,C  14)          113.0231         0.346795   
     85. A(C   4,C   7,C   8)          111.8965         0.345810   
     86. A(H  26,C   8,H  27)          105.3427         0.283323   
     87. A(C   7,C   8,H  27)          108.6930         0.314393   
     88. A(C   9,C   8,H  26)          108.8065         0.318252   
     89. A(C   7,C   8,H  26)          109.0942         0.314412   
     90. A(C   7,C   8,C   9)          116.6803         0.354907   
     91. A(C   9,C   8,H  27)          107.6311         0.318233   
     92. A(H  28,C   9,H  29)          105.7674         0.284191   
     93. A(C  10,C   9,H  29)          112.1616         0.318974   
     94. A(C  10,C   9,H  28)          107.5019         0.318170   
     95. A(C   8,C   9,H  28)          106.9136         0.318352   
     96. A(C   8,C   9,C  10)          112.3285         0.359222   
     97. A(C   8,C   9,H  29)          111.7101         0.319157   
     98. A(C  11,C  10,H  30)          109.2916         0.313966   
     99. A(C   9,C  10,H  30)          108.1314         0.318009   
    100. A(C   9,C  10,C  11)          114.8854         0.354241   
    101. A(C  11,C  10,H  31)          110.5767         0.314083   
    102. A(C   9,C  10,H  31)          109.3958         0.318128   
    103. A(H  30,C  10,H  31)          103.9658         0.283337   
    104. A(C  12,C  11,C  13)          107.6805         0.353807   
    105. A(C  10,C  11,C  13)          107.5741         0.351820   
    106. A(C   3,C  11,C  13)          110.9924         0.347650   
    107. A(C  10,C  11,C  12)          108.1110         0.351529   
    108. A(C   3,C  11,C  12)          109.6985         0.347363   
    109. A(C   3,C  11,C  10)          112.6125         0.345424   
    110. A(H  33,C  12,H  34)          108.0073         0.283939   
    111. A(H  32,C  12,H  34)          108.2046         0.284307   
    112. A(C  11,C  12,H  34)          111.1162         0.316195   
    113. A(H  32,C  12,H  33)          106.8356         0.284103   
    114. A(C  11,C  12,H  33)          110.9476         0.315959   
    115. A(C  11,C  12,H  32)          111.5494         0.316387   
    116. A(H  36,C  13,H  37)          107.3269         0.283838   
    117. A(H  35,C  13,H  37)          107.9630         0.283989   
    118. A(C  11,C  13,H  37)          110.5232         0.316170   
    119. A(H  35,C  13,H  36)          108.1596         0.284161   
    120. A(C  11,C  13,H  36)          111.5525         0.316371   
    121. A(C  11,C  13,H  35)          111.1568         0.316547   
    122. A(H  39,C  14,H  40)          105.8457         0.284578   
    123. A(H  38,C  14,H  40)          107.1610         0.284487   
    124. A(C   7,C  14,H  40)          110.1923         0.315612   
    125. A(H  38,C  14,H  39)          108.7898         0.285151   
    126. A(C   7,C  14,H  39)          112.9184         0.316382   
    127. A(C   7,C  14,H  38)          111.6180         0.316276   
    128. A(C   7,O  15,H  41)          108.9599         0.350984   
    129. D(C   2,C   1,C   0,H  17)    -60.7534         0.012459   
    130. D(C   6,C   1,C   0,H  16)     -2.5651         0.012459   
    131. D(C   2,C   1,C   0,H  16)    179.0172         0.012459   
    132. D(C   2,C   1,C   0,H  18)     59.2151         0.012459   
    133. D(C   6,C   1,C   0,H  17)    117.6644         0.012459   
    134. D(C   3,C   2,C   1,C   6)      2.5866         0.038796   
    135. D(H  19,C   2,C   1,C   0)      0.4024         0.038796   
    136. D(H  19,C   2,C   1,C   6)   -178.0191         0.038796   
    137. D(C   3,C   2,C   1,C   0)   -178.9918         0.038796   
    138. D(C   4,C   3,C   2,H  19)    164.5523         0.010562   
    139. D(C  11,C   3,C   2,C   1)    114.0470         0.010562   
    140. D(C  11,C   3,C   2,H  19)    -65.3500         0.010562   
    141. D(H  20,C   3,C   2,C   1)   -132.2880         0.010562   
    142. D(C   4,C   3,C   2,C   1)    -16.0507         0.010562   
    143. D(C   5,C   4,C   3,C   2)    -10.9994         0.007801   
    144. D(C   7,C   4,C   3,H  20)    -26.6628         0.007801   
    145. D(C   7,C   4,C   3,C  11)     91.6166         0.007801   
    146. D(C   5,C   4,C   3,H  20)    101.9829         0.007801   
    147. D(C   7,C   4,C   3,C   2)   -139.6451         0.007801   
    148. D(C   5,C   4,C   3,C  11)   -139.7377         0.007801   
    149. D(H  22,C   5,C   4,H  21)     52.0853         0.009583   
    150. D(H  22,C   5,C   4,C   7)    -61.3779         0.009583   
    151. D(H  22,C   5,C   4,C   3)    168.2764         0.009583   
    152. D(C   6,C   5,C   4,H  21)    -67.0624         0.009583   
    153. D(C   6,C   5,C   4,C   7)    179.4744         0.009583   
    154. D(C   6,C   5,C   4,C   3)     49.1287         0.009583   
    155. D(H  24,C   6,C   1,C   2)    157.2803         0.012740   
    156. D(H  24,C   6,C   1,C   0)    -21.1308         0.012740   
    157. D(C   5,C   6,C   1,C   2)     37.1013         0.012740   
    158. D(H  25,C   6,C   1,C   0)     98.0283         0.012740   
    159. D(C   5,C   6,C   1,C   0)   -141.3099         0.012740   
    160. D(H  24,C   6,C   5,H  23)    -61.1722         0.011569   
    161. D(H  24,C   6,C   5,H  22)     55.7173         0.011569   
    162. D(H  24,C   6,C   5,C   4)    176.4139         0.011569   
    163. D(C   1,C   6,C   5,H  23)     59.9947         0.011569   
    164. D(C   1,C   6,C   5,H  22)    176.8842         0.011569   
    165. D(C   1,C   6,C   5,C   4)    -62.4192         0.011569   
    166. D(C  14,C   7,C   4,C   5)    -73.8389         0.007952   
    167. D(C  14,C   7,C   4,C   3)     55.2860         0.007952   
    168. D(C   8,C   7,C   4,H  21)     49.5409         0.007952   
    169. D(C   8,C   7,C   4,C   5)    161.5076         0.007952   
    170. D(C  14,C   7,C   4,H  21)    174.1944         0.007952   
    171. D(C   8,C   7,C   4,C   3)    -69.3674         0.007952   
    172. D(H  26,C   8,C   7,O  15)     43.7187         0.009155   
    173. D(H  26,C   8,C   7,C  14)    160.2872         0.009155   
    174. D(H  26,C   8,C   7,C   4)    -73.3187         0.009155   
    175. D(C   9,C   8,C   7,O  15)    167.4810         0.009155   
    176. D(C   9,C   8,C   7,C  14)    -75.9505         0.009155   
    177. D(C   9,C   8,C   7,C   4)     50.4436         0.009155   
    178. D(H  28,C   9,C   8,H  26)    -68.1607         0.010500   
    179. D(H  28,C   9,C   8,C   7)    167.9297         0.010500   
    180. D(C  10,C   9,C   8,H  27)    163.2038         0.010500   
    181. D(C  10,C   9,C   8,H  26)     49.5303         0.010500   
    182. D(H  28,C   9,C   8,H  27)     45.5128         0.010500   
    183. D(C  10,C   9,C   8,C   7)    -74.3793         0.010500   
    184. D(H  30,C  10,C   9,H  29)     88.8401         0.010432   
    185. D(H  30,C  10,C   9,H  28)    -27.0146         0.010432   
    186. D(H  30,C  10,C   9,C   8)   -144.3558         0.010432   
    187. D(C  11,C  10,C   9,H  29)    -33.5118         0.010432   
    188. D(C  11,C  10,C   9,H  28)   -149.3665         0.010432   
    189. D(C  11,C  10,C   9,C   8)     93.2923         0.010432   
    190. D(C  10,C  11,C   3,C   4)    -41.1016         0.007965   
    191. D(C  10,C  11,C   3,C   2)   -171.5083         0.007965   
    192. D(C  12,C  11,C  10,H  31)   -153.7606         0.009031   
    193. D(C  12,C  11,C  10,H  30)    -39.8989         0.009031   
    194. D(C  12,C  11,C  10,C   9)     81.8251         0.009031   
    195. D(C   3,C  11,C  10,H  31)     84.8803         0.009031   
    196. D(C   3,C  11,C  10,H  30)   -161.2580         0.009031   
    197. D(C   3,C  11,C  10,C   9)    -39.5340         0.009031   
    198. D(C  12,C  11,C   3,H  20)    -42.7154         0.007965   
    199. D(C  12,C  11,C   3,C   4)   -161.5524         0.007965   
    200. D(C  12,C  11,C   3,C   2)     68.0408         0.007965   
    201. D(C  10,C  11,C   3,H  20)     77.7354         0.007965   
    202. D(H  33,C  12,C  11,C  13)    -60.8285         0.009593   
    203. D(H  33,C  12,C  11,C  10)     55.1277         0.009593   
    204. D(H  33,C  12,C  11,C   3)    178.2741         0.009593   
    205. D(H  32,C  12,C  11,C  13)     58.1583         0.009593   
    206. D(H  32,C  12,C  11,C  10)    174.1144         0.009593   
    207. D(H  32,C  12,C  11,C   3)    -62.7391         0.009593   
    208. D(H  36,C  13,C  11,C  12)    -55.6103         0.009680   
    209. D(H  36,C  13,C  11,C  10)   -171.9187         0.009680   
    210. D(H  36,C  13,C  11,C   3)     64.4722         0.009680   
    211. D(H  35,C  13,C  11,C  12)   -176.4187         0.009680   
    212. D(H  35,C  13,C  11,C  10)     67.2729         0.009680   
    213. D(H  35,C  13,C  11,C   3)    -56.3362         0.009680   
    214. D(H  39,C  14,C   7,O  15)    166.7725         0.009440   
    215. D(H  39,C  14,C   7,C   8)     50.5635         0.009440   
    216. D(H  39,C  14,C   7,C   4)    -75.1913         0.009440   
    217. D(H  38,C  14,C   7,O  15)    -70.2909         0.009440   
    218. D(H  38,C  14,C   7,C   8)    173.5000         0.009440   
    219. D(H  38,C  14,C   7,C   4)     47.7452         0.009440   
    220. D(H  41,O  15,C   7,C  14)    -61.3664         0.020945   
    221. D(H  41,O  15,C   7,C   8)     56.6768         0.020945   
    222. D(H  41,O  15,C   7,C   4)    176.8337         0.020945   
    -----------------------------------------------------------------

Number of atoms                         .... 42
Number of degrees of freedom            .... 222


         *************************************************************
         *                GEOMETRY OPTIMIZATION CYCLE   1            *
         *************************************************************
---------------------------------
CARTESIAN COORDINATES (ANGSTROEM)
---------------------------------
  C      4.011868   -0.946959   -0.524869
  C      2.564813   -0.827891   -0.130409
  C      1.767826    0.038527   -0.779744
  C      0.292647    0.249830   -0.440964
  C     -0.339568   -0.893242    0.454095
  C      0.590954   -2.129228    0.578710
  C      2.002658   -1.696029    0.957988
  C     -1.807799   -1.314514    0.048108
  C     -2.842643   -0.191629    0.362084
  C     -2.508223    1.219494   -0.152031
  C     -1.401362    1.896813    0.676497
  C      0.044950    1.705836    0.121082
  C      0.269888    2.747415   -1.007234
  C      1.034426    2.033956    1.268997
  C     -1.927731   -1.741594   -1.441601
  O     -2.154204   -2.430791    0.842187
  H      4.543565   -1.686386    0.109899
  H      4.087027   -1.271465   -1.584243
  H      4.513979    0.036766   -0.408174
  H      2.194766    0.630184   -1.584554
  H     -0.185253    0.204582   -1.433901
  H     -0.408285   -0.512711    1.495881
  H      0.220694   -2.814660    1.371527
  H      0.632937   -2.698569   -0.373402
  H      2.632834   -2.599516    1.104729
  H      1.984440   -1.126730    1.912441
  H     -3.005185   -0.143567    1.461871
  H     -3.826624   -0.482863   -0.068548
  H     -3.430559    1.831185   -0.041471
  H     -2.276829    1.216781   -1.235632
  H     -1.631038    2.984210    0.738063
  H     -1.464214    1.548986    1.731318
  H      1.317227    2.732723   -1.372425
  H      0.070722    3.778180   -0.642013
  H     -0.401141    2.553418   -1.870269
  H      0.966922    1.282661    2.082989
  H      2.084428    2.059564    0.907759
  H      0.809521    3.032020    1.704079
  H     -1.130039   -2.454817   -1.727064
  H     -1.904511   -0.882699   -2.139461
  H     -2.899997   -2.249461   -1.617850
  H     -3.093888   -2.687812    0.645554

----------------------------
CARTESIAN COORDINATES (A.U.)
----------------------------
  NO LB      ZA    FRAG     MASS         X           Y           Z
   0 C     4.0000*   0    12.011    7.581332   -1.789493   -0.991859
   1 C     4.0000*   0    12.011    4.846794   -1.564487   -0.246437
   2 C     4.0000*   0    12.011    3.340707    0.072805   -1.473503
   3 C     4.0000*   0    12.011    0.553023    0.472110   -0.833301
   4 C     4.0000*   0    12.011   -0.641691   -1.687983    0.858115
   5 C     4.0000*   0    12.011    1.116741   -4.023658    1.093603
   6 C     4.0000*   0    12.011    3.784475   -3.205030    1.810335
   7 C     4.0000*   0    12.011   -3.416245   -2.484071    0.090911
   8 C     4.0000*   0    12.011   -5.371817   -0.362126    0.684240
   9 C     4.0000*   0    12.011   -4.739855    2.304510   -0.287297
  10 C     4.0000*   0    12.011   -2.648190    3.584457    1.278394
  11 C     4.0000*   0    12.011    0.084943    3.223563    0.228812
  12 C     4.0000*   0    12.011    0.510014    5.191862   -1.903396
  13 C     4.0000*   0    12.011    1.954782    3.843620    2.398057
  14 C     4.0000*   0    12.011   -3.642884   -3.291136   -2.724231
  15 O     6.0000*   0    15.999   -4.070856   -4.593529    1.591503
  16 H     1.0000    0     1.008    8.586094   -3.186808    0.207679
  17 H     1.0000    0     1.008    7.723362   -2.402721   -2.993785
  18 H     1.0000    0     1.008    8.530184    0.069478   -0.771337
  19 H     1.0000    0     1.008    4.147507    1.190875   -2.994373
  20 H     1.0000    0     1.008   -0.350077    0.386604   -2.709680
  21 H     1.0000    0     1.008   -0.771547   -0.968883    2.826805
  22 H     1.0000    0     1.008    0.417051   -5.318937    2.591810
  23 H     1.0000    0     1.008    1.196078   -5.099556   -0.705628
  24 H     1.0000    0     1.008    4.975335   -4.912373    2.087635
  25 H     1.0000    0     1.008    3.750048   -2.129211    3.613990
  26 H     1.0000    0     1.008   -5.678977   -0.271302    2.762536
  27 H     1.0000    0     1.008   -7.231271   -0.912479   -0.129537
  28 H     1.0000    0     1.008   -6.482817    3.460438   -0.078369
  29 H     1.0000    0     1.008   -4.302583    2.299383   -2.335006
  30 H     1.0000    0     1.008   -3.082215    5.639340    1.394737
  31 H     1.0000    0     1.008   -2.766963    2.927159    3.271717
  32 H     1.0000    0     1.008    2.489198    5.164098   -2.593507
  33 H     1.0000    0     1.008    0.133645    7.139725   -1.213229
  34 H     1.0000    0     1.008   -0.758047    4.825261   -3.534296
  35 H     1.0000    0     1.008    1.827218    2.423878    3.936279
  36 H     1.0000    0     1.008    3.938998    3.892012    1.715416
  37 H     1.0000    0     1.008    1.529773    5.729687    3.220243
  38 H     1.0000    0     1.008   -2.135464   -4.638932   -3.263678
  39 H     1.0000    0     1.008   -3.599004   -1.668059   -4.042995
  40 H     1.0000    0     1.008   -5.480200   -4.250865   -3.057293
  41 H     1.0000    0     1.008   -5.846601   -5.079229    1.219920
* core charge reduced due to ECP

--------------------------------
INTERNAL COORDINATES (ANGSTROEM)
--------------------------------
 C      0   0   0     0.000000000000     0.00000000     0.00000000
 C      1   0   0     1.504574376111     0.00000000     0.00000000
 C      2   1   0     1.344434591610   119.63790913     0.00000000
 C      3   2   1     1.528258462515   123.65931721   181.00820040
 C      4   3   2     1.583489822162   114.26017239   343.94934560
 C      5   4   3     1.552115164189   112.38713649   349.00059481
 C      2   1   3     1.501429272619   120.29109552   178.41772582
 C      5   4   3     1.580505555673   114.71505987   220.35489749
 C      8   5   4     1.558959190017   111.89646562   290.63256086
 C      9   8   5     1.538641963146   116.68032407    50.44359799
 C     10   9   8     1.539597657788   112.32845751   285.62068707
 C     11  10   9     1.561017757137   114.88541910    93.29225038
 C     12  11  10     1.551960345157   108.11095088    81.82512801
 C     12  11  10     1.550623853873   107.57409055   197.85063890
 C      8   5   4     1.554353214590   113.02311313    55.28600707
 O      8   5   4     1.413022371725   107.09451951   173.62580383
 H      1   2   3     1.110128101600   111.31172971   179.01721339
 H      1   2   3     1.110507222486   109.77452783   299.24662724
 H      1   2   3     1.110607065965   109.70500547    59.21509371
 H      3   2   1     1.086303321061   118.41409524     0.40243581
 H      4   3   2     1.102886974025   102.29923006   227.71199772
 H      5   4   3     1.111235320644   107.90327302   102.55282595
 H      6   5   4     1.111516212078   110.40316308   168.27638541
 H      6   5   4     1.110148191510   111.23598715   288.09042939
 H      7   2   1     1.111280104756   110.70115628   338.86916788
 H      7   2   1     1.111491689638   109.41877750    98.02826649
 H      9   8   5     1.112771900695   109.09419651   286.68134501
 H      9   8   5     1.112870060043   108.69298727   172.30596855
 H     10   9   8     1.112246865573   106.91364585   167.92971239
 H     10   9   8     1.108035049448   111.71013046    52.66670982
 H     11  10   9     1.113091942717   108.13144608   215.64418102
 H     11  10   9     1.112466331119   109.39579044   328.25822928
 H     13  12  11     1.109278730647   111.54943244   174.11444775
 H     13  12  11     1.111543953077   110.94763745    55.12770395
 H     13  12  11     1.110290126983   111.11615062   294.95009048
 H     14  12  11     1.109767517593   111.15679435    67.27291767
 H     14  12  11     1.110699267269   111.55246999   188.08130300
 H     14  12  11     1.111760025295   110.52319825   307.40658766
 H     15   8   5     1.107469502497   111.61797637    47.74522760
 H     15   8   5     1.106909377061   112.91836263   284.80866117
 H     15   8   5     1.110987747208   110.19226381   166.68638158
 H     16   8   5     0.993846241119   108.95994360   176.83365682

---------------------------
INTERNAL COORDINATES (A.U.)
---------------------------
 C      0   0   0     0.000000000000     0.00000000     0.00000000
 C      1   0   0     2.843233518965     0.00000000     0.00000000
 C      2   1   0     2.540613183113   119.63790913     0.00000000
 C      3   2   1     2.887989956002   123.65931721   181.00820040
 C      4   3   2     2.992362099737   114.26017239   343.94934560
 C      5   4   3     2.933072588623   112.38713649   349.00059481
 C      2   1   3     2.837290134703   120.29109552   178.41772582
 C      5   4   3     2.986722653363   114.71505987   220.35489749
 C      8   5   4     2.946005923091   111.89646562   290.63256086
 C      9   8   5     2.907611928505   116.68032407    50.44359799
 C     10   9   8     2.909417929646   112.32845751   285.62068707
 C     11  10   9     2.949896051178   114.88541910    93.29225038
 C     12  11  10     2.932780023053   108.11095088    81.82512801
 C     12  11  10     2.930254420546   107.57409055   197.85063890
 C      8   5   4     2.937301890954   113.02311313    55.28600707
 O      8   5   4     2.670225303664   107.09451951   173.62580383
 H      1   2   3     2.097838085594   111.31172971   179.01721339
 H      1   2   3     2.098554520240   109.77452783   299.24662724
 H      1   2   3     2.098743197071   109.70500547    59.21509371
 H      3   2   1     2.052815775175   118.41409524     0.40243581
 H      4   3   2     2.084154337575   102.29923006   227.71199772
 H      5   4   3     2.099930426357   107.90327302   102.55282595
 H      6   5   4     2.100461234242   110.40316308   168.27638541
 H      6   5   4     2.097876050023   111.23598715   288.09042939
 H      7   2   1     2.100015056064   110.70115628   338.86916788
 H      7   2   1     2.100414893545   109.41877750    98.02826649
 H      9   8   5     2.102834141837   109.09419651   286.68134501
 H      9   8   5     2.103019636123   108.69298727   172.30596855
 H     10   9   8     2.101841969245   106.91364585   167.92971239
 H     10   9   8     2.093882790243   111.71013046    52.66670982
 H     11  10   9     2.103438933609   108.13144608   215.64418102
 H     11  10   9     2.102256699024   109.39579044   328.25822928
 H     13  12  11     2.096233007107   111.54943244   174.11444775
 H     13  12  11     2.100513657132   110.94763745    55.12770395
 H     13  12  11     2.098144269194   111.11615062   294.95009048
 H     14  12  11     2.097156680573   111.15679435    67.27291767
 H     14  12  11     2.098917432286   111.55246999   188.08130300
 H     14  12  11     2.100921974450   110.52319825   307.40658766
 H     15   8   5     2.092814061390   111.61797637    47.74522760
 H     15   8   5     2.091755577714   112.91836263   284.80866117
 H     15   8   5     2.099462580365   110.19226381   166.68638158
 H     16   8   5     1.878097214942   108.95994360   176.83365682

---------------------
BASIS SET INFORMATION
---------------------
There are 3 groups of distinct atoms

 Group   1 Type C   : 6s6p2d contracted to 2s2p1d pattern {42/42/2}
 Group   2 Type O   : 6s6p2d contracted to 2s2p1d pattern {42/42/2}
 Group   3 Type H   : 8s2p contracted to 2s1p pattern {53/2}

Atom   0C    basis set group =>   1
Atom   1C    basis set group =>   1
Atom   2C    basis set group =>   1
Atom   3C    basis set group =>   1
Atom   4C    basis set group =>   1
Atom   5C    basis set group =>   1
Atom   6C    basis set group =>   1
Atom   7C    basis set group =>   1
Atom   8C    basis set group =>   1
Atom   9C    basis set group =>   1
Atom  10C    basis set group =>   1
Atom  11C    basis set group =>   1
Atom  12C    basis set group =>   1
Atom  13C    basis set group =>   1
Atom  14C    basis set group =>   1
Atom  15O    basis set group =>   2
Atom  16H    basis set group =>   3
Atom  17H    basis set group =>   3
Atom  18H    basis set group =>   3
Atom  19H    basis set group =>   3
Atom  20H    basis set group =>   3
Atom  21H    basis set group =>   3
Atom  22H    basis set group =>   3
Atom  23H    basis set group =>   3
Atom  24H    basis set group =>   3
Atom  25H    basis set group =>   3
Atom  26H    basis set group =>   3
Atom  27H    basis set group =>   3
Atom  28H    basis set group =>   3
Atom  29H    basis set group =>   3
Atom  30H    basis set group =>   3
Atom  31H    basis set group =>   3
Atom  32H    basis set group =>   3
Atom  33H    basis set group =>   3
Atom  34H    basis set group =>   3
Atom  35H    basis set group =>   3
Atom  36H    basis set group =>   3
Atom  37H    basis set group =>   3
Atom  38H    basis set group =>   3
Atom  39H    basis set group =>   3
Atom  40H    basis set group =>   3
Atom  41H    basis set group =>   3
---------------------------------
AUXILIARY/J BASIS SET INFORMATION
---------------------------------
There are 3 groups of distinct atoms

 Group   1 Type C   : 12s5p4d2f1g contracted to 6s4p3d1f1g pattern {711111/2111/211/2/1}
 Group   2 Type O   : 12s5p4d2f1g contracted to 6s4p3d1f1g pattern {711111/2111/211/2/1}
 Group   3 Type H   : 5s2p1d contracted to 3s1p1d pattern {311/2/1}

Atom   0C    basis set group =>   1
Atom   1C    basis set group =>   1
Atom   2C    basis set group =>   1
Atom   3C    basis set group =>   1
Atom   4C    basis set group =>   1
Atom   5C    basis set group =>   1
Atom   6C    basis set group =>   1
Atom   7C    basis set group =>   1
Atom   8C    basis set group =>   1
Atom   9C    basis set group =>   1
Atom  10C    basis set group =>   1
Atom  11C    basis set group =>   1
Atom  12C    basis set group =>   1
Atom  13C    basis set group =>   1
Atom  14C    basis set group =>   1
Atom  15O    basis set group =>   2
Atom  16H    basis set group =>   3
Atom  17H    basis set group =>   3
Atom  18H    basis set group =>   3
Atom  19H    basis set group =>   3
Atom  20H    basis set group =>   3
Atom  21H    basis set group =>   3
Atom  22H    basis set group =>   3
Atom  23H    basis set group =>   3
Atom  24H    basis set group =>   3
Atom  25H    basis set group =>   3
Atom  26H    basis set group =>   3
Atom  27H    basis set group =>   3
Atom  28H    basis set group =>   3
Atom  29H    basis set group =>   3
Atom  30H    basis set group =>   3
Atom  31H    basis set group =>   3
Atom  32H    basis set group =>   3
Atom  33H    basis set group =>   3
Atom  34H    basis set group =>   3
Atom  35H    basis set group =>   3
Atom  36H    basis set group =>   3
Atom  37H    basis set group =>   3
Atom  38H    basis set group =>   3
Atom  39H    basis set group =>   3
Atom  40H    basis set group =>   3
Atom  41H    basis set group =>   3
-------------------------
ECP PARAMETER INFORMATION
-------------------------

 Group 1, Type C  ECP vDZP-ECP (replacing 2 core electrons, lmax=3)
 Group 2, Type O  ECP vDZP-ECP (replacing 2 core electrons, lmax=3)

Atom   0C    ECP group =>   1
Atom   1C    ECP group =>   1
Atom   2C    ECP group =>   1
Atom   3C    ECP group =>   1
Atom   4C    ECP group =>   1
Atom   5C    ECP group =>   1
Atom   6C    ECP group =>   1
Atom   7C    ECP group =>   1
Atom   8C    ECP group =>   1
Atom   9C    ECP group =>   1
Atom  10C    ECP group =>   1
Atom  11C    ECP group =>   1
Atom  12C    ECP group =>   1
Atom  13C    ECP group =>   1
Atom  14C    ECP group =>   1
Atom  15O    ECP group =>   2



           ************************************************************
           *        Program running with 40 parallel MPI-processes    *
           *              working on a common directory               *
           ************************************************************
------------------------------------------------------------------------------
                             ORCA STARTUP CALCULATIONS
                           -- RI-GTO INTEGRALS CHOSEN --
------------------------------------------------------------------------------
------------------------------------------------------------------------------
                   ___                                                        
                  /   \      - P O W E R E D   B Y -                         
                 /     \                                                     
                 |  |  |   _    _      __       _____    __    __             
                 |  |  |  | |  | |    /  \     |  _  \  |  |  /  |          
                  \  \/   | |  | |   /    \    | | | |  |  | /  /          
                 / \  \   | |__| |  /  /\  \   | |_| |  |  |/  /          
                |  |  |   |  __  | /  /__\  \  |    /   |      \           
                |  |  |   | |  | | |   __   |  |    \   |  |\   \          
                \     /   | |  | | |  |  |  |  | |\  \  |  | \   \       
                 \___/    |_|  |_| |__|  |__|  |_| \__\ |__|  \__/        
                                                                              
                      - O R C A' S   B I G   F R I E N D -                    
                                      &                                       
                       - I N T E G R A L  F E E D E R -                       
                                                                              
 v1 FN, 2020, v2 2021, v3 2022-2024                                           
------------------------------------------------------------------------------


----------------------
SHARK INTEGRAL PACKAGE
----------------------

Number of atoms                             ...     42
Number of basis functions                   ...    338
Number of shells                            ...    158
Maximum angular momentum                    ...      2
Integral batch strategy                     ... SHARK/LIBINT Hybrid
RI-J (if used) integral strategy            ... SPLIT-RIJ (Revised 2003 algorithm where possible)
Printlevel                                  ...      1
Contraction scheme used                     ... SEGMENTED contraction
Prescreening option                         ... SCHWARTZ
   Thresh                                   ... 2.500e-11
   Tcut                                     ... 2.500e-12
   Tpresel                                  ... 2.500e-12 
Coulomb Range Separation                    ... NOT USED
Exchange Range Separation                   ... Long Range
   Mu parameter                             ... 3.000e-01
   Scaling (regular/separated)              ... 1.670e-01 8.330e-01
Multipole approximations                    ... NOT USED
Finite Nucleus Model                        ... NOT USED
CABS basis                                  ... NOT available
Auxiliary Coulomb fitting basis             ... AVAILABLE
   # of basis functions in Aux-J            ...   1070
   # of shells in Aux-J                     ...    370
   Maximum angular momentum in Aux-J        ...      4
Auxiliary J/K fitting basis                 ... NOT available
Auxiliary Correlation fitting basis         ... NOT available
Auxiliary 'external' fitting basis          ... NOT available

Checking pre-screening integrals            ... done (  0.0 sec) Dimension = 158
Check shell pair data                       ... done (  0.0 sec)
Shell pair information
Shell pair cut-off parameter TPreSel        ...   2.5e-12
Total number of shell pairs                 ...     12561
Shell pairs after pre-screening             ...     12492
Total number of primitive shell pairs       ...    117974
Primitive shell pairs kept                  ...     90554
          la=0 lb=0:   3563 shell pairs
          la=1 lb=0:   4844 shell pairs
          la=1 lb=1:   1679 shell pairs
          la=2 lb=0:   1343 shell pairs
          la=2 lb=1:    927 shell pairs
          la=2 lb=2:    136 shell pairs

Calculating one electron integrals          ... done (  0.0 sec)
Calculating ECP integrals                   ... done (  0.2 sec)
Calculating RI/J V-Matrix + Cholesky decomp.... done (  0.1 sec)
Calculating Nuclear repulsion               ... done (  0.0 sec) ENN=    679.538915521928 Eh

Diagonalization of the overlap matrix:
Smallest eigenvalue                        ... 9.421e-04
Time for diagonalization                   ...    0.016 sec
Threshold for overlap eigenvalues          ... 1.000e-07
Number of eigenvalues below threshold      ... 0
Time for construction of square roots      ...    0.010 sec
Total time needed                          ...    0.030 sec

-------------------
DFT GRID GENERATION
-------------------

General Integration Accuracy     IntAcc      ... 4.388
Radial Grid Type                 RadialGrid  ... OptM3 with GC (2021)
Angular Grid (max. ang.)         AngularGrid ... 4 (Lebedev-302)
Angular grid pruning method      GridPruning ... 4 (adaptive)
Weight generation scheme         WeightScheme... mBecke (2022)
Basis function cutoff            BFCut       ... 1.0000e-11
Integration weight cutoff        WCut        ... 1.0000e-14
Partially contracted basis set               ... off
Rotationally invariant grid construction     ... off
Angular grids for H and He will be reduced by one unit

Total number of grid points                  ...   176539
Total number of batches                      ...     2780
Average number of points per batch           ...       63
Average number of grid points per atom       ...     4203

--------------------
COSX GRID GENERATION
--------------------

GRIDX 1
-------
General Integration Accuracy     IntAcc      ... 3.816
Radial Grid Type                 RadialGrid  ... OptM3 with GC (2021)
Angular Grid (max. ang.)         AngularGrid ... 1 (Lebedev-50)
Angular grid pruning method      GridPruning ... 4 (adaptive)
Weight generation scheme         WeightScheme... mBecke (2022)
Basis function cutoff            BFCut       ... 1.0000e-11
Integration weight cutoff        WCut        ... 1.0000e-14
Partially contracted basis set               ... on
Rotationally invariant grid construction     ... off
Angular grids for H and He will be reduced by one unit

Total number of grid points                  ...    22523
Total number of batches                      ...      201
Average number of points per batch           ...      112
Average number of grid points per atom       ...      536
UseSFitting                                  ... on

GRIDX 2
-------
General Integration Accuracy     IntAcc      ... 4.020
Radial Grid Type                 RadialGrid  ... OptM3 with GC (2021)
Angular Grid (max. ang.)         AngularGrid ... 2 (Lebedev-110)
Angular grid pruning method      GridPruning ... 4 (adaptive)
Weight generation scheme         WeightScheme... mBecke (2022)
Basis function cutoff            BFCut       ... 1.0000e-11
Integration weight cutoff        WCut        ... 1.0000e-14
Partially contracted basis set               ... on
Rotationally invariant grid construction     ... off
Angular grids for H and He will be reduced by one unit

Total number of grid points                  ...    46449
Total number of batches                      ...      384
Average number of points per batch           ...      120
Average number of grid points per atom       ...     1106
UseSFitting                                  ... on

GRIDX 3
-------
General Integration Accuracy     IntAcc      ... 4.338
Radial Grid Type                 RadialGrid  ... OptM3 with GC (2021)
Angular Grid (max. ang.)         AngularGrid ... 3 (Lebedev-194)
Angular grid pruning method      GridPruning ... 4 (adaptive)
Weight generation scheme         WeightScheme... mBecke (2022)
Basis function cutoff            BFCut       ... 1.0000e-11
Integration weight cutoff        WCut        ... 1.0000e-14
Partially contracted basis set               ... on
Rotationally invariant grid construction     ... off
Angular grids for H and He will be reduced by one unit

Total number of grid points                  ...   100564
Total number of batches                      ...      806
Average number of points per batch           ...      124
Average number of grid points per atom       ...     2394
UseSFitting                                  ... on
Initializing property integral containers    ... done (  0.0 sec)

SHARK setup successfully completed in   5.8 seconds

Maximum memory used throughout the entire STARTUP-calculation: 59.2 MB


           ************************************************************
           *        Program running with 40 parallel MPI-processes    *
           *              working on a common directory               *
           ************************************************************
-------------------------------------------------------------------------------
                                 ORCA GUESS
                   Start orbitals & Density for SCF / CASSCF
-------------------------------------------------------------------------------

------------
SCF SETTINGS
------------
Hamiltonian:
 Density Functional     Method          .... DFT(GTOs)
 Exchange Functional    Exchange        .... WB97X-V
 Correlation Functional Correlation     .... WB97X-V
 Gradients option       PostSCFGGA      .... off
 Hybrid DFT is turned on
   Fraction HF Exchange ScalHFX         ....  0.167000
   Scaling of DF-GGA-X  ScalDFX         ....  0.000000
   Scaling of DF-GGA-C  ScalDFC         ....  1.000000
   Scaling of DF-LDA-C  ScalLDAC        ....  1.000000
   Perturbative correction              ....  0.000000
 Long-range corrected/Screened/Range-Separated Hybrid DFT is turned on
   Amount of maximum screened exact exchange              ....  0.833000
   Range separation parameter mu (erf(mu*r12)/r12)        ....  0.300000
   NL short-range parameter             ....  6.000000
   NL long-range parameter              ....  0.010000
 RI-approximation to the Coulomb term is turned on
   Number of AuxJ basis functions       .... 1070
   RIJ-COSX (HFX calculated with COS-X)).... on


General Settings:
 Integral files         IntName         .... ./output/himachalol/himachalol
 Hartree-Fock type      HFTyp           .... RHF
 Total Charge           Charge          ....    0
 Multiplicity           Mult            ....    1
 Number of Electrons    NEL             ....   92
 Basis Dimension        Dim             ....  338
 Nuclear Repulsion      ENuc            ....    679.5389155219 Eh

Convergence Acceleration:
 AO-DIIS                CNVDIIS         .... on
   Start iteration      DIISMaxIt       ....    12
   Startup error        DIISStart       ....  0.200000
   # of expansion vecs  DIISMaxEq       ....     5
   Bias factor          DIISBfac        ....   1.050
   Max. coefficient     DIISMaxC        ....  10.000
 MO-DIIS                CNVKDIIS        .... off
 Trust-Rad. Augm. Hess. CNVTRAH         .... auto
   Auto Start mean grad. ratio tolernc. ....  1.125000
   Auto Start start iteration           ....    50
   Auto Start num. interpolation iter.  ....    10
   Max. Number of Micro iterations      ....    24
   Max. Number of Macro iterations      .... Maxiter - #DIIS iter
   Number of Davidson start vectors     ....     2
   Converg. threshold    (grad. norm)   ....   1.000e-05
   Grad. Scal. Fac. for Micro threshold ....   0.100
   Minimum threshold for Micro iter.    ....   1.000e-02
   NR start threshold (gradient norm)   ....   1.000e-04
   Initial trust radius                 ....   0.400
   Minimum AH scaling param. (alpha)    ....   1.000
   Maximum AH scaling param. (alpha)    .... 1000.000
   Quad. conv. algorithm                .... NR
   White noise on init. David. guess    .... on
   Maximum white noise                  ....   0.010
   Pseudo random numbers                .... off
   Inactive MOs                         .... canonical
   Orbital update algorithm             .... Taylor
   Preconditioner                       .... Diag
   Full preconditioner red. dimension   ....   250
 SOSCF                  CNVSOSCF        .... on
   Start iteration      SOSCFMaxIt      ....   150
   Startup grad/error   SOSCFStart      ....  0.003300
   Hessian update       SOSCFHessUp     .... L-BFGS
 Level Shifting         CNVShift        .... on
   Level shift para.    LevelShift      ....    0.2500
   Turn off err/grad.   ShiftErr        ....    0.0010
 Zerner damping         CNVZerner       .... off
 Static damping         CNVDamp         .... on
   Fraction old density DampFac         ....    0.7000
   Max. Damping (<1)    DampMax         ....    0.9800
   Min. Damping (>=0)   DampMin         ....    0.0000
   Turn off err/grad.   DampErr         ....    0.1000

SCF Procedure:
 Maximum # iterations   MaxIter         ....   125
 SCF integral mode      SCFMode         .... Direct
   Integral package                     .... SHARK and LIBINT hybrid scheme
 Reset frequency        DirectResetFreq ....    20
 Integral Threshold     Thresh          ....  2.500e-11 Eh
 Primitive CutOff       TCut            ....  2.500e-12 Eh

Convergence Tolerance:
 Convergence Check Mode ConvCheckMode   .... Total+1el-Energy
 Convergence forced     ConvForced      .... 0
 Energy Change          TolE            ....  1.000e-08 Eh
 1-El. energy change                    ....  1.000e-05 Eh
 Orbital Gradient       TolG            ....  1.000e-05
 Orbital Rotation angle TolX            ....  1.000e-05
 DIIS Error             TolErr          ....  5.000e-07

------------------------------
INITIAL GUESS: MODEL POTENTIAL
------------------------------
Loading Hartree-Fock densities                     ... done
Atomic calculation to generate a density for atom 0 (C  with ECP)
  Multiplicity assumed   :    1
  Atomic configuration   : 1s2 2s2 2p2 
  Number of open shells  : 1
  Command: /home/aspe232/Project/Software/ORCA/6_0_1/build/orca ./output/himachalol/himachalol_atom6.inp "" > ./output/himachalol/himachalol_atom6.out
Returned from the atomic calculation with res=0
Atomic calculation to generate a density for atom 15 (O  with ECP)
  Multiplicity assumed   :    3
  Atomic configuration   : 1s2 2s2 2p4 
  Number of open shells  : 1
  Command: /home/aspe232/Project/Software/ORCA/6_0_1/build/orca ./output/himachalol/himachalol_atom8.inp "" > ./output/himachalol/himachalol_atom8.out
Returned from the atomic calculation with res=0
Calculating cut-offs                               ... done
Initializing the effective Hamiltonian             ... done
Setting up the integral package (SHARK)            ... done
Starting the Coulomb interaction                   ... done (   0.1 sec)
Making the grid                                    ... done (   1.1 sec)
Mapping shells                                     ... done
Starting the XC term evaluation                    ... done (   0.1 sec)
  promolecular density results
     # of electrons  =    123.966125982
     EX              =    -61.360530950
     EC              =     -4.999712338
     EX+EC           =    -66.360243289
Transforming the Hamiltonian                       ... done (   0.0 sec)
Diagonalizing the Hamiltonian                      ... done (   0.0 sec)
Back transforming the eigenvectors                 ... done (   0.0 sec)
Now organizing SCF variables                       ... done
                      ------------------
                      INITIAL GUESS DONE (   2.6 sec)
                      ------------------
             **** ENERGY FILE WAS UPDATED (./output/himachalol/himachalol.en.tmp) ****
Finished Guess after   3.6 sec
Maximum memory used throughout the entire GUESS-calculation: 39.4 MB


           ************************************************************
           *        Program running with 40 parallel MPI-processes    *
           *              working on a common directory               *
           ************************************************************

-------------------------------------------------------------------------------------------
                                      ORCA LEAN-SCF
                              memory conserving SCF solver
-------------------------------------------------------------------------------------------

----------------------------------------D-I-I-S--------------------------------------------
Iteration    Energy (Eh)           Delta-E    RMSDP     MaxDP     DIISErr   Damp  Time(sec)
-------------------------------------------------------------------------------------------
               ***  Starting incremental Fock matrix formation  ***
    1    -116.4305090633299642     0.00e+00  3.31e-03  8.02e-02  2.28e-01  0.700   9.6
    2    -116.7256310718594250    -2.95e-01  2.40e-03  5.84e-02  1.30e-01  0.700   7.0
                               ***Turning on AO-DIIS***
    3    -116.8763792220534015    -1.51e-01  1.24e-03  3.08e-02  6.36e-02  0.700   6.8
    4    -116.9649600006068795    -8.86e-02  2.70e-03  6.28e-02  4.30e-02  0.000   7.0
    5    -117.1514817084571405    -1.87e-01  2.06e-04  4.46e-03  5.22e-03  0.000   7.1
                              *** Initializing SOSCF ***
---------------------------------------S-O-S-C-F--------------------------------------
Iteration    Energy (Eh)           Delta-E    RMSDP     MaxDP     MaxGrad    Time(sec)
--------------------------------------------------------------------------------------
    6    -117.1519777080754920    -4.96e-04  9.84e-05  2.78e-03  2.28e-03     6.2
               *** Restarting incremental Fock matrix formation ***
    7    -117.1520510901486887    -7.34e-05  5.58e-05  1.49e-03  2.30e-04     9.4
    8    -117.1520636171048864    -1.25e-05  3.01e-05  8.39e-04  1.63e-04     8.3
    9    -117.1520667473045023    -3.13e-06  8.67e-06  2.33e-04  4.55e-05     8.2
   10    -117.1520669896684694    -2.42e-07  2.37e-06  7.48e-05  1.17e-05     7.2
   11    -117.1520669894761113     1.92e-10  9.74e-07  1.80e-05  8.94e-06     7.0
                 **** Energy Check signals convergence ****

               *****************************************************
               *                     SUCCESS                       *
               *           SCF CONVERGED AFTER  11 CYCLES          *
               *****************************************************

Recomputing exchange energy using gridx3       ... done (   11.816 sec)
Old exchange energy                            :    -17.589482225 Eh
New exchange energy                            :    -17.589533281 Eh
Exchange energy change after final integration :     -0.000051056 Eh
Total energy after final integration           :   -117.152118046 Eh
             **** ENERGY FILE WAS UPDATED (./output/himachalol/himachalol.en.tmp) ****

----------------
TOTAL SCF ENERGY
----------------

Total Energy       :       -117.15211804560188 Eh           -3187.87120 eV

Components:
Nuclear Repulsion  :        679.53891552192817 Eh           18491.19397 eV
Electronic Energy  :       -796.69098251140429 Eh          -21679.06378 eV
One Electron Energy:      -1525.72018080223938 Eh          -41516.95680 eV
Two Electron Energy:        729.02919829083510 Eh           19837.89302 eV

Virial components:
Potential Energy   :       -208.67522543774709 Eh           -5678.34157 eV
Kinetic Energy     :         91.52310739214519 Eh            2490.47037 eV
Virial Ratio       :          2.28002775893136

DFT components:
N(Alpha)           :       46.000229543720 electrons
N(Beta)            :       46.000229543720 electrons
N(Total)           :       92.000459087441 electrons
E(X)               :      -18.334337661307 Eh       
E(C)               :       -3.466808682558 Eh       
E(XC)              :      -21.801146343865 Eh       

---------------
SCF CONVERGENCE
---------------

  Last Energy change         ...   -1.9236e-10  Tolerance :   1.0000e-08
  Last MAX-Density change    ...    1.7956e-05  Tolerance :   1.0000e-07
  Last RMS-Density change    ...    9.7387e-07  Tolerance :   5.0000e-09
  Last DIIS Error            ...    2.2766e-03  Tolerance :   5.0000e-07
  Last Orbital Gradient      ...    8.9375e-06  Tolerance :   1.0000e-05
  Last Orbital Rotation      ...    1.7821e-05  Tolerance :   1.0000e-05


----------------
ORBITAL ENERGIES
----------------

  NO   OCC          E(Eh)            E(eV) 
   0   2.0000      -1.143621       -31.1195 
   1   2.0000      -0.986442       -26.8425 
   2   2.0000      -0.951162       -25.8824 
   3   2.0000      -0.921434       -25.0735 
   4   2.0000      -0.896589       -24.3974 
   5   2.0000      -0.869479       -23.6597 
   6   2.0000      -0.845887       -23.0177 
   7   2.0000      -0.812255       -22.1026 
   8   2.0000      -0.807955       -21.9856 
   9   2.0000      -0.805575       -21.9208 
  10   2.0000      -0.751026       -20.4365 
  11   2.0000      -0.743614       -20.2348 
  12   2.0000      -0.708685       -19.2843 
  13   2.0000      -0.678538       -18.4640 
  14   2.0000      -0.649634       -17.6774 
  15   2.0000      -0.623841       -16.9756 
  16   2.0000      -0.607185       -16.5223 
  17   2.0000      -0.593738       -16.1564 
  18   2.0000      -0.572818       -15.5872 
  19   2.0000      -0.566052       -15.4031 
  20   2.0000      -0.548798       -14.9335 
  21   2.0000      -0.546822       -14.8798 
  22   2.0000      -0.542670       -14.7668 
  23   2.0000      -0.532556       -14.4916 
  24   2.0000      -0.524693       -14.2776 
  25   2.0000      -0.516114       -14.0442 
  26   2.0000      -0.514728       -14.0065 
  27   2.0000      -0.504255       -13.7215 
  28   2.0000      -0.497358       -13.5338 
  29   2.0000      -0.490362       -13.3434 
  30   2.0000      -0.480668       -13.0796 
  31   2.0000      -0.473584       -12.8869 
  32   2.0000      -0.467358       -12.7175 
  33   2.0000      -0.461223       -12.5505 
  34   2.0000      -0.455288       -12.3890 
  35   2.0000      -0.451040       -12.2734 
  36   2.0000      -0.448003       -12.1908 
  37   2.0000      -0.441986       -12.0270 
  38   2.0000      -0.431033       -11.7290 
  39   2.0000      -0.417617       -11.3639 
  40   2.0000      -0.407371       -11.0851 
  41   2.0000      -0.402672       -10.9573 
  42   2.0000      -0.390299       -10.6206 
  43   2.0000      -0.388323       -10.5668 
  44   2.0000      -0.368861       -10.0372 
  45   2.0000      -0.319094        -8.6830 
  46   0.0000       0.080340         2.1862 
  47   0.0000       0.085826         2.3355 
  48   0.0000       0.091754         2.4968 
  49   0.0000       0.094362         2.5677 
  50   0.0000       0.099666         2.7121 
  51   0.0000       0.113297         3.0830 
  52   0.0000       0.115452         3.1416 
  53   0.0000       0.121160         3.2969 
  54   0.0000       0.125949         3.4272 
  55   0.0000       0.130403         3.5484 
  56   0.0000       0.145140         3.9495 
*Only the first 10 virtual orbitals were printed.

                    ********************************
                    * MULLIKEN POPULATION ANALYSIS *
                    ********************************

-----------------------
MULLIKEN ATOMIC CHARGES
-----------------------
   0 C :   -0.092025
   1 C :   -0.046526
   2 C :   -0.005237
   3 C :   -0.070707
   4 C :   -0.042590
   5 C :   -0.016919
   6 C :   -0.055928
   7 C :   -0.039089
   8 C :   -0.033841
   9 C :   -0.054039
  10 C :   -0.025934
  11 C :   -0.177305
  12 C :   -0.032599
  13 C :   -0.018691
  14 C :   -0.022703
  15 O :   -0.309228
  16 H :    0.034197
  17 H :    0.054247
  18 H :    0.046573
  19 H :    0.005273
  20 H :    0.039892
  21 H :    0.037215
  22 H :    0.057107
  23 H :    0.033706
  24 H :    0.039622
  25 H :    0.043915
  26 H :    0.045588
  27 H :    0.026236
  28 H :    0.042875
  29 H :    0.016094
  30 H :    0.035582
  31 H :    0.028621
  32 H :    0.029843
  33 H :    0.035043
  34 H :    0.032792
  35 H :    0.021974
  36 H :    0.035950
  37 H :    0.033669
  38 H :    0.040420
  39 H :    0.028355
  40 H :    0.026967
  41 H :    0.171601
Sum of atomic charges:   -0.0000000

--------------------------------
MULLIKEN REDUCED ORBITAL CHARGES
--------------------------------
  0 C s       :     0.957390  s :     0.957390
      pz      :     1.044597  p :     3.060851
      px      :     0.972511
      py      :     1.043743
      dz2     :     0.015739  d :     0.073784
      dxz     :     0.013986
      dyz     :     0.009490
      dx2y2   :     0.013620
      dxy     :     0.020948

  1 C s       :     1.078979  s :     1.078979
      pz      :     0.948854  p :     2.847107
      px      :     0.921122
      py      :     0.977132
      dz2     :     0.024330  d :     0.120439
      dxz     :     0.026888
      dyz     :     0.015120
      dx2y2   :     0.029245
      dxy     :     0.024856

  2 C s       :     1.003456  s :     1.003456
      pz      :     0.978454  p :     2.910325
      px      :     0.932110
      py      :     0.999761
      dz2     :     0.013574  d :     0.091456
      dxz     :     0.023431
      dyz     :     0.012328
      dx2y2   :     0.023140
      dxy     :     0.018982

  3 C s       :     1.014404  s :     1.014404
      pz      :     1.029605  p :     2.940175
      px      :     0.993174
      py      :     0.917396
      dz2     :     0.022666  d :     0.116128
      dxz     :     0.024008
      dyz     :     0.019142
      dx2y2   :     0.028722
      dxy     :     0.021591

  4 C s       :     1.038766  s :     1.038766
      pz      :     1.021365  p :     2.893547
      px      :     0.916790
      py      :     0.955392
      dz2     :     0.025197  d :     0.110277
      dxz     :     0.013553
      dyz     :     0.022567
      dx2y2   :     0.024974
      dxy     :     0.023987

  5 C s       :     0.995670  s :     0.995670
      pz      :     1.043390  p :     2.922130
      px      :     0.908978
      py      :     0.969762
      dz2     :     0.014593  d :     0.099119
      dxz     :     0.014905
      dyz     :     0.027207
      dx2y2   :     0.019340
      dxy     :     0.023074

  6 C s       :     0.985789  s :     0.985789
      pz      :     0.995708  p :     2.968635
      px      :     0.959479
      py      :     1.013448
      dz2     :     0.023154  d :     0.101504
      dxz     :     0.015788
      dyz     :     0.021207
      dx2y2   :     0.016243
      dxy     :     0.025113

  7 C s       :     1.108847  s :     1.108847
      pz      :     0.901226  p :     2.742883
      px      :     1.008818
      py      :     0.832839
      dz2     :     0.047968  d :     0.187359
      dxz     :     0.027204
      dyz     :     0.037332
      dx2y2   :     0.036524
      dxy     :     0.038331

  8 C s       :     0.994194  s :     0.994194
      pz      :     1.041124  p :     2.944032
      px      :     0.982112
      py      :     0.920796
      dz2     :     0.025244  d :     0.095615
      dxz     :     0.010944
      dyz     :     0.014694
      dx2y2   :     0.022195
      dxy     :     0.022538

  9 C s       :     0.999340  s :     0.999340
      pz      :     1.010976  p :     2.957271
      px      :     1.002022
      py      :     0.944272
      dz2     :     0.028688  d :     0.097428
      dxz     :     0.011267
      dyz     :     0.012987
      dx2y2   :     0.018455
      dxy     :     0.026031

 10 C s       :     0.991536  s :     0.991536
      pz      :     1.003555  p :     2.937631
      px      :     0.904766
      py      :     1.029310
      dz2     :     0.025775  d :     0.096767
      dxz     :     0.018250
      dyz     :     0.009847
      dx2y2   :     0.027108
      dxy     :     0.015787

 11 C s       :     1.091941  s :     1.091941
      pz      :     0.997229  p :     2.944610
      px      :     0.983988
      py      :     0.963393
      dz2     :     0.024603  d :     0.140754
      dxz     :     0.030285
      dyz     :     0.031543
      dx2y2   :     0.032532
      dxy     :     0.021791

 12 C s       :     0.950879  s :     0.950879
      pz      :     0.988082  p :     3.007961
      px      :     1.027397
      py      :     0.992482
      dz2     :     0.013063  d :     0.073759
      dxz     :     0.020371
      dyz     :     0.013465
      dx2y2   :     0.022334
      dxy     :     0.004525

 13 C s       :     0.947941  s :     0.947941
      pz      :     0.979842  p :     2.997300
      px      :     0.999902
      py      :     1.017556
      dz2     :     0.011847  d :     0.073451
      dxz     :     0.012803
      dyz     :     0.021985
      dx2y2   :     0.022184
      dxy     :     0.004633

 14 C s       :     0.943986  s :     0.943986
      pz      :     0.955211  p :     3.009210
      px      :     1.030374
      py      :     1.023625
      dz2     :     0.015758  d :     0.069507
      dxz     :     0.009528
      dyz     :     0.019726
      dx2y2   :     0.007877
      dxy     :     0.016618

 15 O s       :     1.650415  s :     1.650415
      pz      :     1.705267  p :     4.627839
      px      :     1.392054
      py      :     1.530519
      dz2     :     0.005107  d :     0.030974
      dxz     :     0.004155
      dyz     :     0.007866
      dx2y2   :     0.010319
      dxy     :     0.003526

 16 H s       :     0.921695  s :     0.921695
      pz      :     0.014402  p :     0.044108
      px      :     0.013406
      py      :     0.016299

 17 H s       :     0.901474  s :     0.901474
      pz      :     0.022483  p :     0.044278
      px      :     0.010360
      py      :     0.011435

 18 H s       :     0.909198  s :     0.909198
      pz      :     0.010434  p :     0.044229
      px      :     0.013303
      py      :     0.020492

 19 H s       :     0.945331  s :     0.945331
      pz      :     0.020027  p :     0.049396
      px      :     0.012466
      py      :     0.016903

 20 H s       :     0.916729  s :     0.916729
      pz      :     0.020259  p :     0.043379
      px      :     0.013601
      py      :     0.009519

 21 H s       :     0.922988  s :     0.922988
      pz      :     0.021025  p :     0.039798
      px      :     0.008127
      py      :     0.010646

 22 H s       :     0.900322  s :     0.900322
      pz      :     0.016107  p :     0.042571
      px      :     0.012128
      py      :     0.014336

[...]
 95:   1531.53   0.002216   11.20  0.000452  (-0.008180 -0.019584  0.001079)
 96:   1535.76   0.003512   17.75  0.000714  ( 0.018697  0.011595 -0.015155)
 97:   1537.01   0.001097    5.54  0.000223  (-0.009378  0.009941  0.005995)
 98:   1545.19   0.003132   15.83  0.000633  ( 0.000375  0.012866  0.021608)
 99:   1812.39   0.000419    2.12  0.000072  (-0.005928  0.005742 -0.002014)
100:   3073.59   0.007393   37.36  0.000751  (-0.024564 -0.010635  0.005844)
101:   3079.13   0.006375   32.22  0.000646  (-0.011439  0.008171 -0.021177)
102:   3089.51   0.002049   10.35  0.000207  ( 0.002142 -0.005367 -0.013174)
103:   3090.40   0.010074   50.91  0.001017  (-0.030688  0.008538 -0.001621)
104:   3094.24   0.002920   14.76  0.000295  ( 0.008025 -0.002390  0.014981)
105:   3097.03   0.005444   27.51  0.000549  (-0.002314 -0.009054  0.021476)
106:   3100.05   0.007565   38.23  0.000762  (-0.013634 -0.015202 -0.018562)
107:   3105.32   0.006080   30.73  0.000611  ( 0.012170 -0.021124 -0.004082)
108:   3109.27   0.001620    8.19  0.000163  ( 0.012103 -0.000900  0.003909)
109:   3117.79   0.002651   13.40  0.000265  (-0.003154 -0.014455 -0.006818)
110:   3123.73   0.007178   36.28  0.000717  ( 0.019425  0.003278  0.018140)
111:   3133.49   0.003222   16.28  0.000321  (-0.011724 -0.012041 -0.006200)
112:   3137.43   0.009707   49.05  0.000965  (-0.010274  0.028683  0.006096)
113:   3140.69   0.006026   30.45  0.000599  (-0.011247  0.013204 -0.017261)
114:   3151.22   0.007359   37.19  0.000729  (-0.010114  0.007079  0.024008)
115:   3166.03   0.002310   11.67  0.000228  ( 0.001042  0.010213  0.011057)
116:   3178.61   0.002156   10.89  0.000212  ( 0.006650 -0.002276  0.012737)
117:   3180.38   0.007701   38.92  0.000756  (-0.001332 -0.026246 -0.008060)
118:   3193.74   0.002959   14.96  0.000289  ( 0.015664  0.004358 -0.004982)
119:   3197.56   0.000748    3.78  0.000073  (-0.005083  0.004943 -0.004770)
120:   3199.18   0.001625    8.21  0.000159  ( 0.012471  0.000536 -0.001644)
121:   3199.88   0.003091   15.62  0.000301  ( 0.010711 -0.012281  0.005989)
122:   3200.05   0.007221   36.49  0.000704  ( 0.013924  0.009525 -0.020482)
123:   3224.93   0.003574   18.06  0.000346  ( 0.015608 -0.000990 -0.010065)
124:   3225.28   0.004294   21.70  0.000415  (-0.004616 -0.016860  0.010484)
125:   3951.84   0.007103   35.90  0.000561  (-0.020511 -0.011714  0.001725)

* The epsilon (eps) is given for a Dirac delta lineshape.
** The dipole moment derivative (T) already includes vibrational overlap.

The first frequency considered to be a vibration is 6
The total number of vibrations considered is 120


--------------------------
THERMOCHEMISTRY AT 298.15K
--------------------------

Temperature         ...   298.15 K
Pressure            ...     1.00 atm
Total Mass          ...   222.37 AMU
Quasi RRHO          ...     True
Cut-Off Frequency   ...     1.00 cm^-1

Throughout the following assumptions are being made:
  (1) The electronic state is orbitally nondegenerate
  (2) There are no thermally accessible electronically excited states
  (3) Hindered rotations indicated by low frequency modes are not
      treated as such but are treated as vibrations and this may
      cause some error
  (4) All equations used are the standard statistical mechanics
      equations for an ideal gas
  (5) All vibrations are strictly harmonic

freq.      49.96  E(vib)   ...       0.52 
freq.      83.92  E(vib)   ...       0.48 
freq.     114.97  E(vib)   ...       0.44 
freq.     146.29  E(vib)   ...       0.41 
freq.     174.07  E(vib)   ...       0.38 
freq.     197.52  E(vib)   ...       0.35 
freq.     205.85  E(vib)   ...       0.35 
freq.     224.17  E(vib)   ...       0.33 
freq.     247.28  E(vib)   ...       0.31 
freq.     256.92  E(vib)   ...       0.30 
freq.     264.24  E(vib)   ...       0.29 
freq.     266.48  E(vib)   ...       0.29 
freq.     275.77  E(vib)   ...       0.28 
freq.     303.85  E(vib)   ...       0.26 
freq.     319.53  E(vib)   ...       0.25 
freq.     334.81  E(vib)   ...       0.24 
freq.     337.76  E(vib)   ...       0.24 
freq.     361.41  E(vib)   ...       0.22 
freq.     388.28  E(vib)   ...       0.20 
freq.     421.02  E(vib)   ...       0.18 
freq.     428.10  E(vib)   ...       0.18 
freq.     452.26  E(vib)   ...       0.16 
freq.     467.02  E(vib)   ...       0.16 
freq.     498.42  E(vib)   ...       0.14 
freq.     502.91  E(vib)   ...       0.14 
freq.     527.14  E(vib)   ...       0.13 
freq.     543.89  E(vib)   ...       0.12 
freq.     570.00  E(vib)   ...       0.11 
freq.     591.32  E(vib)   ...       0.10 
freq.     693.46  E(vib)   ...       0.07 
freq.     768.35  E(vib)   ...       0.06 
freq.     803.21  E(vib)   ...       0.05 
freq.     812.36  E(vib)   ...       0.05 
freq.     856.91  E(vib)   ...       0.04 
freq.     883.41  E(vib)   ...       0.04 
freq.     891.49  E(vib)   ...       0.03 
freq.     916.56  E(vib)   ...       0.03 
freq.     943.96  E(vib)   ...       0.03 
freq.     957.08  E(vib)   ...       0.03 
freq.     968.30  E(vib)   ...       0.03 
freq.     976.86  E(vib)   ...       0.03 
freq.     984.44  E(vib)   ...       0.02 
freq.    1002.64  E(vib)   ...       0.02 
freq.    1026.69  E(vib)   ...       0.02 
freq.    1032.78  E(vib)   ...       0.02 
freq.    1034.02  E(vib)   ...       0.02 
freq.    1053.60  E(vib)   ...       0.02 
freq.    1063.64  E(vib)   ...       0.02 
freq.    1075.97  E(vib)   ...       0.02 
freq.    1093.17  E(vib)   ...       0.02 
freq.    1127.22  E(vib)   ...       0.01 
freq.    1134.25  E(vib)   ...       0.01 
freq.    1139.11  E(vib)   ...       0.01 
freq.    1153.28  E(vib)   ...       0.01 
freq.    1191.35  E(vib)   ...       0.01 
freq.    1203.90  E(vib)   ...       0.01 
freq.    1214.19  E(vib)   ...       0.01 
freq.    1220.89  E(vib)   ...       0.01 
freq.    1231.09  E(vib)   ...       0.01 
freq.    1250.11  E(vib)   ...       0.01 
freq.    1259.45  E(vib)   ...       0.01 
freq.    1288.89  E(vib)   ...       0.01 
freq.    1298.63  E(vib)   ...       0.01 
freq.    1313.39  E(vib)   ...       0.01 
freq.    1328.88  E(vib)   ...       0.01 
freq.    1357.93  E(vib)   ...       0.01 
freq.    1364.19  E(vib)   ...       0.01 
freq.    1373.38  E(vib)   ...       0.01 
freq.    1377.62  E(vib)   ...       0.01 
freq.    1407.55  E(vib)   ...       0.00 
freq.    1408.54  E(vib)   ...       0.00 
freq.    1426.97  E(vib)   ...       0.00 
freq.    1432.35  E(vib)   ...       0.00 
freq.    1435.66  E(vib)   ...       0.00 
freq.    1439.31  E(vib)   ...       0.00 
freq.    1443.54  E(vib)   ...       0.00 
freq.    1451.77  E(vib)   ...       0.00 
freq.    1453.20  E(vib)   ...       0.00 
freq.    1455.98  E(vib)   ...       0.00 
freq.    1461.08  E(vib)   ...       0.00 
freq.    1506.33  E(vib)   ...       0.00 
freq.    1509.52  E(vib)   ...       0.00 
freq.    1511.83  E(vib)   ...       0.00 
freq.    1514.99  E(vib)   ...       0.00 
freq.    1518.52  E(vib)   ...       0.00 
freq.    1521.19  E(vib)   ...       0.00 
freq.    1524.80  E(vib)   ...       0.00 
freq.    1525.29  E(vib)   ...       0.00 
freq.    1530.32  E(vib)   ...       0.00 
freq.    1531.53  E(vib)   ...       0.00 
freq.    1535.76  E(vib)   ...       0.00 
freq.    1537.01  E(vib)   ...       0.00 
freq.    1545.19  E(vib)   ...       0.00 
freq.    1812.39  E(vib)   ...       0.00 
freq.    3073.59  E(vib)   ...       0.00 
freq.    3079.13  E(vib)   ...       0.00 
freq.    3089.51  E(vib)   ...       0.00 
freq.    3090.40  E(vib)   ...       0.00 
freq.    3094.24  E(vib)   ...       0.00 
freq.    3097.03  E(vib)   ...       0.00 
freq.    3100.05  E(vib)   ...       0.00 
freq.    3105.32  E(vib)   ...       0.00 
freq.    3109.27  E(vib)   ...       0.00 
freq.    3117.79  E(vib)   ...       0.00 
freq.    3123.73  E(vib)   ...       0.00 
freq.    3133.49  E(vib)   ...       0.00 
freq.    3137.43  E(vib)   ...       0.00 
freq.    3140.69  E(vib)   ...       0.00 
freq.    3151.22  E(vib)   ...       0.00 
freq.    3166.03  E(vib)   ...       0.00 
freq.    3178.61  E(vib)   ...       0.00 
freq.    3180.38  E(vib)   ...       0.00 
freq.    3193.74  E(vib)   ...       0.00 
freq.    3197.56  E(vib)   ...       0.00 
freq.    3199.18  E(vib)   ...       0.00 
freq.    3199.88  E(vib)   ...       0.00 
freq.    3200.05  E(vib)   ...       0.00 
freq.    3224.93  E(vib)   ...       0.00 
freq.    3225.28  E(vib)   ...       0.00 
freq.    3951.84  E(vib)   ...       0.00 

------------
INNER ENERGY
------------

The inner energy is: U= E(el) + E(ZPE) + E(vib) + E(rot) + E(trans)
    E(el)   - is the total energy from the electronic structure calculation
              = E(kin-el) + E(nuc-el) + E(el-el) + E(nuc-nuc)
    E(ZPE)  - the the zero temperature vibrational energy from the frequency calculation
    E(vib)  - the the finite temperature correction to E(ZPE) due to population
              of excited vibrational states
    E(rot)  - is the rotational thermal energy
    E(trans)- is the translational thermal energy

Summary of contributions to the inner energy U:
Electronic energy                ...   -117.23083719 Eh
Zero point energy                ...      0.39463051 Eh     247.63 kcal/mol
Thermal vibrational correction   ...      0.01349470 Eh       8.47 kcal/mol
Thermal rotational correction    ...      0.00141627 Eh       0.89 kcal/mol
Thermal translational correction ...      0.00141627 Eh       0.89 kcal/mol
-----------------------------------------------------------------------
Total thermal energy                   -116.81987943 Eh


Summary of corrections to the electronic energy:
(perhaps to be used in another calculation)
Total thermal correction                  0.01632725 Eh      10.25 kcal/mol
Non-thermal (ZPE) correction              0.39463051 Eh     247.63 kcal/mol
-----------------------------------------------------------------------
Total correction                          0.41095776 Eh     257.88 kcal/mol


--------
ENTHALPY
--------

The enthalpy is H = U + kB*T
                kB is Boltzmann's constant
Total thermal energy              ...   -116.81987943 Eh 
Thermal Enthalpy correction       ...      0.00094421 Eh       0.59 kcal/mol
-----------------------------------------------------------------------
Total Enthalpy                    ...   -116.81893522 Eh


Note: Only C1 symmetry has been detected, increase convergence thresholds 
      if your molecule has a higher symmetry. Symmetry factor of 1.0 is   
      used for the rotational entropy correction. 
 

Note: Rotational entropy computed according to Herzberg 
Infrared and Raman Spectra, Chapter V,1, Van Nostrand Reinhold, 1945 
Point Group:  C1, Symmetry Number:   1  
Rotational constants in cm-1:     0.022827     0.016733     0.011587 

Vibrational entropy computed according to the QRRHO of S. Grimme
Chem.Eur.J. 2012 18 9955 using a reference frequency of 100.0 cm-1


-------
ENTROPY
-------

The entropy contributions are T*S = T*(S(el)+S(vib)+S(rot)+S(trans))
     S(el)   - electronic entropy
     S(vib)  - vibrational entropy
     S(rot)  - rotational entropy
     S(trans)- translational entropy
The entropies will be listed as multiplied by the temperature to get
units of energy

Electronic entropy                ...      0.00000000 Eh      0.00 kcal/mol
Vibrational entropy               ...      0.02239464 Eh     14.05 kcal/mol
Rotational entropy                ...      0.01533079 Eh      9.62 kcal/mol
Translational entropy             ...      0.02000310 Eh     12.55 kcal/mol
-----------------------------------------------------------------------
Final entropy term                ...      0.05772852 Eh     36.23 kcal/mol

In case the symmetry of your molecule has not been determined correctly
or in case you have a reason to use a different symmetry number we print 
out the resulting rotational entropy values for sn=1,12:

 non-linear molecules -----------------------------------
|  sn= 1 | S(rot)=       0.01533079 Eh      9.62 kcal/mol|
|  sn= 2 | S(rot)=       0.01467633 Eh      9.21 kcal/mol|
|  sn= 3 | S(rot)=       0.01429350 Eh      8.97 kcal/mol|
|  sn= 4 | S(rot)=       0.01402188 Eh      8.80 kcal/mol|
|  sn= 5 | S(rot)=       0.01381119 Eh      8.67 kcal/mol|
|  sn= 6 | S(rot)=       0.01363904 Eh      8.56 kcal/mol|
|  sn= 7 | S(rot)=       0.01349350 Eh      8.47 kcal/mol|
|  sn= 8 | S(rot)=       0.01336742 Eh      8.39 kcal/mol|
|  sn= 9 | S(rot)=       0.01325621 Eh      8.32 kcal/mol|
|  sn=10 | S(rot)=       0.01315673 Eh      8.26 kcal/mol|
|  sn=11 | S(rot)=       0.01306674 Eh      8.20 kcal/mol|
|  sn=12 | S(rot)=       0.01298459 Eh      8.15 kcal/mol|
 linear molecules ---------------------------------------
|  Dinfh | S(rot)=       0.00953486 Eh      5.98 kcal/mol|
|  Cinfv | S(rot)=       0.01018932 Eh      6.39 kcal/mol|
 --------------------------------------------------------


-------------------
GIBBS FREE ENERGY
-------------------

The Gibbs free energy is G = H - T*S

Total enthalpy                    ...   -116.81893522 Eh 
Total entropy correction          ...     -0.05772852 Eh    -36.23 kcal/mol
-----------------------------------------------------------------------
Final Gibbs free energy         ...   -116.87666374 Eh

For completeness - the Gibbs free energy minus the electronic energy
G-E(el)                           ...      0.35417344 Eh    222.25 kcal/mol


Maximum memory used throughout the entire PROP-calculation: 281.2 MB

--------------------------------
SUGGESTED CITATIONS FOR THIS RUN
--------------------------------

Below you find a list of papers that are relevant to this ORCA run
We neither can nor want to force you to cite these papers, but we appreciate if you do
You receive ORCA, which is the product of decades of hard work by many enthusiastic individuals, for free
The only thing we kindly ask in return is that you cite our papers,
We deeply appreciate it, if you show your appreciation for ORCA by not just citing the generic ORCA reference.

Please note that relegating all ORCA citations to the supporting information does *not* help us.
SI sections are not indexed - citations you put there will not count into any citation statistics
But we need these citations in order to attract the funding resources that allow us to do what we are doing

Therefore, if you are a happy ORCA user, please consider citing a few of the papers listed below in the main body of your paper

In addition to the list printed below, the program has created the file ./output/himachalol/himachalol.bibtex that contains the list in bibtex format
You can import this file easily into all common literature databanks and citation aid programs


List of essential papers. We consider these as the minimum necessary citations

  1. Neese,F.
     Software update: the ORCA program system, version 5.0
     WIRES Comput. Molec. Sci., 2022 12(1)e1606
     doi.org/10.1002/wcms.1606
  2. Mueller,M.; Hansen,A.; Grimme,S.
     wB97X-3c: A composite range-separated hybrid DFT method with a molecule-optimized polarized valence double-zeta basis set
     J. Chem. Phys., 2023 158 014103
     doi.org/10.1063/5.0133026

List of papers to cite with high priority. The work reported in these papers was absolutely
necessary for this run to complete.
Our perspective: the developers of density functionals and basis sets usually get cited in chemistry papers
Good! But without the algorithms to do something with them, the functionals or basis sets would not do anything.
Hence, in our opinion, the algorithm design and method developments papers are equally worthy of getting cited

  1. Neese,F.
     An improvement of the resolution of the identity approximation for the formation of the Coulomb matrix
     J. Comp. Chem., 2003 24(14)1740-1747
     doi.org/10.1002/jcc.10318
  2. Neese,F.; Wennmohs,F.; Hansen,A.; Becker,U.
     Efficient, approximate and parallel Hartree-Fock and hybrid DFT calculations. A 'chain-of-spheres' algorithm for the Hartree-Fock exchange
     Chem. Phys., 2009 356(1-3)98-109
     doi.org/10.1016/j.chemphys.2008.10.036
  3. Bykov,D.; Petrenko,T.; Izsak,R.; Kossmann,S.; Becker,U.; Valeev,E.; Neese,F.
     Efficient implementation of the analytic second derivatives of Hartree-Fock and hybrid DFT energies: a detailed analysis of different approximations
     Molec. Phys., 2015 113 1961-1977
     doi.org/10.1080/00268976.2015.1025114
  4. Helmich-Paris,B.; de Souza,B.; Neese,F.; Izsák,R.
     An improved chain of spheres for exchange algorithm
     J. Chem. Phys., 2021 155 104109
     doi.org/doi: 10.1063/5.0058766.
  5. Neese,F.
     The SHARK Integral Generation and Digestion System
     J. Comp. Chem., 2022  1-16
     doi.org/10.1002/jcc.26942
  6. Caldeweyher,E.; Bannwarth,C.; Grimme,S.
     Extension of the D3 dispersion coefficient model
     J. Chem. Phys., 2017 147 034112
     doi.org/10.1063/1.4993215
  7. Caldeweyher,E.; Ehlert,S.; Hansen,A.; Neugebauer,H.; Spicher,S.; Bannwarth,C.; Grimme,S.
     A generally applicable atomic-charge dependent London dispersion correction
     J. Chem. Phys., 2019 150 154122
     doi.org/10.1063/1.5090222
  8. Caldeweyher,E.; Mewes,J.; Ehlert,S.; Grimme,S.
     Extension and evaluation of the D4 London-dispersion model for periodic systems
     Phys. Chem. Chem. Phys., 2020 22(16)8499-8512
     doi.org/10.1039/D0CP00502A
  9. Wittmann,L.; Gordiy,I.; Friede,M.; Helmich-Paris,B.; Grimme,S.; Hansen,A.; Bursch,M.
     Extension of the D3 and D4 London Dispersion Corrections to the full Actinides Series
     Phys. Chem. Chem. Phys., 2024 26(32)21379-21394
     doi.org/https://doi.org/10.1039/D4CP01514B 

List of suggested additional citations. These are papers that are important in the 'surrounding' of 
of this run, or papers that preceded the highly important papers. If you like your results we are grateful for a citation.

  1. Izsak,R.; Neese,F.
     An overlap fitted chain of spheres exchange method
     J. Chem. Phys., 2011 135 144105
     doi.org/10.1063/1.3646921
  2. Izsak,R.; Hansen,A.; Neese,F.
     The resolution of identity and chain of spheres approximations for the LPNO-CCSD singles Fock term
     Molec. Phys., 2012 110 2413-2417
     doi.org/10.1080/00268976.2012.687466
  3. Neese,F.
     The ORCA program system
     WIRES Comput. Molec. Sci., 2012 2(1)73-78
     doi.org/10.1002/wcms.81
  4. Izsak,R.; Neese,F.; Klopper,W.
     Robust fitting techniques in the chain of spheres approximation to the Fock exchange: The role of the complementary space
     J. Chem. Phys., 2013 139 
     doi.org/10.1063/1.4819264
  5. Neese,F.
     Software update: the ORCA program system, version 4.0
     WIRES Comput. Molec. Sci., 2018 8(1)1-6
     doi.org/10.1002/wcms.1327
  6. Neese,F.; Wennmohs,F.; Becker,U.; Riplinger,C.
     The ORCA quantum chemistry program package
     J. Chem. Phys., 2020 152 Art. No. L224108
     doi.org/10.1063/5.0004608

List of optional additional citations

  1. Neese,F.
     Approximate second-order SCF convergence for spin unrestricted wavefunctions
     Chem. Phys. Lett., 2000 325(1-3)93-98
     doi.org/10.1016/s0009-2614(00)00662-x

Timings for individual modules:

Sum of individual times          ...     2564.211 sec (=  42.737 min)
Startup calculation              ...      108.634 sec (=   1.811 min)   4.2 %
SCF iterations                   ...     1525.857 sec (=  25.431 min)  59.5 %
Property integrals               ...      174.520 sec (=   2.909 min)   6.8 %
SCF Response                     ...      109.288 sec (=   1.821 min)   4.3 %
Property calculations            ...      283.156 sec (=   4.719 min)  11.0 %
SCF Gradient evaluation          ...      361.991 sec (=   6.033 min)  14.1 %
Geometry relaxation              ...        0.764 sec (=   0.013 min)   0.0 %
                             ****ORCA TERMINATED NORMALLY****
TOTAL RUN TIME: 0 days 0 hours 42 minutes 53 seconds 690 msec
