
                                 *****************
                                 * O   R   C   A *
                                 *****************

                                            #,                                       
                                            ###                                      
                                            ####                                     
                                            #####                                    
                                            ######                                   
                                           ########,                                 
                                     ,,################,,,,,                         
                               ,,#################################,,                 
                          ,,##########################################,,             
                       ,#########################################, ''#####,          
                    ,#############################################,,   '####,        
                  ,##################################################,,,,####,       
                ,###########''''           ''''###############################       
              ,#####''   ,,,,##########,,,,          '''####'''          '####       
            ,##' ,,,,###########################,,,                        '##       
           ' ,,###''''                  '''############,,,                           
         ,,##''                                '''############,,,,        ,,,,,,###''
      ,#''                                            '''#######################'''  
     '                                                          ''''####''''         
             ,#######,   #######,   ,#######,      ##                                
            ,#'     '#,  ##    ##  ,#'     '#,    #''#        ,####,   ,####,        
            ##       ##  ##   ,#'  ##            #'  '#       #'       #'  '#        
            ##       ##  #######   ##           ,######,      #####,   #    #        
            '#,     ,#'  ##    ##  '#,     ,#' ,#      #,     #,   #   #,  ,#        
             '#######'   ##     ##  '#######'  #'      '#     '####' # '####'        



                #########################################################
                #                        -***-                          #
                #          Department of theory and spectroscopy        #
                #                                                       #
                #                      Frank Neese                      #
                #                                                       #
                #     Directorship, Architecture, Infrastructure        #
                #                    SHARK, DRIVERS                     #
                #        Core code/Algorithms in most modules           #
                #                                                       #
                #        Max Planck Institute fuer Kohlenforschung      #
                #                Kaiser Wilhelm Platz 1                 #
                #                 D-45470 Muelheim/Ruhr                 #
                #                      Germany                          #
                #                                                       #
                #                  All rights reserved                  #
                #                        -***-                          #
                #########################################################


                         Program Version 6.0.1  -  RELEASE   -


 With contributions from (in alphabetic order):
[Max-Planck-Institut fuer Kohlenforschung]                               
  Daniel Aravena         : Magnetic Suceptibility                        
  Michael Atanasov       : Ab Initio Ligand Field Theory (pilot matlab implementation)
  Alexander A. Auer      : GIAO ZORA, VPT2 properties, NMR spectrum      
  Ute Becker             : All parallelization in ORCA, NUMFREQ, NUMCALC 
  Giovanni Bistoni       : ED, misc. LED, open-shell LED, HFLD           
  Martin Brehm           : Molecular dynamics                            
  Dmytro Bykov           : pre 5.0 version of the SCF Hessian            
  Marcos Casanova-Páez   : Triplet and SCS-CIS(D). UHF-(DLPNO)-IP/EA/STEOM-CCSD. UHF-CVS-IP/STEOM-CCSD   
  Vijay G. Chilkuri      : MRCI spin determinant printing, contributions to CSF-ICE 
  Pauline Colinet        : FMM embedding                                 
  Dipayan Datta          : RHF DLPNO-CCSD density                        
  Achintya Kumar Dutta   : EOM-CC, STEOM-CC                              
  Nicolas Foglia         : Exact transition moments, OPA infrastructure, MCD improvements    
  Dmitry Ganyushin       : Spin-Orbit,Spin-Spin,Magnetic field MRCI      
  Miquel Garcia-Rates    : C-PCM and meta-GGA Hessian, CCSD/C-PCM, Gaussian charge scheme 
  Tiago L. C. Gouveia    : GS-ROHF, GS-ROCIS                             
  Yang Guo               : DLPNO-NEVPT2, F12-NEVPT2, CIM, IAO-localization        
  Andreas Hansen         : Spin unrestricted coupled pair/coupled cluster methods 
  Ingolf Harden          : AUTO-CI MPn and infrastructure                
  Benjamin Helmich-Paris : MC-RPA, TRAH-(SCF,CASSCF), AVAS, COSX integrals, SCF dyn. polar. 
  Lee Huntington         : MR-EOM, pCC                                   
  Robert Izsak           : Overlap fitted RIJCOSX, COSX-SCS-MP3, EOM     
  Riya Kayal             : Wick's Theorem for AUTO-CI, AUTO-CI UHF-CCSDT 
  Emily Kempfer          : AUTO-CI, RHF CISDT and CCSDT                  
  Christian Kollmar      : KDIIS, OOCD, Brueckner-CCSD(T), CCSD density, CASPT2, CASPT2-K, improved NEVPT2 
  Axel Koslowski         : Symmetry handling                             
  Simone Kossmann        : meta-GGA functionals, TD-DFT gradient, OOMP2, (MP2 Hessian; deprecated post 5.0) 
  Lucas Lang             : DCDCAS                                        
  Marvin Lechner         : AUTO-CI (C++ implementation), FIC-MRCC        
  Spencer Leger          : CASSCF response                               
  Dagmar Lenk            : GEPOL surface, SMD, ORCA-2-JSON               
  Dimitrios Liakos       : Extrapolation schemes; Compound Job, initial MDCI parallelization 
  Dimitrios Manganas     : Further ROCIS development; embedding schemes. LFT, Crystal Embedding 
  Dimitrios Pantazis     : SARC Basis sets                               
  Anastasios Papadopoulos: AUTO-CI, single reference methods and gradients 
  Taras Petrenko         : pre 6.0 DFT Hessian and TD-DFT gradient, (ASA, deprecated), ECA, 1-Electron XAS/XES, NRVS 
  Peter Pinski           : DLPNO-MP2, DLPNO-MP2 Gradient                 
  Christoph Reimann      : Effective Core Potentials                     
  Marius Retegan         : Local ZFS, SOC                                
  Christoph Riplinger    : Optimizer, TS searches, QM/MM, DLPNO-CCSD(T), (RO)-DLPNO pert. Triples 
  Michael Roemelt        : Original ROCIS implementation                 
  Masaaki Saitow         : Open-shell DLPNO-CCSD energy and density      
  Barbara Sandhoefer     : DKH picture change effects                    
  Kantharuban Sivalingam : CASSCF convergence/infrastructure, NEVPT2 and variants, FIC-MRCI 
  Bernardo de Souza      : ESD, SOC TD-DFT                               
  Georgi L. Stoychev     : AutoAux, RI-MP2 NMR, DLPNO-MP2 response, X2C  
  Van Anh Tran           : RI-MP2 g-tensors                              
  Willem Van den Heuvel  : Paramagnetic NMR                              
  Zikuan Wang            : NOTCH, Electric field optimization            
  Frank Wennmohs         : Technical directorship and infrastructure     
  Hang Xu                : AUTO-CI-Response properties                   
                                                                         
[FACCTs GmbH]                                                            
  Markus Bursch, Miquel Garcia-Rates, Christoph Riplinger, Bernardo de Souza, Georgi L. Stoychev 
                                                                 
  APM, Basis sets (HGBS, AHGBS, def-TZVP (Ac-Lr), def2-XVPD (La-Lu)), CI-OPT, improved COSX, DLPNO-Multilevel,           
  DOCKER, DRACO, updates on ESD, GOAT, IRC, LR-CPCM, MBIS, meta-GGA TD-DFT gradient, ML-optimized integration grids, 
  MM, NACMEs, nearIR, NEB, NEB-TS, NL-DFT gradient (VV10), 2- and 3-layer-ONIOM, interface openCOSMO-RS, QMMM,   
  Crystal-QMMM, SF, symmetry and pop. for TD-DFT, r2SCAN hybrids, SOLVATOR                                   
                                                                         
[Other institutions]                                                     
  V. Asgeirsson          : NEB                                           
  Christoph Bannwarth    : sTDA-DFT, sTD-DFT, PBEh-3c, B97-3c, D3        
  Sebastian Ehlert       : rSCAN, r2SCAN, r2SCAN-3c, D4, dhf basis sets  
  Marvin Friede          : D4 for Fr, Ra, Ac-Lr                          
  Lars Goerigk           : TD-DFT with DH, B97 family of functionals     
  Stefan Grimme          : VdW corrections, initial TS optimization, DFT functionals, gCP, sTDA/sTD-DF 
  Waldemar Hujo          : DFT-NL                                        
  H. Jonsson             : NEB                                           
  Holger Kruse           : gCP                                           
  Marcel Mueller         : wB97X-3c, vDZP basis set                      
  Hagen Neugebauer       : wr2SCAN                                       
  Tobias Risthaus        : range-separated hybrid DFT                    
  Lukas Wittmann         : regularized MP2, r2SCAN double-hybrids, wr2SCAN        
                                                                         
We gratefully acknowledge several colleagues who have allowed us to      
interface, adapt or use parts of their codes:                            
  Ed Valeev, F. Pavosevic, A. Kumar             : LibInt (2-el integral package), F12 methods 
  Garnet Chan, S. Sharma, J. Yang, R. Olivares  : DMRG                   
  Ulf Ekstrom                                   : XCFun DFT Library      
  Mihaly Kallay                                 : mrcc  (arbitrary order and MRCC methods)
  Frank Weinhold                                : gennbo (NPA and NBO analysis)           
  Simon Mueller                                 : openCOSMO-RS                            
  Christopher J. Cramer and Donald G. Truhlar   : smd solvation model                     
  S Lehtola, MJT Oliveira, MAL Marques          : LibXC Library                           
  Liviu Ungur et al                             : ANISO software                          


 Your calculation uses the libint2 library for the computation of 2-el integrals
 For citations please refer to: http://libint.valeyev.net

 Your ORCA version has been built with support for libXC version: 6.2.2
 For citations please refer to: https://libxc.gitlab.io

 This ORCA versions uses:
   CBLAS   interface :  Fast vector & matrix operations
   LAPACKE interface :  Fast linear algebra routines
   SCALAPACK package :  Parallel linear algebra routines
   Shared memory     :  Shared parallel matrices
   BLAS/LAPACK       :  OpenBLAS 0.3.27  USE64BITINT DYNAMIC_ARCH NO_AFFINITY SkylakeX SINGLE_THREADED
        Core in use  :  SkylakeX
   Copyright (c) 2011-2014, The OpenBLAS Project


Your calculation utilizes the atom-pairwise dispersion correction
based on EEQ partial charges (D4)


================================================================================

cite the ECPs for C  [vDZP-ECP], O  [vDZP-ECP] as follows:
   B-Ne (ecp-2-mwb), Al-Ar (ecp-10-mwb), Ga-Kr (ecp-28-mwb), Y-Cd (ecp-28-mwb), In-Xe (ecp-46-mwb):
     A. Bergner, M. Dolg, W. Küchle, H. Stoll, and H. Preuß, Mol. Phys. 80, 1431 (1993)., T. Leininger, A. Berning, A. Nicklass, H. Stoll, H.-J. Werner, and H.-J.Flad, Chem. Phys. 217, 19 (1997).
   Na-Mg, K-Ca, Rb-Sr, Cs-Ba (CRENBL):
     L. Fernandez Pacios and P. A. Christiansen, J. Chem. Phys. 82, 2664 (1985)., M. M. Hurley, L. F. Pacios, P. A. Christiansen, R. B. Ross, and W. C. Ermler, J. Chem. Phys. 84, 6840 (1986)., L. A. LaJohn, P. A. Christiansen, R. B. Ross, T. Atashroo, and W. C. Ermler, J. Chem. Phys. 87, 2812 (1987)., R. B. Ross, J. M. Powers, T. Atashroo, W. C. Ermler, L. A. LaJohn, and P. A. Christiansen, J. Chem. Phys. 93, 6654 (1990). 
   Sc-Zn (ecp-10-mdf):
     M. Dolg, U. Wedig, H. Stoll, and H. Preuss, J. Chem. Phys. 86, 866 (1986). 
   Y-Cd (ecp-28-mwb), Hf-Hg (ecp-60-mwb):
     D. Andrae, U. Häußermann, M. Dolg, H. Stoll, and H. Preuß, Theor. Chim. Acta 77, 123 (1990). 
   La (ecp-46-mwb):
     M. Dolg, H. Stoll, and H. Preuss, J. Chem. Phys. 90, 1730 (1989)., M. Dolg, H. Stoll, and H. Preuss, Theor. Chim. Acta 85, 441 (1993).
   Ce-Lu (SBKJC-ecp):
     T. R. Cundari and W. J. Stevens, J. Chem. Phys. 98, 5555 (1993).
   Tl-Rn (ecp-78-mwb):
     W. Küchle, M. Dolg, H. Stoll, and H. Preuss, Mol. Phys. 74, 1245 (1991).

ECP parameters for C  [vDZP-ECP], O  [vDZP-ECP] have been obtained from:
MM, AH, SG, J. Chem. Phys. 158, 014103 (2023), 10.1063/5.0133026

----- Orbital basis set information -----
Your calculation utilizes the basis: vDZP
   Marcel Mueller, Andreas Hansen, Stefan Grimme 
   J. Chem. Phys. 158, 014103 (2023). DOI: 10.1063/5.0133026

----- AuxJ basis set information -----
Your calculation utilizes the auxiliary basis: def2/J
   F. Weigend, Phys. Chem. Chem. Phys. 8, 1057 (2006).

================================================================================
                                        WARNINGS
                       Please study these warnings very carefully!
================================================================================

WARNING: Frozen-Core approximation turned on, but there are no core electrons.
  ===> : Turning off frozen-core approximation


WARNING: Geometry Optimization
  ===> : Switching off AutoStart
         For restart on a previous wavefunction, please use MOREAD

================================================================================
                                       INPUT FILE
================================================================================
NAME = ./output/geraniol/geraniol.inp
|  1> ! wB97X-3c OPT FREQ TightSCF
|  2> %pal
|  3>   nprocs 40
|  4> end
|  5> * xyz 0 1
|  6> C     -1.880650     1.752596    -0.037168
|  7> C     -2.471992     0.497006     0.560000
|  8> C     -1.907032    -0.717655     0.380645
|  9> C     -0.628409    -0.960989    -0.381597
| 10> C      0.592274    -0.795165     0.530125
| 11> C      1.875228    -1.040695    -0.239466
| 12> C      2.529965    -0.058525    -0.898173
| 13> C      2.087999     1.382842    -0.914119
| 14> O      2.946235     2.144631    -1.718783
| 15> C      2.423418    -2.442353    -0.310490
| 16> C     -3.741486     0.585887     1.367232
| 17> H     -0.856554     1.919465     0.352600
| 18> H     -1.849598     1.670352    -1.143603
| 19> H     -2.486226     2.647135     0.216716
| 20> H     -2.388223    -1.589697     0.817183
| 21> H     -0.561220    -0.296985    -1.267814
| 22> H     -0.647296    -2.005224    -0.762707
| 23> H      0.600374     0.207014     1.004157
| 24> H      0.518599    -1.525612     1.365376
| 25> H      3.433494    -0.312207    -1.448320
| 26> H      2.073464     1.793325     0.120611
| 27> H      1.064922     1.452665    -1.336024
| 28> H      3.778453     2.284048    -1.195057
| 29> H      2.487504    -2.768442    -1.370324
| 30> H      3.436816    -2.472892     0.142683
| 31> H      1.772899    -3.159550     0.232963
| 32> H     -4.533127    -0.030911     0.891322
| 33> H     -4.111545     1.629687     1.439807
| 34> H     -3.558287     0.210248     2.396269
| 35> *
| 36> 
| 37>                          ****END OF INPUT****
================================================================================

                       *****************************
                       * Geometry Optimization Run *
                       *****************************

Geometry optimization settings:
Update method            Update   .... BFGS
Choice of coordinates    CoordSys .... (2022) Redundant Internals
Initial Hessian          InHess   .... Almloef's Model
Max. no of cycles        MaxIter  .... 87

Convergence Tolerances:
Energy Change            TolE     ....  5.0000e-06 Eh
Max. Gradient            TolMAXG  ....  3.0000e-04 Eh/bohr
RMS Gradient             TolRMSG  ....  1.0000e-04 Eh/bohr
Max. Displacement        TolMAXD  ....  4.0000e-03 bohr
RMS Displacement         TolRMSD  ....  2.0000e-03 bohr
Strict Convergence                .... False

------------------------------------------------------------------------------
                        ORCA OPTIMIZATION COORDINATE SETUP
------------------------------------------------------------------------------

The optimization will be done in redundant internal coordinates (2022)
Making redundant internal coordinates   ...  (2022 redundants) done
Evaluating the initial hessian          ...  (Almloef) done
Evaluating the coordinates              ...  done
Calculating the B-matrix                .... done
Calculating the G-matrix                .... done
Diagonalizing the G-matrix              .... done
Small eigenvalue found = 4.261e-03
Small eigenvalue found = 1.136e-02
Small eigenvalue found = 1.582e-02
Small eigenvalue found = 1.808e-02
Small eigenvalue found = 2.777e-02
The first mode is                       ....   43
The number of degrees of freedom        ....   81

    -----------------------------------------------------------------
                    Redundant Internal Coordinates


    -----------------------------------------------------------------
         Definition                    Initial Value    Approx d2E/dq
    -----------------------------------------------------------------
      1. B(C   1,C   0)                  1.5109         0.400737   
      2. B(C   2,C   1)                  1.3516         0.719526   
      3. B(C   3,C   2)                  1.5083         0.404509   
      4. B(C   4,C   3)                  1.5326         0.370051   
      5. B(C   5,C   4)                  1.5161         0.393162   
      6. B(C   6,C   5)                  1.3518         0.719053   
      7. B(C   7,C   6)                  1.5077         0.405483   
      8. B(O   8,C   7)                  1.4016         0.536326   
      9. B(C   9,C   5)                  1.5067         0.406931   
     10. B(C  10,C   1)                  1.5070         0.406467   
     11. B(H  11,C   0)                  1.1084         0.336571   
     12. B(H  12,C   0)                  1.1099         0.334687   
     13. B(H  13,C   0)                  1.1097         0.334990   
     14. B(H  14,C   2)                  1.0875         0.363477   
     15. B(H  15,C   3)                  1.1094         0.335314   
     16. B(H  16,C   3)                  1.1118         0.332425   
     17. B(H  17,C   4)                  1.1087         0.336238   
     18. B(H  18,C   4)                  1.1120         0.332097   
     19. B(H  19,C   6)                  1.0878         0.362978   
     20. B(H  20,C   7)                  1.1133         0.330594   
     21. B(H  21,C   7)                  1.1089         0.335998   
     22. B(H  22,O   8)                  0.9931         0.460368   
     23. B(H  23,C   9)                  1.1107         0.333713   
     24. B(H  24,C   9)                  1.1105         0.333942   
     25. B(H  25,C   9)                  1.1104         0.334155   
     26. B(H  26,C  10)                  1.1107         0.333748   
     27. B(H  27,C  10)                  1.1098         0.334796   
     28. B(H  28,C  10)                  1.1107         0.333771   
     29. A(C   1,C   0,H  11)          110.3493         0.324458   
     30. A(C   1,C   0,H  12)          110.0824         0.324159   
     31. A(H  11,C   0,H  13)          107.6019         0.284550   
     32. A(C   1,C   0,H  13)          111.4627         0.324207   
     33. A(H  11,C   0,H  12)          109.6244         0.284510   
     34. A(H  12,C   0,H  13)          107.6423         0.284302   
     35. A(C   0,C   1,C   2)          122.0591         0.412324   
     36. A(C   2,C   1,C  10)          118.4376         0.413364   
     37. A(C   0,C   1,C  10)          119.4980         0.373120   
     38. A(C   3,C   2,H  14)          116.6535         0.329101   
     39. A(C   1,C   2,C   3)          124.4985         0.413010   
     40. A(C   1,C   2,H  14)          118.8451         0.362530   
     41. A(C   2,C   3,C   4)          110.9221         0.367738   
     42. A(C   4,C   3,H  16)          108.6076         0.319603   
     43. A(C   2,C   3,H  16)          108.0807         0.324297   
     44. A(C   4,C   3,H  15)          111.2362         0.320055   
     45. A(C   2,C   3,H  15)          111.0060         0.324758   
     46. A(H  15,C   3,H  16)          106.8196         0.284045   
     47. A(H  17,C   4,H  18)          105.8489         0.284123   
     48. A(C   5,C   4,H  18)          109.3269         0.322734   
     49. A(C   3,C   4,H  18)          108.8435         0.319551   
     50. A(C   5,C   4,H  17)          110.9316         0.323391   
     51. A(C   3,C   4,H  17)          110.9765         0.320199   
     52. A(C   3,C   4,C   5)          110.7634         0.365948   
     53. A(C   4,C   5,C   6)          122.6543         0.410882   
     54. A(C   6,C   5,C   9)          118.4721         0.413400   
     55. A(C   4,C   5,C   9)          118.8467         0.371968   
     56. A(C   7,C   6,H  19)          117.4561         0.329157   
     57. A(C   5,C   6,H  19)          118.6397         0.362405   
     58. A(C   5,C   6,C   7)          123.9035         0.413138   
     59. A(C   6,C   7,O   8)          110.2544         0.389831   
     60. A(H  20,C   7,H  21)          108.5649         0.283891   
     61. A(O   8,C   7,H  21)          108.1980         0.338348   
     62. A(C   6,C   7,H  21)          109.5535         0.324995   
     63. A(O   8,C   7,H  20)          109.9501         0.337434   
     64. A(C   6,C   7,H  20)          110.2731         0.324131   
     65. A(C   7,O   8,H  22)          106.6585         0.353649   
     66. A(H  23,C   9,H  25)          108.1311         0.284063   
     67. A(C   5,C   9,H  25)          111.3861         0.324892   
     68. A(H  23,C   9,H  24)          109.1869         0.284035   
     69. A(C   5,C   9,H  24)          109.7767         0.324858   
     70. A(H  24,C   9,H  25)          108.4898         0.284093   
     71. A(C   5,C   9,H  23)          109.8211         0.324821   
     72. A(H  27,C  10,H  28)          108.2099         0.284155   
     73. A(H  26,C  10,H  28)          109.0708         0.284017   
     74. A(C   1,C  10,H  28)          109.7175         0.324770   
     75. A(H  26,C  10,H  27)          108.2191         0.284152   
     76. A(C   1,C  10,H  27)          111.8005         0.324933   
     77. A(C   1,C  10,H  26)          109.7636         0.324766   
     78. D(C   2,C   1,C   0,H  11)    -60.7033         0.011916   
     79. D(C   2,C   1,C   0,H  12)     60.4276         0.011916   
     80. D(C  10,C   1,C   0,H  12)   -118.7211         0.011916   
     81. D(C  10,C   1,C   0,H  11)    120.1479         0.011916   
     82. D(C   2,C   1,C   0,H  13)    179.7994         0.011916   
     83. D(H  14,C   2,C   1,C   0)   -178.7523         0.036638   
     84. D(C   3,C   2,C   1,C   0)      1.8887         0.036638   
     85. D(H  14,C   2,C   1,C  10)      0.4051         0.036638   
     86. D(C   3,C   2,C   1,C  10)   -178.9539         0.036638   
     87. D(H  16,C   3,C   2,C   1)   -154.4308         0.012132   
     88. D(H  15,C   3,C   2,H  14)    143.0324         0.012132   
     89. D(H  15,C   3,C   2,C   1)    -37.5958         0.012132   
     90. D(C   4,C   3,C   2,H  14)    -92.7605         0.012132   
     91. D(C   4,C   3,C   2,C   1)     86.6113         0.012132   
     92. D(C   5,C   4,C   3,C   2)    179.9916         0.010947   
     93. D(H  17,C   4,C   3,H  16)   -174.9693         0.010947   
     94. D(H  17,C   4,C   3,H  15)     67.7468         0.010947   
     95. D(H  17,C   4,C   3,C   2)    -56.3291         0.010947   
     96. D(C   5,C   4,C   3,H  16)     61.3514         0.010947   
     97. D(C   5,C   4,C   3,H  15)    -55.9325         0.010947   
     98. D(C   9,C   5,C   4,H  17)    146.9910         0.011491   
     99. D(C   9,C   5,C   4,C   3)    -89.3040         0.011491   
    100. D(C   6,C   5,C   4,H  18)   -151.2854         0.011491   
    101. D(C   6,C   5,C   4,H  17)    -34.9255         0.011491   
    102. D(C   6,C   5,C   4,C   3)     88.7796         0.011491   
    103. D(H  19,C   6,C   5,C   9)     -0.5479         0.036585   
    104. D(H  19,C   6,C   5,C   4)   -178.6383         0.036585   
    105. D(C   7,C   6,C   5,C   9)    179.7784         0.036585   
    106. D(C   7,C   6,C   5,C   4)      1.6881         0.036585   
    107. D(O   8,C   7,C   6,H  19)      2.3206         0.012188   
    108. D(O   8,C   7,C   6,C   5)   -178.0022         0.012188   
    109. D(H  21,C   7,C   6,C   5)    -59.0344         0.012188   
    110. D(H  20,C   7,C   6,H  19)   -119.2811         0.012188   
    111. D(H  20,C   7,C   6,C   5)     60.3961         0.012188   
    112. D(H  22,O   8,C   7,H  21)    164.1315         0.022868   
    113. D(H  22,O   8,C   7,H  20)     45.7156         0.022868   
    114. D(H  22,O   8,C   7,C   6)    -76.0775         0.022868   
    115. D(H  25,C   9,C   5,C   4)      0.6501         0.012271   
    116. D(H  24,C   9,C   5,C   6)     62.3038         0.012271   
    117. D(H  24,C   9,C   5,C   4)   -119.5317         0.012271   
    118. D(H  23,C   9,C   5,C   6)    -57.7521         0.012271   
    119. D(H  23,C   9,C   5,C   4)    120.4124         0.012271   
    120. D(H  28,C  10,C   1,C   0)   -120.5588         0.012245   
    121. D(H  27,C  10,C   1,C   2)   -179.6798         0.012245   
    122. D(H  27,C  10,C   1,C   0)     -0.5002         0.012245   
    123. D(H  26,C  10,C   1,C   2)    -59.5787         0.012245   
    124. D(H  26,C  10,C   1,C   0)    119.6009         0.012245   
    -----------------------------------------------------------------

Number of atoms                         .... 29
Number of degrees of freedom            .... 124


         *************************************************************
         *                GEOMETRY OPTIMIZATION CYCLE   1            *
         *************************************************************
---------------------------------
CARTESIAN COORDINATES (ANGSTROEM)
---------------------------------
  C     -1.880650    1.752596   -0.037168
  C     -2.471992    0.497006    0.560000
  C     -1.907032   -0.717655    0.380645
  C     -0.628409   -0.960989   -0.381597
  C      0.592274   -0.795165    0.530125
  C      1.875228   -1.040695   -0.239466
  C      2.529965   -0.058525   -0.898173
  C      2.087999    1.382842   -0.914119
  O      2.946235    2.144631   -1.718783
  C      2.423418   -2.442353   -0.310490
  C     -3.741486    0.585887    1.367232
  H     -0.856554    1.919465    0.352600
  H     -1.849598    1.670352   -1.143603
  H     -2.486226    2.647135    0.216716
  H     -2.388223   -1.589697    0.817183
  H     -0.561220   -0.296985   -1.267814
  H     -0.647296   -2.005224   -0.762707
  H      0.600374    0.207014    1.004157
  H      0.518599   -1.525612    1.365376
  H      3.433494   -0.312207   -1.448320
  H      2.073464    1.793325    0.120611
  H      1.064922    1.452665   -1.336024
  H      3.778453    2.284048   -1.195057
  H      2.487504   -2.768442   -1.370324
  H      3.436816   -2.472892    0.142683
  H      1.772899   -3.159550    0.232963
  H     -4.533127   -0.030911    0.891322
  H     -4.111545    1.629687    1.439807
  H     -3.558287    0.210248    2.396269

----------------------------
CARTESIAN COORDINATES (A.U.)
----------------------------
  NO LB      ZA    FRAG     MASS         X           Y           Z
   0 C     4.0000*   0    12.011   -3.553913    3.311926   -0.070237
   1 C     4.0000*   0    12.011   -4.671388    0.939205    1.058247
   2 C     4.0000*   0    12.011   -3.603768   -1.356171    0.719315
   3 C     4.0000*   0    12.011   -1.187521   -1.816006   -0.721114
   4 C     4.0000*   0    12.011    1.119236   -1.502644    1.001791
   5 C     4.0000*   0    12.011    3.543667   -1.966629   -0.452525
   6 C     4.0000*   0    12.011    4.780941   -0.110596   -1.697301
   7 C     4.0000*   0    12.011    3.945746    2.613193   -1.727435
   8 O     6.0000*   0    15.999    5.567577    4.052765   -3.248029
   9 C     4.0000*   0    12.011    4.579596   -4.615378   -0.586741
  10 C     4.0000*   0    12.011   -7.070384    1.107166    2.583694
  11 H     1.0000    0     1.008   -1.618652    3.627263    0.666317
  12 H     1.0000    0     1.008   -3.495234    3.156508   -2.161096
  13 H     1.0000    0     1.008   -4.698286    5.002360    0.409534
  14 H     1.0000    0     1.008   -4.513087   -3.004092    1.544252
  15 H     1.0000    0     1.008   -1.060552   -0.561220   -2.395821
  16 H     1.0000    0     1.008   -1.223212   -3.789324   -1.441307
  17 H     1.0000    0     1.008    1.134542    0.391200    1.897582
  18 H     1.0000    0     1.008    0.980010   -2.882989    2.580187
  19 H     1.0000    0     1.008    6.488363   -0.589986   -2.736928
  20 H     1.0000    0     1.008    3.918279    3.388893    0.227922
  21 H     1.0000    0     1.008    2.012411    2.745139   -2.524719
  22 H     1.0000    0     1.008    7.140241    4.316225   -2.258330
  23 H     1.0000    0     1.008    4.700701   -5.231597   -2.589537
  24 H     1.0000    0     1.008    6.494641   -4.673089    0.269632
  25 H     1.0000    0     1.008    3.350294   -5.970684    0.440236
  26 H     1.0000    0     1.008   -8.566369   -0.058413    1.684354
  27 H     1.0000    0     1.008   -7.769694    3.079662    2.720841
  28 H     1.0000    0     1.008   -6.724188    0.397311    4.528292
* core charge reduced due to ECP

--------------------------------
INTERNAL COORDINATES (ANGSTROEM)
--------------------------------
 C      0   0   0     0.000000000000     0.00000000     0.00000000
 C      1   0   0     1.510894182029     0.00000000     0.00000000
 C      2   1   0     1.351572921653   122.05914459     0.00000000
 C      3   2   1     1.508343819641   124.49845049     1.88872833
 C      4   3   2     1.532580043831   110.92212392    86.61128203
 C      5   4   3     1.516089131383   110.76337507   179.99159995
 C      6   5   4     1.351751959465   122.65431120    88.77956540
 C      7   6   5     1.507689307769   123.90348494     1.68808732
 O      8   7   6     1.401561866317   110.25435670   181.99779536
 C      6   5   4     1.506718896689   118.84670690   270.69604199
 C      2   1   3     1.507029644705   119.49798351   180.85127453
 H      1   2   3     1.108393871420   110.34931869   299.29665774
 H      1   2   3     1.109921939357   110.08241409    60.42758249
 H      1   2   3     1.109675357820   111.46267274   179.79943387
 H      3   2   1     1.087459173344   118.84513421   181.24770980
 H      4   3   2     1.109412567455   111.00595224   322.40417962
 H      4   3   2     1.111768090068   108.08074874   205.56924571
 H      5   4   3     1.108663472414   110.97651384   303.67086662
 H      5   4   3     1.112036446541   108.84349885    59.76783837
 H      7   6   5     1.087833136365   118.63966538   181.36172799
 H      8   7   6     1.113271634604   110.27308803    60.39614955
 H      8   7   6     1.108857803455   109.55348457   300.96563641
 H      9   8   7     0.993132832248   106.65851435   283.92246940
 H     10   6   5     1.110715606658   109.82110765   120.41239592
 H     10   6   5     1.110528660078   109.77667222   240.46828274
 H     10   6   5     1.110354749339   111.38611779     0.65005391
 H     11   2   1     1.110686982811   109.76360940   119.60085800
 H     11   2   1     1.109832975770   111.80054653   359.49979128
 H     11   2   1     1.110668122929   109.71749143   239.44120947

---------------------------
INTERNAL COORDINATES (A.U.)
---------------------------
 C      0   0   0     0.000000000000     0.00000000     0.00000000
 C      1   0   0     2.855176221369     0.00000000     0.00000000
 C      2   1   0     2.554102671948   122.05914459     0.00000000
 C      3   2   1     2.850356734914   124.49845049     1.88872833
 C      4   3   2     2.896156561154   110.92212392    86.61128203
 C      5   4   3     2.864993252928   110.76337507   179.99159995
 C      6   5   4     2.554441004381   122.65431120    88.77956540
 C      7   6   5     2.849119886725   123.90348494     1.68808732
 O      8   7   6     2.648568087086   110.25435670   181.99779536
 C      6   5   4     2.847286075546   118.84670690   270.69604199
 C      2   1   3     2.847873304194   119.49798351   180.85127453
 H      1   2   3     2.094560865500   110.34931869   299.29665774
 H      1   2   3     2.097448495415   110.08241409    60.42758249
 H      1   2   3     2.096982523841   111.46267274   179.79943387
 H      3   2   1     2.055000019440   118.84513421   181.24770980
 H      4   3   2     2.096485922019   111.00595224   322.40417962
 H      4   3   2     2.100937214662   108.08074874   205.56924571
 H      5   4   3     2.095070337545   110.97651384   303.67086662
 H      5   4   3     2.101444334901   108.84349885    59.76783837
 H      7   6   5     2.055706707135   118.63966538   181.36172799
 H      8   7   6     2.103778502065   110.27308803    60.39614955
 H      8   7   6     2.095437569991   109.55348457   300.96563641
 H      9   8   7     1.876749067554   106.65851435   283.92246940
 H     10   6   5     2.098948309255   109.82110765   120.41239592
 H     10   6   5     2.098595031417   109.77667222   240.46828274
 H     10   6   5     2.098266387749   111.38611779     0.65005391
 H     11   2   1     2.098894218023   109.76360940   119.60085800
 H     11   2   1     2.097280378600   111.80054653   359.49979128
 H     11   2   1     2.098858578013   109.71749143   239.44120947

---------------------
BASIS SET INFORMATION
---------------------
There are 3 groups of distinct atoms

 Group   1 Type C   : 6s6p2d contracted to 2s2p1d pattern {42/42/2}
 Group   2 Type O   : 6s6p2d contracted to 2s2p1d pattern {42/42/2}
 Group   3 Type H   : 8s2p contracted to 2s1p pattern {53/2}

Atom   0C    basis set group =>   1
Atom   1C    basis set group =>   1
Atom   2C    basis set group =>   1
Atom   3C    basis set group =>   1
Atom   4C    basis set group =>   1
Atom   5C    basis set group =>   1
Atom   6C    basis set group =>   1
Atom   7C    basis set group =>   1
Atom   8O    basis set group =>   2
Atom   9C    basis set group =>   1
Atom  10C    basis set group =>   1
Atom  11H    basis set group =>   3
Atom  12H    basis set group =>   3
Atom  13H    basis set group =>   3
Atom  14H    basis set group =>   3
Atom  15H    basis set group =>   3
Atom  16H    basis set group =>   3
Atom  17H    basis set group =>   3
Atom  18H    basis set group =>   3
Atom  19H    basis set group =>   3
Atom  20H    basis set group =>   3
Atom  21H    basis set group =>   3
Atom  22H    basis set group =>   3
Atom  23H    basis set group =>   3
Atom  24H    basis set group =>   3
Atom  25H    basis set group =>   3
Atom  26H    basis set group =>   3
Atom  27H    basis set group =>   3
Atom  28H    basis set group =>   3
---------------------------------
AUXILIARY/J BASIS SET INFORMATION
---------------------------------
There are 3 groups of distinct atoms

 Group   1 Type C   : 12s5p4d2f1g contracted to 6s4p3d1f1g pattern {711111/2111/211/2/1}
 Group   2 Type O   : 12s5p4d2f1g contracted to 6s4p3d1f1g pattern {711111/2111/211/2/1}
 Group   3 Type H   : 5s2p1d contracted to 3s1p1d pattern {311/2/1}

Atom   0C    basis set group =>   1
Atom   1C    basis set group =>   1
Atom   2C    basis set group =>   1
Atom   3C    basis set group =>   1
Atom   4C    basis set group =>   1
Atom   5C    basis set group =>   1
Atom   6C    basis set group =>   1
Atom   7C    basis set group =>   1
Atom   8O    basis set group =>   2
Atom   9C    basis set group =>   1
Atom  10C    basis set group =>   1
Atom  11H    basis set group =>   3
Atom  12H    basis set group =>   3
Atom  13H    basis set group =>   3
Atom  14H    basis set group =>   3
Atom  15H    basis set group =>   3
Atom  16H    basis set group =>   3
Atom  17H    basis set group =>   3
Atom  18H    basis set group =>   3
Atom  19H    basis set group =>   3
Atom  20H    basis set group =>   3
Atom  21H    basis set group =>   3
Atom  22H    basis set group =>   3
Atom  23H    basis set group =>   3
Atom  24H    basis set group =>   3
Atom  25H    basis set group =>   3
Atom  26H    basis set group =>   3
Atom  27H    basis set group =>   3
Atom  28H    basis set group =>   3
-------------------------
ECP PARAMETER INFORMATION
-------------------------

 Group 1, Type C  ECP vDZP-ECP (replacing 2 core electrons, lmax=3)
 Group 2, Type O  ECP vDZP-ECP (replacing 2 core electrons, lmax=3)

Atom   0C    ECP group =>   1
Atom   1C    ECP group =>   1
Atom   2C    ECP group =>   1
Atom   3C    ECP group =>   1
Atom   4C    ECP group =>   1
Atom   5C    ECP group =>   1
Atom   6C    ECP group =>   1
Atom   7C    ECP group =>   1
Atom   8O    ECP group =>   2
Atom   9C    ECP group =>   1
Atom  10C    ECP group =>   1



           ************************************************************
           *        Program running with 40 parallel MPI-processes    *
           *              working on a common directory               *
           ************************************************************
------------------------------------------------------------------------------
                             ORCA STARTUP CALCULATIONS
                           -- RI-GTO INTEGRALS CHOSEN --
------------------------------------------------------------------------------
------------------------------------------------------------------------------
                   ___                                                        
                  /   \      - P O W E R E D   B Y -                         
                 /     \                                                     
                 |  |  |   _    _      __       _____    __    __             
                 |  |  |  | |  | |    /  \     |  _  \  |  |  /  |          
                  \  \/   | |  | |   /    \    | | | |  |  | /  /          
                 / \  \   | |__| |  /  /\  \   | |_| |  |  |/  /          
                |  |  |   |  __  | /  /__\  \  |    /   |      \           
                |  |  |   | |  | | |   __   |  |    \   |  |\   \          
                \     /   | |  | | |  |  |  |  | |\  \  |  | \   \       
                 \___/    |_|  |_| |__|  |__|  |_| \__\ |__|  \__/        
                                                                              
                      - O R C A' S   B I G   F R I E N D -                    
                                      &                                       
                       - I N T E G R A L  F E E D E R -                       
                                                                              
 v1 FN, 2020, v2 2021, v3 2022-2024                                           
------------------------------------------------------------------------------


----------------------
SHARK INTEGRAL PACKAGE
----------------------

Number of atoms                             ...     29
Number of basis functions                   ...    233
Number of shells                            ...    109
Maximum angular momentum                    ...      2
Integral batch strategy                     ... SHARK/LIBINT Hybrid
RI-J (if used) integral strategy            ... SPLIT-RIJ (Revised 2003 algorithm where possible)
Printlevel                                  ...      1
Contraction scheme used                     ... SEGMENTED contraction
Prescreening option                         ... SCHWARTZ
   Thresh                                   ... 2.500e-11
   Tcut                                     ... 2.500e-12
   Tpresel                                  ... 2.500e-12 
Coulomb Range Separation                    ... NOT USED
Exchange Range Separation                   ... Long Range
   Mu parameter                             ... 3.000e-01
   Scaling (regular/separated)              ... 1.670e-01 8.330e-01
Multipole approximations                    ... NOT USED
Finite Nucleus Model                        ... NOT USED
CABS basis                                  ... NOT available
Auxiliary Coulomb fitting basis             ... AVAILABLE
   # of basis functions in Aux-J            ...    737
   # of shells in Aux-J                     ...    255
   Maximum angular momentum in Aux-J        ...      4
Auxiliary J/K fitting basis                 ... NOT available
Auxiliary Correlation fitting basis         ... NOT available
Auxiliary 'external' fitting basis          ... NOT available

Checking pre-screening integrals            ... done (  0.0 sec) Dimension = 109
Check shell pair data                       ... done (  0.0 sec)
Shell pair information
Shell pair cut-off parameter TPreSel        ...   2.5e-12
Total number of shell pairs                 ...      5995
Shell pairs after pre-screening             ...      5901
Total number of primitive shell pairs       ...     56362
Primitive shell pairs kept                  ...     43275
          la=0 lb=0:   1699 shell pairs
          la=1 lb=0:   2281 shell pairs
          la=1 lb=1:    788 shell pairs
          la=2 lb=0:    635 shell pairs
          la=2 lb=1:    433 shell pairs
          la=2 lb=2:     65 shell pairs

Calculating one electron integrals          ... done (  0.0 sec)
Calculating ECP integrals                   ... done (  0.1 sec)
Calculating RI/J V-Matrix + Cholesky decomp.... done (  0.0 sec)
Calculating Nuclear repulsion               ... done (  0.0 sec) ENN=    336.085705247086 Eh

Diagonalization of the overlap matrix:
Smallest eigenvalue                        ... 1.105e-03
Time for diagonalization                   ...    0.008 sec
Threshold for overlap eigenvalues          ... 1.000e-07
Number of eigenvalues below threshold      ... 0
Time for construction of square roots      ...    0.004 sec
Total time needed                          ...    0.015 sec

-------------------
DFT GRID GENERATION
-------------------

General Integration Accuracy     IntAcc      ... 4.388
Radial Grid Type                 RadialGrid  ... OptM3 with GC (2021)
Angular Grid (max. ang.)         AngularGrid ... 4 (Lebedev-302)
Angular grid pruning method      GridPruning ... 4 (adaptive)
Weight generation scheme         WeightScheme... mBecke (2022)
Basis function cutoff            BFCut       ... 1.0000e-11
Integration weight cutoff        WCut        ... 1.0000e-14
Partially contracted basis set               ... off
Rotationally invariant grid construction     ... off
Angular grids for H and He will be reduced by one unit

Total number of grid points                  ...   123339
Total number of batches                      ...     1941
Average number of points per batch           ...       63
Average number of grid points per atom       ...     4253

--------------------
COSX GRID GENERATION
--------------------

GRIDX 1
-------
General Integration Accuracy     IntAcc      ... 3.816
Radial Grid Type                 RadialGrid  ... OptM3 with GC (2021)
Angular Grid (max. ang.)         AngularGrid ... 1 (Lebedev-50)
Angular grid pruning method      GridPruning ... 4 (adaptive)
Weight generation scheme         WeightScheme... mBecke (2022)
Basis function cutoff            BFCut       ... 1.0000e-11
Integration weight cutoff        WCut        ... 1.0000e-14
Partially contracted basis set               ... on
Rotationally invariant grid construction     ... off
Angular grids for H and He will be reduced by one unit

Total number of grid points                  ...    15790
Total number of batches                      ...      142
Average number of points per batch           ...      111
Average number of grid points per atom       ...      544
UseSFitting                                  ... on

GRIDX 2
-------
General Integration Accuracy     IntAcc      ... 4.020
Radial Grid Type                 RadialGrid  ... OptM3 with GC (2021)
Angular Grid (max. ang.)         AngularGrid ... 2 (Lebedev-110)
Angular grid pruning method      GridPruning ... 4 (adaptive)
Weight generation scheme         WeightScheme... mBecke (2022)
Basis function cutoff            BFCut       ... 1.0000e-11
Integration weight cutoff        WCut        ... 1.0000e-14
Partially contracted basis set               ... on
Rotationally invariant grid construction     ... off
Angular grids for H and He will be reduced by one unit

Total number of grid points                  ...    32947
Total number of batches                      ...      272
Average number of points per batch           ...      121
Average number of grid points per atom       ...     1136
UseSFitting                                  ... on

GRIDX 3
-------
General Integration Accuracy     IntAcc      ... 4.338
Radial Grid Type                 RadialGrid  ... OptM3 with GC (2021)
Angular Grid (max. ang.)         AngularGrid ... 3 (Lebedev-194)
Angular grid pruning method      GridPruning ... 4 (adaptive)
Weight generation scheme         WeightScheme... mBecke (2022)
Basis function cutoff            BFCut       ... 1.0000e-11
Integration weight cutoff        WCut        ... 1.0000e-14
Partially contracted basis set               ... on
Rotationally invariant grid construction     ... off
Angular grids for H and He will be reduced by one unit

Total number of grid points                  ...    71644
Total number of batches                      ...      576
Average number of points per batch           ...      124
Average number of grid points per atom       ...     2470
UseSFitting                                  ... on
Initializing property integral containers    ... done (  0.0 sec)

SHARK setup successfully completed in   3.5 seconds

Maximum memory used throughout the entire STARTUP-calculation: 36.4 MB


           ************************************************************
           *        Program running with 40 parallel MPI-processes    *
           *              working on a common directory               *
           ************************************************************
-------------------------------------------------------------------------------
                                 ORCA GUESS
                   Start orbitals & Density for SCF / CASSCF
-------------------------------------------------------------------------------

------------
SCF SETTINGS
------------
Hamiltonian:
 Density Functional     Method          .... DFT(GTOs)
 Exchange Functional    Exchange        .... WB97X-V
 Correlation Functional Correlation     .... WB97X-V
 Gradients option       PostSCFGGA      .... off
 Hybrid DFT is turned on
   Fraction HF Exchange ScalHFX         ....  0.167000
   Scaling of DF-GGA-X  ScalDFX         ....  0.000000
   Scaling of DF-GGA-C  ScalDFC         ....  1.000000
   Scaling of DF-LDA-C  ScalLDAC        ....  1.000000
   Perturbative correction              ....  0.000000
 Long-range corrected/Screened/Range-Separated Hybrid DFT is turned on
   Amount of maximum screened exact exchange              ....  0.833000
   Range separation parameter mu (erf(mu*r12)/r12)        ....  0.300000
   NL short-range parameter             ....  6.000000
   NL long-range parameter              ....  0.010000
 RI-approximation to the Coulomb term is turned on
   Number of AuxJ basis functions       .... 737
   RIJ-COSX (HFX calculated with COS-X)).... on


General Settings:
 Integral files         IntName         .... ./output/geraniol/geraniol
 Hartree-Fock type      HFTyp           .... RHF
 Total Charge           Charge          ....    0
 Multiplicity           Mult            ....    1
 Number of Electrons    NEL             ....   64
 Basis Dimension        Dim             ....  233
 Nuclear Repulsion      ENuc            ....    336.0857052471 Eh

Convergence Acceleration:
 AO-DIIS                CNVDIIS         .... on
   Start iteration      DIISMaxIt       ....    12
   Startup error        DIISStart       ....  0.200000
   # of expansion vecs  DIISMaxEq       ....     5
   Bias factor          DIISBfac        ....   1.050
   Max. coefficient     DIISMaxC        ....  10.000
 MO-DIIS                CNVKDIIS        .... off
 Trust-Rad. Augm. Hess. CNVTRAH         .... auto
   Auto Start mean grad. ratio tolernc. ....  1.125000
   Auto Start start iteration           ....    50
   Auto Start num. interpolation iter.  ....    10
   Max. Number of Micro iterations      ....    24
   Max. Number of Macro iterations      .... Maxiter - #DIIS iter
   Number of Davidson start vectors     ....     2
   Converg. threshold    (grad. norm)   ....   1.000e-05
   Grad. Scal. Fac. for Micro threshold ....   0.100
   Minimum threshold for Micro iter.    ....   1.000e-02
   NR start threshold (gradient norm)   ....   1.000e-04
   Initial trust radius                 ....   0.400
   Minimum AH scaling param. (alpha)    ....   1.000
   Maximum AH scaling param. (alpha)    .... 1000.000
   Quad. conv. algorithm                .... NR
   White noise on init. David. guess    .... on
   Maximum white noise                  ....   0.010
   Pseudo random numbers                .... off
   Inactive MOs                         .... canonical
   Orbital update algorithm             .... Taylor
   Preconditioner                       .... Diag
   Full preconditioner red. dimension   ....   250
 SOSCF                  CNVSOSCF        .... on
   Start iteration      SOSCFMaxIt      ....   150
   Startup grad/error   SOSCFStart      ....  0.003300
   Hessian update       SOSCFHessUp     .... L-BFGS
 Level Shifting         CNVShift        .... on
   Level shift para.    LevelShift      ....    0.2500
   Turn off err/grad.   ShiftErr        ....    0.0010
 Zerner damping         CNVZerner       .... off
 Static damping         CNVDamp         .... on
   Fraction old density DampFac         ....    0.7000
   Max. Damping (<1)    DampMax         ....    0.9800
   Min. Damping (>=0)   DampMin         ....    0.0000
   Turn off err/grad.   DampErr         ....    0.1000

SCF Procedure:
 Maximum # iterations   MaxIter         ....   125
 SCF integral mode      SCFMode         .... Direct
   Integral package                     .... SHARK and LIBINT hybrid scheme
 Reset frequency        DirectResetFreq ....    20
 Integral Threshold     Thresh          ....  2.500e-11 Eh
 Primitive CutOff       TCut            ....  2.500e-12 Eh

Convergence Tolerance:
 Convergence Check Mode ConvCheckMode   .... Total+1el-Energy
 Convergence forced     ConvForced      .... 0
 Energy Change          TolE            ....  1.000e-08 Eh
 1-El. energy change                    ....  1.000e-05 Eh
 Orbital Gradient       TolG            ....  1.000e-05
 Orbital Rotation angle TolX            ....  1.000e-05
 DIIS Error             TolErr          ....  5.000e-07

------------------------------
INITIAL GUESS: MODEL POTENTIAL
------------------------------
Loading Hartree-Fock densities                     ... done
Atomic calculation to generate a density for atom 0 (C  with ECP)
  Multiplicity assumed   :    1
  Atomic configuration   : 1s2 2s2 2p2 
  Number of open shells  : 1
  Command: /home/aspe232/Project/Software/ORCA/6_0_1/build/orca ./output/geraniol/geraniol_atom6.inp "" > ./output/geraniol/geraniol_atom6.out
Returned from the atomic calculation with res=0
Atomic calculation to generate a density for atom 8 (O  with ECP)
  Multiplicity assumed   :    3
  Atomic configuration   : 1s2 2s2 2p4 
  Number of open shells  : 1
  Command: /home/aspe232/Project/Software/ORCA/6_0_1/build/orca ./output/geraniol/geraniol_atom8.inp "" > ./output/geraniol/geraniol_atom8.out
Returned from the atomic calculation with res=0
Calculating cut-offs                               ... done
Initializing the effective Hamiltonian             ... done
Setting up the integral package (SHARK)            ... done
Starting the Coulomb interaction                   ... done (   0.1 sec)
Making the grid                                    ... done (   1.0 sec)
Mapping shells                                     ... done
Starting the XC term evaluation                    ... done (   0.1 sec)
  promolecular density results
     # of electrons  =     85.999299756
     EX              =    -42.854698610
     EC              =     -3.435988885
     EX+EC           =    -46.290687495
Transforming the Hamiltonian                       ... done (   0.1 sec)
Diagonalizing the Hamiltonian                      ... done (   0.0 sec)
Back transforming the eigenvectors                 ... done (   0.0 sec)
Now organizing SCF variables                       ... done
                      ------------------
                      INITIAL GUESS DONE (   2.3 sec)
                      ------------------
             **** ENERGY FILE WAS UPDATED (./output/geraniol/geraniol.en.tmp) ****
Finished Guess after   3.0 sec
Maximum memory used throughout the entire GUESS-calculation: 22.7 MB


           ************************************************************
           *        Program running with 40 parallel MPI-processes    *
           *              working on a common directory               *
           ************************************************************

-------------------------------------------------------------------------------------------
                                      ORCA LEAN-SCF
                              memory conserving SCF solver
-------------------------------------------------------------------------------------------

----------------------------------------D-I-I-S--------------------------------------------
Iteration    Energy (Eh)           Delta-E    RMSDP     MaxDP     DIISErr   Damp  Time(sec)
-------------------------------------------------------------------------------------------
               ***  Starting incremental Fock matrix formation  ***
    1    -83.3123480090736166     0.00e+00  3.82e-03  7.13e-02  2.02e-01  0.700   5.0
    2    -83.5118368964254500    -1.99e-01  2.79e-03  5.31e-02  1.16e-01  0.700   3.4
                               ***Turning on AO-DIIS***
    3    -83.6173419218475260    -1.06e-01  1.41e-03  2.84e-02  5.88e-02  0.700   3.4
    4    -83.6795577259852053    -6.22e-02  2.97e-03  5.74e-02  4.13e-02  0.000   3.7
    5    -83.8100537418081899    -1.30e-01  2.41e-04  5.66e-03  3.68e-03  0.000   3.5
    6    -83.8103690392067620    -3.15e-04  1.09e-04  5.75e-03  4.22e-03  0.000   3.2
                              *** Initializing SOSCF ***
---------------------------------------S-O-S-C-F--------------------------------------
Iteration    Energy (Eh)           Delta-E    RMSDP     MaxDP     MaxGrad    Time(sec)
--------------------------------------------------------------------------------------
    7    -83.8104295274266633    -6.05e-05  5.62e-05  1.45e-03  1.52e-03     3.5
               *** Restarting incremental Fock matrix formation ***
    8    -83.8103841115549244     4.54e-05  2.64e-05  3.66e-04  1.83e-04     4.4
    9    -83.8103863972970657    -2.29e-06  1.64e-05  2.45e-04  6.32e-05     4.1
   10    -83.8103867167656063    -3.19e-07  4.66e-06  8.35e-05  3.14e-05     4.2
   11    -83.8103867969216481    -8.02e-08  1.23e-06  3.46e-05  8.82e-06     3.9
   12    -83.8103867890575316     7.86e-09  4.46e-07  1.29e-05  6.15e-06     3.6
                 **** Energy Check signals convergence ****

               *****************************************************
               *                     SUCCESS                       *
               *           SCF CONVERGED AFTER  12 CYCLES          *
               *****************************************************

Recomputing exchange energy using gridx3       ... done (    4.284 sec)
Old exchange energy                            :    -12.276151192 Eh
New exchange energy                            :    -12.276142375 Eh
Exchange energy change after final integration :      0.000008817 Eh
Total energy after final integration           :    -83.810377972 Eh
             **** ENERGY FILE WAS UPDATED (./output/geraniol/geraniol.en.tmp) ****

----------------
TOTAL SCF ENERGY
----------------

Total Energy       :        -83.81037797192965 Eh           -2280.59633 eV

Components:
Nuclear Repulsion  :        336.08570524708557 Eh            9145.35698 eV
Electronic Energy  :       -419.89609203614310 Eh          -11425.95355 eV
One Electron Energy:       -792.06623969112138 Eh          -21553.21813 eV
Two Electron Energy:        372.17014765497828 Eh           10127.26458 eV

Virial components:
Potential Energy   :       -149.45236080978981 Eh           -4066.80549 eV
Kinetic Energy     :         65.64198283786014 Eh            1786.20916 eV
Virial Ratio       :          2.27678010853125

DFT components:
N(Alpha)           :       31.999948684596 electrons
N(Beta)            :       31.999948684596 electrons
N(Total)           :       63.999897369192 electrons
E(X)               :      -12.959687261378 Eh       
E(C)               :       -2.387903898889 Eh       
E(XC)              :      -15.347591160267 Eh       

---------------
SCF CONVERGENCE
---------------

  Last Energy change         ...   -7.8641e-09  Tolerance :   1.0000e-08
  Last MAX-Density change    ...    1.2906e-05  Tolerance :   1.0000e-07
  Last RMS-Density change    ...    4.4566e-07  Tolerance :   5.0000e-09
  Last DIIS Error            ...    1.5235e-03  Tolerance :   5.0000e-07
  Last Orbital Gradient      ...    6.1522e-06  Tolerance :   1.0000e-05
  Last Orbital Rotation      ...    1.0139e-05  Tolerance :   1.0000e-05


----------------
ORBITAL ENERGIES
----------------

  NO   OCC          E(Eh)            E(eV) 
   0   2.0000      -1.146142       -31.1881 
   1   2.0000      -0.968088       -26.3430 
   2   2.0000      -0.945095       -25.7174 
   3   2.0000      -0.888544       -24.1785 
   4   2.0000      -0.848706       -23.0945 
   5   2.0000      -0.826727       -22.4964 
   6   2.0000      -0.808177       -21.9916 
   7   2.0000      -0.760161       -20.6850 
   8   2.0000      -0.734435       -19.9850 
   9   2.0000      -0.645398       -17.5622 
  10   2.0000      -0.632877       -17.2215 
  11   2.0000      -0.627555       -17.0766 
  12   2.0000      -0.595766       -16.2116 
  13   2.0000      -0.571561       -15.5530 
  14   2.0000      -0.562174       -15.2975 
  15   2.0000      -0.546517       -14.8715 
  16   2.0000      -0.541168       -14.7259 
  17   2.0000      -0.534289       -14.5387 
  18   2.0000      -0.524718       -14.2783 
  19   2.0000      -0.504727       -13.7343 
  20   2.0000      -0.501657       -13.6508 
  21   2.0000      -0.493263       -13.4224 
  22   2.0000      -0.486588       -13.2407 
  23   2.0000      -0.478243       -13.0137 
  24   2.0000      -0.467434       -12.7195 
  25   2.0000      -0.453597       -12.3430 
  26   2.0000      -0.447590       -12.1795 
  27   2.0000      -0.433104       -11.7853 
  28   2.0000      -0.421301       -11.4642 
  29   2.0000      -0.383968       -10.4483 
  30   2.0000      -0.335052        -9.1172 
  31   2.0000      -0.319629        -8.6975 
  32   0.0000       0.076338         2.0773 
  33   0.0000       0.077821         2.1176 
  34   0.0000       0.085795         2.3346 
  35   0.0000       0.090998         2.4762 
  36   0.0000       0.095455         2.5975 
  37   0.0000       0.107521         2.9258 
  38   0.0000       0.115676         3.1477 
  39   0.0000       0.116304         3.1648 
  40   0.0000       0.128153         3.4872 
  41   0.0000       0.142947         3.8898 
  42   0.0000       0.148811         4.0494 
*Only the first 10 virtual orbitals were printed.

                    ********************************
                    * MULLIKEN POPULATION ANALYSIS *
                    ********************************

-----------------------
MULLIKEN ATOMIC CHARGES
-----------------------
   0 C :   -0.093921
   1 C :   -0.070628
   2 C :   -0.028412
   3 C :   -0.073435
   4 C :   -0.069198
   5 C :   -0.095292
   6 C :    0.001241
   7 C :    0.042831
   8 O :   -0.332096
   9 C :   -0.093117
  10 C :   -0.094330
  11 H :    0.042712
  12 H :    0.060199
  13 H :    0.036120
  14 H :    0.011066
  15 H :    0.039277
  16 H :    0.046549
  17 H :    0.033328
  18 H :    0.044814
  19 H :    0.017487
  20 H :    0.051688
  21 H :    0.062034
  22 H :    0.172437
  23 H :    0.056181
  24 H :    0.057801
  25 H :    0.030390
  26 H :    0.055694
  27 H :    0.033830
  28 H :    0.054750
Sum of atomic charges:   -0.0000000

--------------------------------
MULLIKEN REDUCED ORBITAL CHARGES
--------------------------------
  0 C s       :     0.956388  s :     0.956388
      pz      :     1.039946  p :     3.064477
      px      :     1.028315
      py      :     0.996216
      dz2     :     0.020964  d :     0.073056
      dxz     :     0.006903
      dyz     :     0.011153
      dx2y2   :     0.016109
      dxy     :     0.017927

  1 C s       :     1.100540  s :     1.100540
      pz      :     0.943484  p :     2.851806
      px      :     0.934660
      py      :     0.973662
      dz2     :     0.014510  d :     0.118283
      dxz     :     0.014418
      dyz     :     0.026862
      dx2y2   :     0.031700
      dxy     :     0.030793

  2 C s       :     1.031653  s :     1.031653
      pz      :     0.992154  p :     2.905936
      px      :     0.945161
      py      :     0.968621
      dz2     :     0.008434  d :     0.090823
      dxz     :     0.012274
      dyz     :     0.021256
      dx2y2   :     0.023735
      dxy     :     0.025124

  3 C s       :     0.996916  s :     0.996916
      pz      :     0.998689  p :     2.974158
      px      :     0.914042
      py      :     1.061427
      dz2     :     0.017029  d :     0.102361
      dxz     :     0.023300
      dyz     :     0.022183
      dx2y2   :     0.027952
      dxy     :     0.011897

  4 C s       :     0.994515  s :     0.994515
      pz      :     1.003532  p :     2.973465
      px      :     0.915124
      py      :     1.054809
      dz2     :     0.014939  d :     0.101218
      dxz     :     0.022066
      dyz     :     0.025113
      dx2y2   :     0.026799
      dxy     :     0.012301

  5 C s       :     1.091951  s :     1.091951
      pz      :     0.969471  p :     2.885044
      px      :     0.966847
      py      :     0.948726
      dz2     :     0.019029  d :     0.118297
      dxz     :     0.015004
      dyz     :     0.023482
      dx2y2   :     0.031547
      dxy     :     0.029234

  6 C s       :     1.032300  s :     1.032300
      pz      :     0.993844  p :     2.881410
      px      :     0.992297
      py      :     0.895269
      dz2     :     0.010995  d :     0.085049
      dxz     :     0.010511
      dyz     :     0.017890
      dx2y2   :     0.025810
      dxy     :     0.019844

  7 C s       :     1.023530  s :     1.023530
      pz      :     0.939852  p :     2.782966
      px      :     0.949297
      py      :     0.893817
      dz2     :     0.033528  d :     0.150674
      dxz     :     0.021279
      dyz     :     0.029229
      dx2y2   :     0.042710
      dxy     :     0.023928

  8 O s       :     1.665919  s :     1.665919
      pz      :     1.579214  p :     4.634231
      px      :     1.317441
      py      :     1.737577
      dz2     :     0.004543  d :     0.031946
      dxz     :     0.012570
      dyz     :     0.006360
      dx2y2   :     0.005414
      dxy     :     0.003060

  9 C s       :     0.957813  s :     0.957813
      pz      :     1.052421  p :     3.061736
      px      :     1.038350
      py      :     0.970965
      dz2     :     0.013264  d :     0.073568
      dxz     :     0.009585
      dyz     :     0.017429
      dx2y2   :     0.016637
      dxy     :     0.016653

 10 C s       :     0.959870  s :     0.959870
      pz      :     1.024401  p :     3.060702
      px      :     0.985364
      py      :     1.050938
      dz2     :     0.019300  d :     0.073757
      dxz     :     0.014748
      dyz     :     0.008201
      dx2y2   :     0.014784
      dxy     :     0.016724

 11 H s       :     0.912004  s :     0.912004
      pz      :     0.012233  p :     0.045284
      px      :     0.022222
      py      :     0.010829

 12 H s       :     0.895205  s :     0.895205
      pz      :     0.023731  p :     0.044596
      px      :     0.010639
      py      :     0.010225

 13 H s       :     0.919706  s :     0.919706
      pz      :     0.010841  p :     0.044173
      px      :     0.014043
      py      :     0.019290

 14 H s       :     0.940487  s :     0.940487
      pz      :     0.015312  p :     0.048447
      px      :     0.014104
      py      :     0.019032

 15 H s       :     0.917040  s :     0.917040
      pz      :     0.018937  p :     0.043683
      px      :     0.009691
      py      :     0.015055

 16 H s       :     0.910993  s :     0.910993
      pz      :     0.011033  p :     0.042458
      px      :     0.009988
      py      :     0.021437

 17 H s       :     0.922729  s :     0.922729
      pz      :     0.012594  p :     0.043943
      px      :     0.009910
      py      :     0.021439

 18 H s       :     0.912885  s :     0.912885
      pz      :     0.017238  p :     0.042300
      px      :     0.009680
      py      :     0.015382

 19 H s       :     0.933487  s :     0.933487
      pz      :     0.017334  p :     0.049026
      px      :     0.021578
      py      :     0.010114

 20 H s       :     0.908144  s :     0.908144
      pz      :     0.021046  p :     0.040168
      px      :     0.007852
      py      :     0.011270

 21 H s       :     0.898010  s :     0.898010
      pz      :     0.010272  p :     0.039955
      px      :     0.020216
      py      :     0.009467

 22 H s       :     0.729599  s :     0.729599
      pz      :     0.029970  p :     0.097963
      px      :     0.036415
      py      :     0.031578

 23 H s       :     0.899962  s :     0.899962
      pz      :     0.022402  p :     0.043857
      px      :     0.010126
      py      :     0.011330

 24 H s       :     0.898172  s :     0.898172
      pz      :     0.012472  p :     0.044027
      px      :     0.021454
      py      :     0.010101

 25 H s       :     0.925673  s :     0.925673
      pz      :     0.013643  p :     0.043937
      px      :     0.014181
      py      :     0.016113

 26 H s       :     0.900242  s :     0.900242
      pz      :     0.012588  p :     0.044064
      px      :     0.017252
      py      :     0.014223

 27 H s       :     0.922016  s :     0.922016
      pz      :     0.010467  p :     0.044155
      px      :     0.011852
      py      :     0.021836

 28 H s       :     0.901268  s :     0.901268
      pz      :     0.021878  p :     0.043982
      px      :     0.010417
      py      :     0.011687



                     *******************************
                     * LOEWDIN POPULATION ANALYSIS *
                     *******************************

----------------------
LOEWDIN ATOMIC CHARGES
----------------------
   0 C :   -0.115688
   1 C :   -0.050924
   2 C :   -0.057552
   3 C :   -0.088784
   4 C :   -0.083483
   5 C :   -0.046107
   6 C :   -0.057928
   7 C :   -0.068534
   8 O :   -0.094767
   9 C :   -0.119089
  10 C :   -0.119978
  11 H :    0.048714
  12 H :    0.054269
  13 H :    0.051124
  14 H :    0.035106
  15 H :    0.048686
  16 H :    0.053317
  17 H :    0.047163
  18 H :    0.053382
  19 H :    0.038824
  20 H :    0.042855
  21 H :    0.055438
  22 H :    0.058883
  23 H :    0.054806
  24 H :    0.055296
  25 H :    0.048072
  26 H :    0.055014
  27 H :    0.047678
  28 H :    0.054208

-------------------------------
LOEWDIN REDUCED ORBITAL CHARGES
-------------------------------
  0 C s       :     0.776384  s :     0.776384
      pz      :     1.052805  p :     3.103803
      px      :     1.050868
      py      :     1.000130
      dz2     :     0.069342  d :     0.235501
      dxz     :     0.022693
      dyz     :     0.032846
      dx2y2   :     0.053186
      dxy     :     0.057435

  1 C s       :     0.801779  s :     0.801779
      pz      :     0.901145  p :     2.873811
      px      :     0.947745
      py      :     1.024921
      dz2     :     0.050031  d :     0.375335
      dxz     :     0.046045
      dyz     :     0.078734
      dx2y2   :     0.102319
      dxy     :     0.098207

  2 C s       :     0.805590  s :     0.805590
      pz      :     0.940904  p :     2.954278
      px      :     0.963163
      py      :     1.050212
      dz2     :     0.030798  d :     0.297683
      dxz     :     0.039492
      dyz     :     0.062262
      dx2y2   :     0.079142
      dxy     :     0.085990

  3 C s       :     0.761472  s :     0.761472
      pz      :     1.007283  p :     3.005216
      px      :     0.945325
      py      :     1.052607
      dz2     :     0.052844  d :     0.322096
      dxz     :     0.069573
      dyz     :     0.074713
      dx2y2   :     0.085673
      dxy     :     0.039294

  4 C s       :     0.762373  s :     0.762373
      pz      :     1.004267  p :     3.002444
      px      :     0.943064
      py      :     1.055113
      dz2     :     0.045345  d :     0.318666
      dxz     :     0.066975
      dyz     :     0.083853
      dx2y2   :     0.082549
      dxy     :     0.039944

  5 C s       :     0.798603  s :     0.798603
      pz      :     0.917596  p :     2.872937
      px      :     0.955972
      py      :     0.999370
      dz2     :     0.054480  d :     0.374567
      dxz     :     0.052047
      dyz     :     0.075004
      dx2y2   :     0.101320
      dxy     :     0.091716

  6 C s       :     0.814772  s :     0.814772
      pz      :     0.965995  p :     2.957769
      px      :     1.004940
      py      :     0.986833
      dz2     :     0.029483  d :     0.285387
      dxz     :     0.038729
      dyz     :     0.062664
      dx2y2   :     0.089229
      dxy     :     0.065281

  7 C s       :     0.760162  s :     0.760162
      pz      :     0.983315  p :     2.866139
      px      :     0.955795
      py      :     0.927030
      dz2     :     0.098358  d :     0.442232
      dxz     :     0.064392
      dyz     :     0.088981
      dx2y2   :     0.121679
      dxy     :     0.068822

  8 O s       :     1.389964  s :     1.389964
      pz      :     1.596264  p :     4.626476
      px      :     1.366508
      py      :     1.663704
      dz2     :     0.010824  d :     0.078327
      dxz     :     0.027918
      dyz     :     0.011673
      dx2y2   :     0.018067
      dxy     :     0.009845

  9 C s       :     0.776721  s :     0.776721
      pz      :     1.067024  p :     3.104601
      px      :     1.052194
      py      :     0.985382
      dz2     :     0.043099  d :     0.237768
      dxz     :     0.030928
      dyz     :     0.055790
      dx2y2   :     0.054403
      dxy     :     0.053547

 10 C s       :     0.778340  s :     0.778340
      pz      :     1.040962  p :     3.103935
      px      :     1.000897
      py      :     1.062076
      dz2     :     0.062111  d :     0.237703
      dxz     :     0.046654
      dyz     :     0.026554
      dx2y2   :     0.045103
      dxy     :     0.057280

 11 H s       :     0.801426  s :     0.801426
      pz      :     0.043908  p :     0.149860
      px      :     0.065054
      py      :     0.040898

 12 H s       :     0.797296  s :     0.797296
      pz      :     0.067424  p :     0.148435
      px      :     0.041214
      py      :     0.039797

 13 H s       :     0.803405  s :     0.803405
      pz      :     0.042013  p :     0.145471
      px      :     0.048002
      py      :     0.055456

 14 H s       :     0.811227  s :     0.811227
      pz      :     0.050762  p :     0.153667
      px      :     0.046778
      py      :     0.056128

 15 H s       :     0.804126  s :     0.804126
      pz      :     0.058618  p :     0.147188
      px      :     0.036636
      py      :     0.051935

 16 H s       :     0.801549  s :     0.801549
      pz      :     0.043024  p :     0.145133
      px      :     0.037499
      py      :     0.064610

 17 H s       :     0.804775  s :     0.804775
      pz      :     0.045664  p :     0.148062
      px      :     0.036647
      py      :     0.065750

 18 H s       :     0.801872  s :     0.801872
      pz      :     0.056017  p :     0.144746
      px      :     0.036467
      py      :     0.052263

 19 H s       :     0.807629  s :     0.807629
      pz      :     0.053417  p :     0.153548
      px      :     0.064780
      py      :     0.035350

 20 H s       :     0.817317  s :     0.817317
      pz      :     0.065324  p :     0.139828
      px      :     0.035133
      py      :     0.039371

 21 H s       :     0.807190  s :     0.807190
      pz      :     0.038133  p :     0.137372
      px      :     0.063288
      py      :     0.035951

 22 H s       :     0.635312  s :     0.635312
      pz      :     0.104519  p :     0.305805
      px      :     0.113369
      py      :     0.087917

 23 H s       :     0.798576  s :     0.798576
      pz      :     0.064143  p :     0.146618
      px      :     0.040961
      py      :     0.041514

 24 H s       :     0.797974  s :     0.797974
      pz      :     0.044732  p :     0.146730
      px      :     0.062783
      py      :     0.039214

 25 H s       :     0.806791  s :     0.806791
      pz      :     0.047904  p :     0.145138
      px      :     0.048351
      py      :     0.048883

 26 H s       :     0.798152  s :     0.798152
      pz      :     0.044434  p :     0.146834
      px      :     0.053487
      py      :     0.048914

 27 H s       :     0.806932  s :     0.806932
      pz      :     0.040442  p :     0.145390
      px      :     0.041311
      py      :     0.063636

 28 H s       :     0.798810  s :     0.798810
      pz      :     0.062943  p :     0.146981
      px      :     0.040051
      py      :     0.043987



                      *****************************
                      * MAYER POPULATION ANALYSIS *
                      *****************************

  NA   - Mulliken gross atomic population
  ZA   - Total nuclear charge
  QA   - Mulliken gross atomic charge
  VA   - Mayer's total valence
  BVA  - Mayer's bonded valence
  FA   - Mayer's free valence

  ATOM       NA         ZA         QA         VA         BVA        FA
  0 C      4.0939     4.0000    -0.0939     3.9785     3.9785    -0.0000
  1 C      4.0706     4.0000    -0.0706     4.0590     4.0590     0.0000
  2 C      4.0284     4.0000    -0.0284     3.9708     3.9708    -0.0000
  3 C      4.0734     4.0000    -0.0734     3.9873     3.9873     0.0000
  4 C      4.0692     4.0000    -0.0692     3.9842     3.9842    -0.0000
  5 C      4.0953     4.0000    -0.0953     4.0633     4.0633    -0.0000
  6 C      3.9988     4.0000     0.0012     3.9510     3.9510     0.0000
  7 C      3.9572     4.0000     0.0428     3.9929     3.9929    -0.0000
  8 O      6.3321     6.0000    -0.3321     2.0086     2.0086    -0.0000
  9 C      4.0931     4.0000    -0.0931     3.9720     3.9720    -0.0000
 10 C      4.0943     4.0000    -0.0943     3.9721     3.9721    -0.0000
 11 H      0.9573     1.0000     0.0427     1.0180     1.0180    -0.0000
 12 H      0.9398     1.0000     0.0602     1.0160     1.0160     0.0000
 13 H      0.9639     1.0000     0.0361     1.0317     1.0317    -0.0000
 14 H      0.9889     1.0000     0.0111     1.0406     1.0406    -0.0000
 15 H      0.9607     1.0000     0.0393     1.0208     1.0208    -0.0000
 16 H      0.9535     1.0000     0.0465     1.0131     1.0131     0.0000
 17 H      0.9667     1.0000     0.0333     1.0209     1.0209    -0.0000
 18 H      0.9552     1.0000     0.0448     1.0188     1.0188    -0.0000
 19 H      0.9825     1.0000     0.0175     1.0513     1.0513     0.0000
 20 H      0.9483     1.0000     0.0517     1.0011     1.0011    -0.0000
 21 H      0.9380     1.0000     0.0620     1.0076     1.0076    -0.0000
 22 H      0.8276     1.0000     0.1724     1.0755     1.0755    -0.0000
 23 H      0.9438     1.0000     0.0562     1.0213     1.0213     0.0000
 24 H      0.9422     1.0000     0.0578     1.0226     1.0226    -0.0000
 25 H      0.9696     1.0000     0.0304     1.0315     1.0315    -0.0000
 26 H      0.9443     1.0000     0.0557     1.0226     1.0226     0.0000
 27 H      0.9662     1.0000     0.0338     1.0306     1.0306     0.0000
 28 H      0.9453     1.0000     0.0547     1.0222     1.0222    -0.0000

  Mayer bond orders larger than 0.100000
B(  0-C ,  1-C ) :   1.0171 B(  0-C , 11-H ) :   0.9851 B(  0-C , 12-H ) :   0.9800 
B(  0-C , 13-H ) :   0.9961 B(  1-C ,  2-C ) :   1.9075 B(  1-C , 10-C ) :   1.0146 
B(  2-C ,  3-C ) :   1.0220 B(  2-C , 14-H ) :   0.9977 B(  3-C ,  4-C ) :   0.9502 
B(  3-C , 15-H ) :   0.9921 B(  3-C , 16-H ) :   0.9970 B(  4-C ,  5-C ) :   1.0190 
B(  4-C , 17-H ) :   0.9936 B(  4-C , 18-H ) :   0.9929 B(  5-C ,  6-C ) :   1.9121 
B(  5-C ,  9-C ) :   1.0170 B(  6-C ,  7-C ) :   1.0066 B(  6-C , 19-H ) :   0.9862 
B(  7-C ,  8-O ) :   0.9517 B(  7-C , 20-H ) :   0.9890 B(  7-C , 21-H ) :   0.9955 
B(  8-O , 22-H ) :   1.0475 B(  9-C , 23-H ) :   0.9848 B(  9-C , 24-H ) :   0.9857 
B(  9-C , 25-H ) :   0.9942 B( 10-C , 26-H ) :   0.9854 B( 10-C , 27-H ) :   0.9951 
B( 10-C , 28-H ) :   0.9853 

-------
TIMINGS
-------

Total SCF time: 0 days 0 hours 0 min 54 sec 

Total time                  ....      54.862 sec
Sum of individual times     ....      52.690 sec  ( 96.0%)

SCF preparation             ....       2.326 sec  (  4.2%)
Fock matrix formation       ....      48.366 sec  ( 88.2%)
  Startup                   ....       0.289 sec  (  0.6% of F)
  Split-RI-J                ....       1.823 sec  (  3.8% of F)
  Chain of spheres X        ....      23.497 sec  ( 48.6% of F)
  XC integration            ....      22.004 sec  ( 45.5% of F)
    XC Preparation          ....       0.000 sec  (  0.0% of XC)
    Basis function eval.    ....       0.539 sec  (  2.4% of XC)
    Density eval.           ....       0.249 sec  (  1.1% of XC)
    XC-Functional eval.     ....       0.173 sec  (  0.8% of XC)
    XC-Potential eval.      ....       0.331 sec  (  1.5% of XC)
Diagonalization             ....       0.000 sec  (  0.0%)
Density matrix formation    ....       0.315 sec  (  0.6%)
Total Energy calculation    ....       0.314 sec  (  0.6%)
Population analysis         ....       0.066 sec  (  0.1%)
Orbital Transformation      ....       0.070 sec  (  0.1%)
Orbital Orthonormalization  ....       0.000 sec  (  0.0%)
DIIS solution               ....       0.979 sec  (  1.8%)
SOSCF solution              ....       0.256 sec  (  0.5%)
Finished LeanSCF after  54.9 sec

Maximum memory used throughout the entire LEANSCF-calculation: 45.5 MB


           ************************************************************
           *        Program running with 40 parallel MPI-processes    *
           *              working on a common directory               *
[...]
 34:   1000.79   0.001392    7.03  0.000434  (-0.015395 -0.012382  0.006613)
 35:   1032.82   0.000591    2.99  0.000179  (-0.007850 -0.005135 -0.009515)
 36:   1049.87   0.001938    9.79  0.000576  (-0.014146 -0.019049  0.003602)
 37:   1066.30   0.000108    0.54  0.000031  (-0.003084 -0.002869  0.003706)
 38:   1087.99   0.007507   37.94  0.002153  ( 0.035284  0.027767  0.011717)
 39:   1094.57   0.017026   86.04  0.004854  (-0.056398 -0.039767 -0.009592)
 40:   1098.37   0.000045    0.23  0.000013  (-0.000385  0.002301  0.002690)
 41:   1128.78   0.000033    0.17  0.000009  ( 0.002101 -0.001150  0.001840)
 42:   1140.22   0.005370   27.14  0.001470  (-0.013302 -0.035000 -0.008222)
 43:   1166.37   0.001953    9.87  0.000523  ( 0.022790  0.000047 -0.001779)
 44:   1195.87   0.001025    5.18  0.000267  (-0.005752  0.011521  0.010076)
 45:   1217.83   0.001211    6.12  0.000310  (-0.011513 -0.013083 -0.002588)
 46:   1270.30   0.000580    2.93  0.000143  ( 0.010121  0.002318  0.005895)
 47:   1289.71   0.000926    4.68  0.000224  ( 0.014343 -0.003799 -0.002001)
 48:   1310.22   0.000259    1.31  0.000062  ( 0.006970 -0.002229 -0.002833)
 49:   1347.40   0.000251    1.27  0.000058  ( 0.007046  0.002437 -0.001561)
 50:   1367.56   0.000404    2.04  0.000092  (-0.004521 -0.008096  0.002489)
 51:   1392.93   0.002779   14.04  0.000623  ( 0.012804  0.021174 -0.003204)
 52:   1407.89   0.004587   23.18  0.001017  ( 0.029899  0.010289 -0.004117)
 53:   1426.18   0.002250   11.37  0.000492  (-0.017327 -0.013703 -0.002076)
 54:   1447.77   0.002397   12.11  0.000517  ( 0.022303  0.004377  0.000299)
 55:   1450.67   0.001444    7.30  0.000311  (-0.011513 -0.008971  0.009874)
 56:   1454.16   0.007128   36.02  0.001530  (-0.005466 -0.038135 -0.006738)
 57:   1459.72   0.002359   11.92  0.000504  (-0.000501  0.019222 -0.011601)
 58:   1502.02   0.000108    0.55  0.000022  ( 0.003018  0.002832  0.002302)
 59:   1508.32   0.000964    4.87  0.000199  ( 0.010344  0.001773 -0.009449)
 60:   1511.29   0.001536    7.76  0.000317  ( 0.014353  0.006032  0.008648)
 61:   1517.36   0.001109    5.60  0.000228  (-0.006693  0.002226  0.013353)
 62:   1522.27   0.004840   24.46  0.000992  (-0.018838 -0.007892 -0.023981)
 63:   1526.06   0.002424   12.25  0.000496  (-0.004888 -0.019543  0.009483)
 64:   1529.23   0.000946    4.78  0.000193  ( 0.013664 -0.002284  0.001079)
 65:   1535.97   0.001428    7.22  0.000290  ( 0.004342 -0.003338 -0.016131)
 66:   1552.32   0.001600    8.08  0.000322  (-0.003004  0.010030  0.014558)
 67:   1797.62   0.003524   17.81  0.000612  ( 0.015508  0.018249 -0.006190)
 68:   1807.45   0.001005    5.08  0.000173  (-0.006557  0.011422 -0.000032)
 69:   3094.62   0.006352   32.10  0.000641  (-0.020638  0.000385  0.014646)
 70:   3097.34   0.002290   11.57  0.000231  ( 0.000345  0.015186 -0.000019)
 71:   3099.88   0.011930   60.29  0.001201  (-0.016325  0.030548 -0.001147)
 72:   3102.73   0.002862   14.46  0.000288  (-0.005306  0.010434 -0.012280)
 73:   3106.54   0.006254   31.60  0.000628  (-0.009744 -0.003994 -0.022745)
 74:   3109.07   0.006641   33.56  0.000667  (-0.022740  0.005037  0.011138)
 75:   3160.51   0.001473    7.44  0.000145  (-0.002955 -0.011237  0.003230)
 76:   3165.25   0.003301   16.68  0.000325  (-0.004724  0.002011  0.017293)
 77:   3169.60   0.000083    0.42  0.000008  (-0.001619 -0.000161 -0.002352)
 78:   3170.86   0.004047   20.45  0.000398  (-0.011758 -0.006296 -0.014847)
 79:   3175.28   0.001783    9.01  0.000175  ( 0.009052  0.000355  0.009651)
 80:   3179.52   0.001917    9.69  0.000188  (-0.002897  0.013404 -0.000270)
 81:   3196.88   0.003480   17.59  0.000340  ( 0.006941  0.013801 -0.010053)
 82:   3207.94   0.003307   16.71  0.000322  (-0.000219  0.016242 -0.007606)
 83:   3208.16   0.001112    5.62  0.000108  (-0.003691 -0.007907  0.005660)
 84:   3213.00   0.005826   29.44  0.000566  ( 0.018951 -0.005183 -0.013412)
 85:   3226.63   0.003341   16.88  0.000323  ( 0.013605  0.001708 -0.011624)
 86:   3955.94   0.008580   43.36  0.000677  (-0.014116  0.001984 -0.021763)

* The epsilon (eps) is given for a Dirac delta lineshape.
** The dipole moment derivative (T) already includes vibrational overlap.

The first frequency considered to be a vibration is 6
The total number of vibrations considered is 81


--------------------------
THERMOCHEMISTRY AT 298.15K
--------------------------

Temperature         ...   298.15 K
Pressure            ...     1.00 atm
Total Mass          ...   154.25 AMU
Quasi RRHO          ...     True
Cut-Off Frequency   ...     1.00 cm^-1

Throughout the following assumptions are being made:
  (1) The electronic state is orbitally nondegenerate
  (2) There are no thermally accessible electronically excited states
  (3) Hindered rotations indicated by low frequency modes are not
      treated as such but are treated as vibrations and this may
      cause some error
  (4) All equations used are the standard statistical mechanics
      equations for an ideal gas
  (5) All vibrations are strictly harmonic

freq.      20.40  E(vib)   ...       0.56 
freq.      34.77  E(vib)   ...       0.54 
freq.      51.54  E(vib)   ...       0.52 
freq.      66.46  E(vib)   ...       0.50 
freq.      96.17  E(vib)   ...       0.47 
freq.     133.03  E(vib)   ...       0.42 
freq.     155.16  E(vib)   ...       0.40 
freq.     181.30  E(vib)   ...       0.37 
freq.     199.33  E(vib)   ...       0.35 
freq.     207.50  E(vib)   ...       0.34 
freq.     290.76  E(vib)   ...       0.27 
freq.     314.07  E(vib)   ...       0.25 
freq.     317.70  E(vib)   ...       0.25 
freq.     360.11  E(vib)   ...       0.22 
freq.     383.09  E(vib)   ...       0.20 
freq.     412.93  E(vib)   ...       0.19 
freq.     479.39  E(vib)   ...       0.15 
freq.     497.44  E(vib)   ...       0.14 
freq.     519.82  E(vib)   ...       0.13 
freq.     550.31  E(vib)   ...       0.12 
freq.     606.30  E(vib)   ...       0.10 
freq.     770.42  E(vib)   ...       0.05 
freq.     834.21  E(vib)   ...       0.04 
freq.     845.56  E(vib)   ...       0.04 
freq.     872.43  E(vib)   ...       0.04 
freq.     906.05  E(vib)   ...       0.03 
freq.     985.14  E(vib)   ...       0.02 
freq.     989.31  E(vib)   ...       0.02 
freq.    1000.79  E(vib)   ...       0.02 
freq.    1032.82  E(vib)   ...       0.02 
freq.    1049.87  E(vib)   ...       0.02 
freq.    1066.30  E(vib)   ...       0.02 
freq.    1087.99  E(vib)   ...       0.02 
freq.    1094.57  E(vib)   ...       0.02 
freq.    1098.37  E(vib)   ...       0.02 
freq.    1128.78  E(vib)   ...       0.01 
freq.    1140.22  E(vib)   ...       0.01 
freq.    1166.37  E(vib)   ...       0.01 
freq.    1195.87  E(vib)   ...       0.01 
freq.    1217.83  E(vib)   ...       0.01 
freq.    1270.30  E(vib)   ...       0.01 
freq.    1289.71  E(vib)   ...       0.01 
freq.    1310.22  E(vib)   ...       0.01 
freq.    1347.40  E(vib)   ...       0.01 
freq.    1367.56  E(vib)   ...       0.01 
freq.    1392.93  E(vib)   ...       0.00 
freq.    1407.89  E(vib)   ...       0.00 
freq.    1426.18  E(vib)   ...       0.00 
freq.    1447.77  E(vib)   ...       0.00 
freq.    1450.67  E(vib)   ...       0.00 
freq.    1454.16  E(vib)   ...       0.00 
freq.    1459.72  E(vib)   ...       0.00 
freq.    1502.02  E(vib)   ...       0.00 
freq.    1508.32  E(vib)   ...       0.00 
freq.    1511.29  E(vib)   ...       0.00 
freq.    1517.36  E(vib)   ...       0.00 
freq.    1522.27  E(vib)   ...       0.00 
freq.    1526.06  E(vib)   ...       0.00 
freq.    1529.23  E(vib)   ...       0.00 
freq.    1535.97  E(vib)   ...       0.00 
freq.    1552.32  E(vib)   ...       0.00 
freq.    1797.62  E(vib)   ...       0.00 
freq.    1807.45  E(vib)   ...       0.00 
freq.    3094.62  E(vib)   ...       0.00 
freq.    3097.34  E(vib)   ...       0.00 
freq.    3099.88  E(vib)   ...       0.00 
freq.    3102.73  E(vib)   ...       0.00 
freq.    3106.54  E(vib)   ...       0.00 
freq.    3109.07  E(vib)   ...       0.00 
freq.    3160.51  E(vib)   ...       0.00 
freq.    3165.25  E(vib)   ...       0.00 
freq.    3169.60  E(vib)   ...       0.00 
freq.    3170.86  E(vib)   ...       0.00 
freq.    3175.28  E(vib)   ...       0.00 
freq.    3179.52  E(vib)   ...       0.00 
freq.    3196.88  E(vib)   ...       0.00 
freq.    3207.94  E(vib)   ...       0.00 
freq.    3208.16  E(vib)   ...       0.00 
freq.    3213.00  E(vib)   ...       0.00 
freq.    3226.63  E(vib)   ...       0.00 
freq.    3955.94  E(vib)   ...       0.00 

------------
INNER ENERGY
------------

The inner energy is: U= E(el) + E(ZPE) + E(vib) + E(rot) + E(trans)
    E(el)   - is the total energy from the electronic structure calculation
              = E(kin-el) + E(nuc-el) + E(el-el) + E(nuc-nuc)
    E(ZPE)  - the the zero temperature vibrational energy from the frequency calculation
    E(vib)  - the the finite temperature correction to E(ZPE) due to population
              of excited vibrational states
    E(rot)  - is the rotational thermal energy
    E(trans)- is the translational thermal energy

Summary of contributions to the inner energy U:
Electronic energy                ...    -83.86299481 Eh
Zero point energy                ...      0.26639677 Eh     167.17 kcal/mol
Thermal vibrational correction   ...      0.01123216 Eh       7.05 kcal/mol
Thermal rotational correction    ...      0.00141627 Eh       0.89 kcal/mol
Thermal translational correction ...      0.00141627 Eh       0.89 kcal/mol
-----------------------------------------------------------------------
Total thermal energy                    -83.58253333 Eh


Summary of corrections to the electronic energy:
(perhaps to be used in another calculation)
Total thermal correction                  0.01406471 Eh       8.83 kcal/mol
Non-thermal (ZPE) correction              0.26639677 Eh     167.17 kcal/mol
-----------------------------------------------------------------------
Total correction                          0.28046148 Eh     175.99 kcal/mol


--------
ENTHALPY
--------

The enthalpy is H = U + kB*T
                kB is Boltzmann's constant
Total thermal energy              ...    -83.58253333 Eh 
Thermal Enthalpy correction       ...      0.00094421 Eh       0.59 kcal/mol
-----------------------------------------------------------------------
Total Enthalpy                    ...    -83.58158912 Eh


Note: Only C1 symmetry has been detected, increase convergence thresholds 
      if your molecule has a higher symmetry. Symmetry factor of 1.0 is   
      used for the rotational entropy correction. 
 

Note: Rotational entropy computed according to Herzberg 
Infrared and Raman Spectra, Chapter V,1, Van Nostrand Reinhold, 1945 
Point Group:  C1, Symmetry Number:   1  
Rotational constants in cm-1:     0.050282     0.016338     0.013065 

Vibrational entropy computed according to the QRRHO of S. Grimme
Chem.Eur.J. 2012 18 9955 using a reference frequency of 100.0 cm-1


-------
ENTROPY
-------

The entropy contributions are T*S = T*(S(el)+S(vib)+S(rot)+S(trans))
     S(el)   - electronic entropy
     S(vib)  - vibrational entropy
     S(rot)  - rotational entropy
     S(trans)- translational entropy
The entropies will be listed as multiplied by the temperature to get
units of energy

Electronic entropy                ...      0.00000000 Eh      0.00 kcal/mol
Vibrational entropy               ...      0.02036105 Eh     12.78 kcal/mol
Rotational entropy                ...      0.01491256 Eh      9.36 kcal/mol
Translational entropy             ...      0.01948509 Eh     12.23 kcal/mol
-----------------------------------------------------------------------
Final entropy term                ...      0.05475870 Eh     34.36 kcal/mol

In case the symmetry of your molecule has not been determined correctly
or in case you have a reason to use a different symmetry number we print 
out the resulting rotational entropy values for sn=1,12:

 non-linear molecules -----------------------------------
|  sn= 1 | S(rot)=       0.01491256 Eh      9.36 kcal/mol|
|  sn= 2 | S(rot)=       0.01425811 Eh      8.95 kcal/mol|
|  sn= 3 | S(rot)=       0.01387528 Eh      8.71 kcal/mol|
|  sn= 4 | S(rot)=       0.01360365 Eh      8.54 kcal/mol|
|  sn= 5 | S(rot)=       0.01339296 Eh      8.40 kcal/mol|
|  sn= 6 | S(rot)=       0.01322082 Eh      8.30 kcal/mol|
|  sn= 7 | S(rot)=       0.01307527 Eh      8.20 kcal/mol|
|  sn= 8 | S(rot)=       0.01294919 Eh      8.13 kcal/mol|
|  sn= 9 | S(rot)=       0.01283799 Eh      8.06 kcal/mol|
|  sn=10 | S(rot)=       0.01273851 Eh      7.99 kcal/mol|
|  sn=11 | S(rot)=       0.01264852 Eh      7.94 kcal/mol|
|  sn=12 | S(rot)=       0.01256636 Eh      7.89 kcal/mol|
 linear molecules ---------------------------------------
|  Dinfh | S(rot)=       0.00942149 Eh      5.91 kcal/mol|
|  Cinfv | S(rot)=       0.01007594 Eh      6.32 kcal/mol|
 --------------------------------------------------------


-------------------
GIBBS FREE ENERGY
-------------------

The Gibbs free energy is G = H - T*S

Total enthalpy                    ...    -83.58158912 Eh 
Total entropy correction          ...     -0.05475870 Eh    -34.36 kcal/mol
-----------------------------------------------------------------------
Final Gibbs free energy         ...    -83.63634782 Eh

For completeness - the Gibbs free energy minus the electronic energy
G-E(el)                           ...      0.22664699 Eh    142.22 kcal/mol


Maximum memory used throughout the entire PROP-calculation: 139.5 MB

--------------------------------
SUGGESTED CITATIONS FOR THIS RUN
--------------------------------

Below you find a list of papers that are relevant to this ORCA run
We neither can nor want to force you to cite these papers, but we appreciate if you do
You receive ORCA, which is the product of decades of hard work by many enthusiastic individuals, for free
The only thing we kindly ask in return is that you cite our papers,
We deeply appreciate it, if you show your appreciation for ORCA by not just citing the generic ORCA reference.

Please note that relegating all ORCA citations to the supporting information does *not* help us.
SI sections are not indexed - citations you put there will not count into any citation statistics
But we need these citations in order to attract the funding resources that allow us to do what we are doing

Therefore, if you are a happy ORCA user, please consider citing a few of the papers listed below in the main body of your paper

In addition to the list printed below, the program has created the file ./output/geraniol/geraniol.bibtex that contains the list in bibtex format
You can import this file easily into all common literature databanks and citation aid programs


List of essential papers. We consider these as the minimum necessary citations

  1. Neese,F.
     Software update: the ORCA program system, version 5.0
     WIRES Comput. Molec. Sci., 2022 12(1)e1606
     doi.org/10.1002/wcms.1606
  2. Mueller,M.; Hansen,A.; Grimme,S.
     wB97X-3c: A composite range-separated hybrid DFT method with a molecule-optimized polarized valence double-zeta basis set
     J. Chem. Phys., 2023 158 014103
     doi.org/10.1063/5.0133026

List of papers to cite with high priority. The work reported in these papers was absolutely
necessary for this run to complete.
Our perspective: the developers of density functionals and basis sets usually get cited in chemistry papers
Good! But without the algorithms to do something with them, the functionals or basis sets would not do anything.
Hence, in our opinion, the algorithm design and method developments papers are equally worthy of getting cited

  1. Neese,F.
     An improvement of the resolution of the identity approximation for the formation of the Coulomb matrix
     J. Comp. Chem., 2003 24(14)1740-1747
     doi.org/10.1002/jcc.10318
  2. Neese,F.; Wennmohs,F.; Hansen,A.; Becker,U.
     Efficient, approximate and parallel Hartree-Fock and hybrid DFT calculations. A 'chain-of-spheres' algorithm for the Hartree-Fock exchange
     Chem. Phys., 2009 356(1-3)98-109
     doi.org/10.1016/j.chemphys.2008.10.036
  3. Bykov,D.; Petrenko,T.; Izsak,R.; Kossmann,S.; Becker,U.; Valeev,E.; Neese,F.
     Efficient implementation of the analytic second derivatives of Hartree-Fock and hybrid DFT energies: a detailed analysis of different approximations
     Molec. Phys., 2015 113 1961-1977
     doi.org/10.1080/00268976.2015.1025114
  4. Helmich-Paris,B.; de Souza,B.; Neese,F.; Izsák,R.
     An improved chain of spheres for exchange algorithm
     J. Chem. Phys., 2021 155 104109
     doi.org/doi: 10.1063/5.0058766.
  5. Neese,F.
     The SHARK Integral Generation and Digestion System
     J. Comp. Chem., 2022  1-16
     doi.org/10.1002/jcc.26942
  6. Caldeweyher,E.; Bannwarth,C.; Grimme,S.
     Extension of the D3 dispersion coefficient model
     J. Chem. Phys., 2017 147 034112
     doi.org/10.1063/1.4993215
  7. Caldeweyher,E.; Ehlert,S.; Hansen,A.; Neugebauer,H.; Spicher,S.; Bannwarth,C.; Grimme,S.
     A generally applicable atomic-charge dependent London dispersion correction
     J. Chem. Phys., 2019 150 154122
     doi.org/10.1063/1.5090222
  8. Caldeweyher,E.; Mewes,J.; Ehlert,S.; Grimme,S.
     Extension and evaluation of the D4 London-dispersion model for periodic systems
     Phys. Chem. Chem. Phys., 2020 22(16)8499-8512
     doi.org/10.1039/D0CP00502A
  9. Wittmann,L.; Gordiy,I.; Friede,M.; Helmich-Paris,B.; Grimme,S.; Hansen,A.; Bursch,M.
     Extension of the D3 and D4 London Dispersion Corrections to the full Actinides Series
     Phys. Chem. Chem. Phys., 2024 26(32)21379-21394
     doi.org/https://doi.org/10.1039/D4CP01514B 

List of suggested additional citations. These are papers that are important in the 'surrounding' of 
of this run, or papers that preceded the highly important papers. If you like your results we are grateful for a citation.

  1. Izsak,R.; Neese,F.
     An overlap fitted chain of spheres exchange method
     J. Chem. Phys., 2011 135 144105
     doi.org/10.1063/1.3646921
  2. Izsak,R.; Hansen,A.; Neese,F.
     The resolution of identity and chain of spheres approximations for the LPNO-CCSD singles Fock term
     Molec. Phys., 2012 110 2413-2417
     doi.org/10.1080/00268976.2012.687466
  3. Neese,F.
     The ORCA program system
     WIRES Comput. Molec. Sci., 2012 2(1)73-78
     doi.org/10.1002/wcms.81
  4. Izsak,R.; Neese,F.; Klopper,W.
     Robust fitting techniques in the chain of spheres approximation to the Fock exchange: The role of the complementary space
     J. Chem. Phys., 2013 139 
     doi.org/10.1063/1.4819264
  5. Neese,F.
     Software update: the ORCA program system, version 4.0
     WIRES Comput. Molec. Sci., 2018 8(1)1-6
     doi.org/10.1002/wcms.1327
  6. Neese,F.; Wennmohs,F.; Becker,U.; Riplinger,C.
     The ORCA quantum chemistry program package
     J. Chem. Phys., 2020 152 Art. No. L224108
     doi.org/10.1063/5.0004608

List of optional additional citations

  1. Neese,F.
     Approximate second-order SCF convergence for spin unrestricted wavefunctions
     Chem. Phys. Lett., 2000 325(1-3)93-98
     doi.org/10.1016/s0009-2614(00)00662-x

Timings for individual modules:

Sum of individual times          ...     1680.264 sec (=  28.004 min)
Startup calculation              ...       99.169 sec (=   1.653 min)   5.9 %
SCF iterations                   ...     1153.101 sec (=  19.218 min)  68.6 %
Property integrals               ...       72.897 sec (=   1.215 min)   4.3 %
SCF Response                     ...       42.660 sec (=   0.711 min)   2.5 %
Property calculations            ...       92.382 sec (=   1.540 min)   5.5 %
SCF Gradient evaluation          ...      219.334 sec (=   3.656 min)  13.1 %
Geometry relaxation              ...        0.722 sec (=   0.012 min)   0.0 %
                             ****ORCA TERMINATED NORMALLY****
TOTAL RUN TIME: 0 days 0 hours 28 minutes 13 seconds 229 msec
