
                                 *****************
                                 * O   R   C   A *
                                 *****************

                                            #,                                       
                                            ###                                      
                                            ####                                     
                                            #####                                    
                                            ######                                   
                                           ########,                                 
                                     ,,################,,,,,                         
                               ,,#################################,,                 
                          ,,##########################################,,             
                       ,#########################################, ''#####,          
                    ,#############################################,,   '####,        
                  ,##################################################,,,,####,       
                ,###########''''           ''''###############################       
              ,#####''   ,,,,##########,,,,          '''####'''          '####       
            ,##' ,,,,###########################,,,                        '##       
           ' ,,###''''                  '''############,,,                           
         ,,##''                                '''############,,,,        ,,,,,,###''
      ,#''                                            '''#######################'''  
     '                                                          ''''####''''         
             ,#######,   #######,   ,#######,      ##                                
            ,#'     '#,  ##    ##  ,#'     '#,    #''#        ,####,   ,####,        
            ##       ##  ##   ,#'  ##            #'  '#       #'       #'  '#        
            ##       ##  #######   ##           ,######,      #####,   #    #        
            '#,     ,#'  ##    ##  '#,     ,#' ,#      #,     #,   #   #,  ,#        
             '#######'   ##     ##  '#######'  #'      '#     '####' # '####'        



                #########################################################
                #                        -***-                          #
                #          Department of theory and spectroscopy        #
                #                                                       #
                #                      Frank Neese                      #
                #                                                       #
                #     Directorship, Architecture, Infrastructure        #
                #                    SHARK, DRIVERS                     #
                #        Core code/Algorithms in most modules           #
                #                                                       #
                #        Max Planck Institute fuer Kohlenforschung      #
                #                Kaiser Wilhelm Platz 1                 #
                #                 D-45470 Muelheim/Ruhr                 #
                #                      Germany                          #
                #                                                       #
                #                  All rights reserved                  #
                #                        -***-                          #
                #########################################################


                         Program Version 6.0.1  -  RELEASE   -


 With contributions from (in alphabetic order):
[Max-Planck-Institut fuer Kohlenforschung]                               
  Daniel Aravena         : Magnetic Suceptibility                        
  Michael Atanasov       : Ab Initio Ligand Field Theory (pilot matlab implementation)
  Alexander A. Auer      : GIAO ZORA, VPT2 properties, NMR spectrum      
  Ute Becker             : All parallelization in ORCA, NUMFREQ, NUMCALC 
  Giovanni Bistoni       : ED, misc. LED, open-shell LED, HFLD           
  Martin Brehm           : Molecular dynamics                            
  Dmytro Bykov           : pre 5.0 version of the SCF Hessian            
  Marcos Casanova-Páez   : Triplet and SCS-CIS(D). UHF-(DLPNO)-IP/EA/STEOM-CCSD. UHF-CVS-IP/STEOM-CCSD   
  Vijay G. Chilkuri      : MRCI spin determinant printing, contributions to CSF-ICE 
  Pauline Colinet        : FMM embedding                                 
  Dipayan Datta          : RHF DLPNO-CCSD density                        
  Achintya Kumar Dutta   : EOM-CC, STEOM-CC                              
  Nicolas Foglia         : Exact transition moments, OPA infrastructure, MCD improvements    
  Dmitry Ganyushin       : Spin-Orbit,Spin-Spin,Magnetic field MRCI      
  Miquel Garcia-Rates    : C-PCM and meta-GGA Hessian, CCSD/C-PCM, Gaussian charge scheme 
  Tiago L. C. Gouveia    : GS-ROHF, GS-ROCIS                             
  Yang Guo               : DLPNO-NEVPT2, F12-NEVPT2, CIM, IAO-localization        
  Andreas Hansen         : Spin unrestricted coupled pair/coupled cluster methods 
  Ingolf Harden          : AUTO-CI MPn and infrastructure                
  Benjamin Helmich-Paris : MC-RPA, TRAH-(SCF,CASSCF), AVAS, COSX integrals, SCF dyn. polar. 
  Lee Huntington         : MR-EOM, pCC                                   
  Robert Izsak           : Overlap fitted RIJCOSX, COSX-SCS-MP3, EOM     
  Riya Kayal             : Wick's Theorem for AUTO-CI, AUTO-CI UHF-CCSDT 
  Emily Kempfer          : AUTO-CI, RHF CISDT and CCSDT                  
  Christian Kollmar      : KDIIS, OOCD, Brueckner-CCSD(T), CCSD density, CASPT2, CASPT2-K, improved NEVPT2 
  Axel Koslowski         : Symmetry handling                             
  Simone Kossmann        : meta-GGA functionals, TD-DFT gradient, OOMP2, (MP2 Hessian; deprecated post 5.0) 
  Lucas Lang             : DCDCAS                                        
  Marvin Lechner         : AUTO-CI (C++ implementation), FIC-MRCC        
  Spencer Leger          : CASSCF response                               
  Dagmar Lenk            : GEPOL surface, SMD, ORCA-2-JSON               
  Dimitrios Liakos       : Extrapolation schemes; Compound Job, initial MDCI parallelization 
  Dimitrios Manganas     : Further ROCIS development; embedding schemes. LFT, Crystal Embedding 
  Dimitrios Pantazis     : SARC Basis sets                               
  Anastasios Papadopoulos: AUTO-CI, single reference methods and gradients 
  Taras Petrenko         : pre 6.0 DFT Hessian and TD-DFT gradient, (ASA, deprecated), ECA, 1-Electron XAS/XES, NRVS 
  Peter Pinski           : DLPNO-MP2, DLPNO-MP2 Gradient                 
  Christoph Reimann      : Effective Core Potentials                     
  Marius Retegan         : Local ZFS, SOC                                
  Christoph Riplinger    : Optimizer, TS searches, QM/MM, DLPNO-CCSD(T), (RO)-DLPNO pert. Triples 
  Michael Roemelt        : Original ROCIS implementation                 
  Masaaki Saitow         : Open-shell DLPNO-CCSD energy and density      
  Barbara Sandhoefer     : DKH picture change effects                    
  Kantharuban Sivalingam : CASSCF convergence/infrastructure, NEVPT2 and variants, FIC-MRCI 
  Bernardo de Souza      : ESD, SOC TD-DFT                               
  Georgi L. Stoychev     : AutoAux, RI-MP2 NMR, DLPNO-MP2 response, X2C  
  Van Anh Tran           : RI-MP2 g-tensors                              
  Willem Van den Heuvel  : Paramagnetic NMR                              
  Zikuan Wang            : NOTCH, Electric field optimization            
  Frank Wennmohs         : Technical directorship and infrastructure     
  Hang Xu                : AUTO-CI-Response properties                   
                                                                         
[FACCTs GmbH]                                                            
  Markus Bursch, Miquel Garcia-Rates, Christoph Riplinger, Bernardo de Souza, Georgi L. Stoychev 
                                                                 
  APM, Basis sets (HGBS, AHGBS, def-TZVP (Ac-Lr), def2-XVPD (La-Lu)), CI-OPT, improved COSX, DLPNO-Multilevel,           
  DOCKER, DRACO, updates on ESD, GOAT, IRC, LR-CPCM, MBIS, meta-GGA TD-DFT gradient, ML-optimized integration grids, 
  MM, NACMEs, nearIR, NEB, NEB-TS, NL-DFT gradient (VV10), 2- and 3-layer-ONIOM, interface openCOSMO-RS, QMMM,   
  Crystal-QMMM, SF, symmetry and pop. for TD-DFT, r2SCAN hybrids, SOLVATOR                                   
                                                                         
[Other institutions]                                                     
  V. Asgeirsson          : NEB                                           
  Christoph Bannwarth    : sTDA-DFT, sTD-DFT, PBEh-3c, B97-3c, D3        
  Sebastian Ehlert       : rSCAN, r2SCAN, r2SCAN-3c, D4, dhf basis sets  
  Marvin Friede          : D4 for Fr, Ra, Ac-Lr                          
  Lars Goerigk           : TD-DFT with DH, B97 family of functionals     
  Stefan Grimme          : VdW corrections, initial TS optimization, DFT functionals, gCP, sTDA/sTD-DF 
  Waldemar Hujo          : DFT-NL                                        
  H. Jonsson             : NEB                                           
  Holger Kruse           : gCP                                           
  Marcel Mueller         : wB97X-3c, vDZP basis set                      
  Hagen Neugebauer       : wr2SCAN                                       
  Tobias Risthaus        : range-separated hybrid DFT                    
  Lukas Wittmann         : regularized MP2, r2SCAN double-hybrids, wr2SCAN        
                                                                         
We gratefully acknowledge several colleagues who have allowed us to      
interface, adapt or use parts of their codes:                            
  Ed Valeev, F. Pavosevic, A. Kumar             : LibInt (2-el integral package), F12 methods 
  Garnet Chan, S. Sharma, J. Yang, R. Olivares  : DMRG                   
  Ulf Ekstrom                                   : XCFun DFT Library      
  Mihaly Kallay                                 : mrcc  (arbitrary order and MRCC methods)
  Frank Weinhold                                : gennbo (NPA and NBO analysis)           
  Simon Mueller                                 : openCOSMO-RS                            
  Christopher J. Cramer and Donald G. Truhlar   : smd solvation model                     
  S Lehtola, MJT Oliveira, MAL Marques          : LibXC Library                           
  Liviu Ungur et al                             : ANISO software                          


 Your calculation uses the libint2 library for the computation of 2-el integrals
 For citations please refer to: http://libint.valeyev.net

 Your ORCA version has been built with support for libXC version: 6.2.2
 For citations please refer to: https://libxc.gitlab.io

 This ORCA versions uses:
   CBLAS   interface :  Fast vector & matrix operations
   LAPACKE interface :  Fast linear algebra routines
   SCALAPACK package :  Parallel linear algebra routines
   Shared memory     :  Shared parallel matrices
   BLAS/LAPACK       :  OpenBLAS 0.3.27  USE64BITINT DYNAMIC_ARCH NO_AFFINITY SkylakeX SINGLE_THREADED
        Core in use  :  SkylakeX
   Copyright (c) 2011-2014, The OpenBLAS Project


Your calculation utilizes the atom-pairwise dispersion correction
based on EEQ partial charges (D4)


================================================================================

cite the ECPs for C  [vDZP-ECP], O  [vDZP-ECP] as follows:
   B-Ne (ecp-2-mwb), Al-Ar (ecp-10-mwb), Ga-Kr (ecp-28-mwb), Y-Cd (ecp-28-mwb), In-Xe (ecp-46-mwb):
     A. Bergner, M. Dolg, W. Küchle, H. Stoll, and H. Preuß, Mol. Phys. 80, 1431 (1993)., T. Leininger, A. Berning, A. Nicklass, H. Stoll, H.-J. Werner, and H.-J.Flad, Chem. Phys. 217, 19 (1997).
   Na-Mg, K-Ca, Rb-Sr, Cs-Ba (CRENBL):
     L. Fernandez Pacios and P. A. Christiansen, J. Chem. Phys. 82, 2664 (1985)., M. M. Hurley, L. F. Pacios, P. A. Christiansen, R. B. Ross, and W. C. Ermler, J. Chem. Phys. 84, 6840 (1986)., L. A. LaJohn, P. A. Christiansen, R. B. Ross, T. Atashroo, and W. C. Ermler, J. Chem. Phys. 87, 2812 (1987)., R. B. Ross, J. M. Powers, T. Atashroo, W. C. Ermler, L. A. LaJohn, and P. A. Christiansen, J. Chem. Phys. 93, 6654 (1990). 
   Sc-Zn (ecp-10-mdf):
     M. Dolg, U. Wedig, H. Stoll, and H. Preuss, J. Chem. Phys. 86, 866 (1986). 
   Y-Cd (ecp-28-mwb), Hf-Hg (ecp-60-mwb):
     D. Andrae, U. Häußermann, M. Dolg, H. Stoll, and H. Preuß, Theor. Chim. Acta 77, 123 (1990). 
   La (ecp-46-mwb):
     M. Dolg, H. Stoll, and H. Preuss, J. Chem. Phys. 90, 1730 (1989)., M. Dolg, H. Stoll, and H. Preuss, Theor. Chim. Acta 85, 441 (1993).
   Ce-Lu (SBKJC-ecp):
     T. R. Cundari and W. J. Stevens, J. Chem. Phys. 98, 5555 (1993).
   Tl-Rn (ecp-78-mwb):
     W. Küchle, M. Dolg, H. Stoll, and H. Preuss, Mol. Phys. 74, 1245 (1991).

ECP parameters for C  [vDZP-ECP], O  [vDZP-ECP] have been obtained from:
MM, AH, SG, J. Chem. Phys. 158, 014103 (2023), 10.1063/5.0133026

----- Orbital basis set information -----
Your calculation utilizes the basis: vDZP
   Marcel Mueller, Andreas Hansen, Stefan Grimme 
   J. Chem. Phys. 158, 014103 (2023). DOI: 10.1063/5.0133026

----- AuxJ basis set information -----
Your calculation utilizes the auxiliary basis: def2/J
   F. Weigend, Phys. Chem. Chem. Phys. 8, 1057 (2006).

================================================================================
                                        WARNINGS
                       Please study these warnings very carefully!
================================================================================

WARNING: Frozen-Core approximation turned on, but there are no core electrons.
  ===> : Turning off frozen-core approximation


WARNING: Geometry Optimization
  ===> : Switching off AutoStart
         For restart on a previous wavefunction, please use MOREAD

================================================================================
                                       INPUT FILE
================================================================================
NAME = ./output/exo_fenchol/exo_fenchol.inp
|  1> ! wB97X-3c OPT FREQ TightSCF
|  2> %pal
|  3>   nprocs 40
|  4> end
|  5> * xyz 0 1
|  6> C     -2.329289     0.383336     0.602142
|  7> C     -1.121681     0.242196    -0.357498
|  8> C     -0.001925     1.312503    -0.112247
|  9> C      0.372864     1.403730     1.382579
| 10> C      1.072824     0.060016     1.642869
| 11> C      1.094307    -0.593085     0.240314
| 12> C      1.240635     0.623240    -0.650822
| 13> C     -0.343994    -1.093766    -0.093483
| 14> O     -0.387555    -1.992768    -1.180462
| 15> C      2.206300    -1.638635     0.081595
| 16> C     -1.669504     0.375549    -1.802721
| 17> H     -2.707383     1.428129     0.595947
| 18> H     -3.154301    -0.291485     0.287392
| 19> H     -2.074538     0.099735     1.644167
| 20> H     -0.203550     2.304680    -0.571544
| 21> H     -0.487334     1.580958     2.057747
| 22> H      1.089553     2.241489     1.536259
| 23> H      2.103786     0.237713     2.022504
| 24> H      0.517768    -0.553176     2.385904
| 25> H      2.176879     1.197911    -0.454491
| 26> H      1.198726     0.393755    -1.735873
| 27> H     -0.756584    -1.639325     0.783888
| 28> H      0.157782    -1.628510    -1.922673
| 29> H      2.275344    -1.990330    -0.968638
| 30> H      2.001969    -2.508870     0.740422
| 31> H      3.189043    -1.202414     0.360588
| 32> H     -2.382682    -0.446815    -2.026150
| 33> H     -0.869247     0.353549    -2.568490
| 34> H     -2.208214     1.340689    -1.919224
| 35> *
| 36> 
| 37>                          ****END OF INPUT****
================================================================================

                       *****************************
                       * Geometry Optimization Run *
                       *****************************

Geometry optimization settings:
Update method            Update   .... BFGS
Choice of coordinates    CoordSys .... (2022) Redundant Internals
Initial Hessian          InHess   .... Almloef's Model
Max. no of cycles        MaxIter  .... 87

Convergence Tolerances:
Energy Change            TolE     ....  5.0000e-06 Eh
Max. Gradient            TolMAXG  ....  3.0000e-04 Eh/bohr
RMS Gradient             TolRMSG  ....  1.0000e-04 Eh/bohr
Max. Displacement        TolMAXD  ....  4.0000e-03 bohr
RMS Displacement         TolRMSD  ....  2.0000e-03 bohr
Strict Convergence                .... False

------------------------------------------------------------------------------
                        ORCA OPTIMIZATION COORDINATE SETUP
------------------------------------------------------------------------------

The optimization will be done in redundant internal coordinates (2022)
Making redundant internal coordinates   ...  (2022 redundants) done
Evaluating the initial hessian          ...  (Almloef) done
Evaluating the coordinates              ...  done
Calculating the B-matrix                .... done
Calculating the G-matrix                .... done
Diagonalizing the G-matrix              .... done
The first mode is                       ....   79
The number of degrees of freedom        ....   81

    -----------------------------------------------------------------
                    Redundant Internal Coordinates


    -----------------------------------------------------------------
         Definition                    Initial Value    Approx d2E/dq
    -----------------------------------------------------------------
      1. B(C   1,C   0)                  1.5489         0.348494   
      2. B(C   2,C   1)                  1.5683         0.324545   
      3. B(C   3,C   2)                  1.5438         0.355118   
      4. B(C   4,C   3)                  1.5373         0.363702   
      5. B(C   5,C   4)                  1.5473         0.350561   
      6. B(C   6,C   5)                  1.5149         0.394855   
      7. B(C   6,C   2)                  1.5196         0.388162   
      8. B(C   7,C   5)                  1.5591         0.335692   
      9. B(C   7,C   1)                  1.5682         0.324645   
     10. B(O   8,C   7)                  1.4112         0.517575   
     11. B(C   9,C   5)                  1.5346         0.367360   
     12. B(C  10,C   1)                  1.5513         0.345445   
     13. B(H  11,C   0)                  1.1111         0.333218   
     14. B(H  12,C   0)                  1.1113         0.332938   
     15. B(H  13,C   0)                  1.1096         0.335121   
     16. B(H  14,C   2)                  1.1118         0.332429   
     17. B(H  15,C   3)                  1.1078         0.337317   
     18. B(H  16,C   3)                  1.1131         0.330743   
     19. B(H  17,C   4)                  1.1129         0.331026   
     20. B(H  18,C   4)                  1.1118         0.332335   
     21. B(H  19,C   6)                  1.1160         0.327356   
     22. B(H  20,C   6)                  1.1098         0.334782   
     23. B(H  21,C   7)                  1.1125         0.331538   
     24. B(H  22,O   8)                  0.9904         0.464961   
     25. B(H  23,C   9)                  1.1097         0.334954   
     26. B(H  24,C   9)                  1.1105         0.334031   
     27. B(H  25,C   9)                  1.1108         0.333591   
     28. B(H  26,C  10)                  1.1112         0.333086   
     29. B(H  27,C  10)                  1.1078         0.337263   
     30. B(H  28,C  10)                  1.1114         0.332838   
     31. A(C   1,C   0,H  12)          110.3635         0.316571   
     32. A(H  11,C   0,H  12)          108.4680         0.283837   
     33. A(H  12,C   0,H  13)          106.3327         0.284088   
     34. A(H  11,C   0,H  13)          108.8869         0.284125   
     35. A(C   1,C   0,H  13)          112.3056         0.316908   
     36. A(C   1,C   0,H  11)          110.3362         0.316614   
     37. A(C   2,C   1,C   7)          101.5948         0.346441   
     38. A(C   0,C   1,C  10)          107.0995         0.354327   
     39. A(C   7,C   1,C  10)          113.9033         0.350104   
     40. A(C   2,C   1,C  10)          109.8256         0.350085   
     41. A(C   0,C   1,C   7)          111.0973         0.350623   
     42. A(C   0,C   1,C   2)          113.4276         0.350605   
     43. A(C   6,C   2,H  14)          113.9960         0.322111   
     44. A(C   1,C   2,C   3)          111.4129         0.351722   
     45. A(C   1,C   2,H  14)          114.5170         0.312855   
     46. A(C   3,C   2,H  14)          113.0362         0.317463   
     47. A(C   1,C   2,C   6)          102.6416         0.357067   
     48. A(C   3,C   2,C   6)           99.8734         0.362585   
     49. A(C   2,C   3,H  15)          114.2729         0.318220   
     50. A(C   2,C   3,C   4)          102.8755         0.358584   
     51. A(H  15,C   3,H  16)          107.1811         0.284084   
     52. A(C   4,C   3,H  16)          109.9564         0.318438   
     53. A(C   2,C   3,H  16)          109.5397         0.317201   
     54. A(C   4,C   3,H  15)          112.9669         0.319462   
     55. A(C   5,C   4,H  18)          112.3286         0.316782   
     56. A(H  17,C   4,H  18)          108.8174         0.283466   
     57. A(C   3,C   4,H  18)          111.5868         0.318687   
     58. A(C   3,C   4,H  17)          109.8760         0.318482   
     59. A(C   5,C   4,H  17)          111.3299         0.316579   
     60. A(C   3,C   4,C   5)          102.8138         0.357797   
     61. A(C   4,C   5,C   6)          101.2831         0.362844   
     62. A(C   6,C   5,C   7)          102.7681         0.360171   
     63. A(C   4,C   5,C   7)          108.4698         0.352965   
     64. A(C   7,C   5,C   9)          115.3116         0.355777   
     65. A(C   6,C   5,C   9)          114.5953         0.365760   
     66. A(C   4,C   5,C   9)          113.0414         0.358406   
     67. A(H  19,C   6,H  20)          108.0689         0.283298   
     68. A(C   5,C   6,H  20)          113.9183         0.323388   
     69. A(C   2,C   6,H  20)          114.1684         0.322483   
     70. A(C   5,C   6,H  19)          113.0172         0.322201   
     71. A(C   2,C   6,H  19)          112.9601         0.321301   
     72. A(C   2,C   6,C   5)           94.3998         0.369232   
     73. A(C   1,C   7,O   8)          113.4348         0.372771   
     74. A(C   5,C   7,O   8)          113.4499         0.374928   
     75. A(C   1,C   7,C   5)          102.7062         0.348416   
     76. A(O   8,C   7,H  21)          106.4751         0.335600   
     77. A(C   5,C   7,H  21)          109.3154         0.314436   
     78. A(C   1,C   7,H  21)          111.5074         0.312735   
     79. A(C   7,O   8,H  22)          109.0209         0.352116   
     80. A(H  23,C   9,H  25)          107.8854         0.284152   
     81. A(C   5,C   9,H  25)          110.3372         0.319405   
     82. A(H  23,C   9,H  24)          108.9401         0.284211   
     83. A(C   5,C   9,H  24)          109.8307         0.319473   
     84. A(H  24,C   9,H  25)          108.7555         0.284031   
     85. A(C   5,C   9,H  23)          111.0329         0.319617   
     86. A(H  27,C  10,H  28)          107.1525         0.284356   
     87. A(H  26,C  10,H  28)          108.0887         0.283806   
     88. A(C   1,C  10,H  28)          110.0882         0.316103   
     89. A(H  26,C  10,H  27)          108.0549         0.284389   
     90. A(C   1,C  10,H  27)          112.7780         0.316783   
     91. A(C   1,C  10,H  26)          110.5081         0.316141   
     92. D(C   2,C   1,C   0,H  13)    -70.2213         0.009792   
     93. D(C   7,C   1,C   0,H  12)    -74.9770         0.009792   
     94. D(C   2,C   1,C   0,H  12)    171.3221         0.009792   
     95. D(C   7,C   1,C   0,H  11)    165.1606         0.009792   
     96. D(C   2,C   1,C   0,H  11)     51.4597         0.009792   
     97. D(C   7,C   1,C   0,H  13)     43.4796         0.009792   
     98. D(C   3,C   2,C   1,C   0)     48.9339         0.008607   
     99. D(C   3,C   2,C   1,C   7)    -70.3653         0.008607   
    100. D(C   6,C   2,C   1,C   0)    154.9983         0.008607   
    101. D(C   6,C   2,C   1,C  10)    -85.2093         0.008607   
    102. D(C   6,C   2,C   1,C   7)     35.6991         0.008607   
    103. D(C   3,C   2,C   1,C  10)    168.7263         0.008607   
    104. D(C   4,C   3,C   2,C   1)     68.9280         0.010138   
    105. D(C   4,C   3,C   2,C   6)    -38.9426         0.010138   
    106. D(C   4,C   3,C   2,H  14)   -160.4470         0.010138   
    107. D(H  15,C   3,C   2,H  14)     76.7224         0.010138   
    108. D(H  15,C   3,C   2,C   6)   -161.7732         0.010138   
    109. D(H  15,C   3,C   2,C   1)    -53.9026         0.010138   
    110. D(H  17,C   4,C   3,H  16)      5.6090         0.010598   
    111. D(H  17,C   4,C   3,H  15)   -114.0741         0.010598   
    112. D(H  17,C   4,C   3,C   2)    122.2247         0.010598   
    113. D(C   5,C   4,C   3,H  15)    127.3134         0.010598   
    114. D(C   5,C   4,C   3,C   2)      3.6122         0.010598   
    115. D(C   5,C   4,C   3,H  16)   -113.0035         0.010598   
    116. D(C   7,C   5,C   4,H  18)     45.5026         0.009899   
    117. D(C   7,C   5,C   4,H  17)    167.8273         0.009899   
    118. D(C   7,C   5,C   4,C   3)    -74.5838         0.009899   
    119. D(C   6,C   5,C   4,C   3)     33.1285         0.009899   
    120. D(C   6,C   5,C   4,H  18)    153.2150         0.009899   
    121. D(C   6,C   5,C   4,H  17)    -84.4604         0.009899   
    122. D(C   5,C   6,C   2,C   1)    -56.1643         0.011984   
    123. D(H  19,C   6,C   5,C   9)    -61.3208         0.012382   
    124. D(H  19,C   6,C   5,C   7)    172.8161         0.012382   
    125. D(H  19,C   6,C   5,C   4)     60.7021         0.012382   
    126. D(C   2,C   6,C   5,C   9)   -178.5642         0.012382   
    127. D(C   2,C   6,C   5,C   7)     55.5727         0.012382   
    128. D(C   2,C   6,C   5,C   4)    -56.5413         0.012382   
    129. D(H  19,C   6,C   2,H  14)     62.1190         0.011984   
    130. D(H  19,C   6,C   2,C   3)    -58.6947         0.011984   
    131. D(H  19,C   6,C   2,C   1)   -173.4547         0.011984   
    132. D(C   5,C   6,C   2,H  14)    179.4095         0.011984   
    133. D(C   5,C   6,C   2,C   3)     58.5958         0.011984   
    134. D(O   8,C   7,C   5,C   9)    -37.1002         0.009146   
    135. D(O   8,C   7,C   5,C   6)     88.2978         0.009146   
    136. D(O   8,C   7,C   5,C   4)   -165.0117         0.009146   
    137. D(C   1,C   7,C   5,C   9)   -159.9335         0.009146   
    138. D(C   1,C   7,C   5,C   6)    -34.5354         0.009146   
    139. D(C   1,C   7,C   5,C   4)     72.1550         0.009146   
    140. D(O   8,C   7,C   1,C  10)     -5.5827         0.008612   
    141. D(O   8,C   7,C   1,C   2)   -123.5936         0.008612   
    142. D(O   8,C   7,C   1,C   0)    115.4629         0.008612   
    143. D(C   5,C   7,C   1,C  10)    117.2607         0.008612   
    144. D(C   5,C   7,C   1,C   2)     -0.7502         0.008612   
    145. D(C   5,C   7,C   1,C   0)   -121.6937         0.008612   
    146. D(H  22,O   8,C   7,H  21)   -166.9388         0.021230   
    147. D(H  22,O   8,C   7,C   5)    -46.6561         0.021230   
    148. D(H  22,O   8,C   7,C   1)     70.0446         0.021230   
    149. D(H  24,C   9,C   5,C   6)   -177.9218         0.010798   
    150. D(H  24,C   9,C   5,C   4)     66.7044         0.010798   
    151. D(H  23,C   9,C   5,C   7)     61.6672         0.010798   
    152. D(H  23,C   9,C   5,C   6)    -57.3685         0.010798   
    153. D(H  24,C   9,C   5,C   7)    -58.8861         0.010798   
    154. D(H  23,C   9,C   5,C   4)   -172.7423         0.010798   
    155. D(H  27,C  10,C   1,C   7)    -60.4558         0.009635   
    156. D(H  27,C  10,C   1,C   2)     52.7157         0.009635   
    157. D(H  27,C  10,C   1,C   0)    176.2953         0.009635   
    158. D(H  26,C  10,C   1,C   7)     60.6054         0.009635   
    159. D(H  26,C  10,C   1,C   2)    173.7769         0.009635   
    160. D(H  26,C  10,C   1,C   0)    -62.6434         0.009635   
    -----------------------------------------------------------------

Number of atoms                         .... 29
Number of degrees of freedom            .... 160


         *************************************************************
         *                GEOMETRY OPTIMIZATION CYCLE   1            *
         *************************************************************
---------------------------------
CARTESIAN COORDINATES (ANGSTROEM)
---------------------------------
  C     -2.329289    0.383336    0.602142
  C     -1.121681    0.242196   -0.357498
  C     -0.001925    1.312503   -0.112247
  C      0.372864    1.403730    1.382579
  C      1.072824    0.060016    1.642869
  C      1.094307   -0.593085    0.240314
  C      1.240635    0.623240   -0.650822
  C     -0.343994   -1.093766   -0.093483
  O     -0.387555   -1.992768   -1.180462
  C      2.206300   -1.638635    0.081595
  C     -1.669504    0.375549   -1.802721
  H     -2.707383    1.428129    0.595947
  H     -3.154301   -0.291485    0.287392
  H     -2.074538    0.099735    1.644167
  H     -0.203550    2.304680   -0.571544
  H     -0.487334    1.580958    2.057747
  H      1.089553    2.241489    1.536259
  H      2.103786    0.237713    2.022504
  H      0.517768   -0.553176    2.385904
  H      2.176879    1.197911   -0.454491
  H      1.198726    0.393755   -1.735873
  H     -0.756584   -1.639325    0.783888
  H      0.157782   -1.628510   -1.922673
  H      2.275344   -1.990330   -0.968638
  H      2.001969   -2.508870    0.740422
  H      3.189043   -1.202414    0.360588
  H     -2.382682   -0.446815   -2.026150
  H     -0.869247    0.353549   -2.568490
  H     -2.208214    1.340689   -1.919224

----------------------------
CARTESIAN COORDINATES (A.U.)
----------------------------
  NO LB      ZA    FRAG     MASS         X           Y           Z
   0 C     4.0000*   0    12.011   -4.401718    0.724400    1.137883
   1 C     4.0000*   0    12.011   -2.119670    0.457684   -0.675573
   2 C     4.0000*   0    12.011   -0.003638    2.480271   -0.212116
   3 C     4.0000*   0    12.011    0.704611    2.652665    2.612696
   4 C     4.0000*   0    12.011    2.027344    0.113414    3.104572
   5 C     4.0000*   0    12.011    2.067941   -1.120768    0.454128
   6 C     4.0000*   0    12.011    2.344460    1.177753   -1.229875
   7 C     4.0000*   0    12.011   -0.650054   -2.066918   -0.176657
   8 O     6.0000*   0    15.999   -0.732373   -3.765786   -2.230750
   9 C     4.0000*   0    12.011    4.169303   -3.096571    0.154192
  10 C     4.0000*   0    12.011   -3.154905    0.709685   -3.406649
  11 H     1.0000    0     1.008   -5.116212    2.698773    1.126177
  12 H     1.0000    0     1.008   -5.960765   -0.550827    0.543092
  13 H     1.0000    0     1.008   -3.920309    0.188472    3.107025
  14 H     1.0000    0     1.008   -0.384654    4.355214   -1.080062
  15 H     1.0000    0     1.008   -0.920928    2.987578    3.888578
  16 H     1.0000    0     1.008    2.058957    4.235800    2.903109
  17 H     1.0000    0     1.008    3.975579    0.449212    3.821979
  18 H     1.0000    0     1.008    0.978440   -1.045351    4.508705
  19 H     1.0000    0     1.008    4.113705    2.263724   -0.858864
  20 H     1.0000    0     1.008    2.265264    0.744089   -3.280325
  21 H     1.0000    0     1.008   -1.429737   -3.097875    1.481334
  22 H     1.0000    0     1.008    0.298165   -3.077438   -3.633325
  23 H     1.0000    0     1.008    4.299777   -3.761179   -1.830461
  24 H     1.0000    0     1.008    3.783173   -4.741077    1.399195
  25 H     1.0000    0     1.008    6.026418   -2.272233    0.681413
  26 H     1.0000    0     1.008   -4.502616   -0.844358   -3.828869
  27 H     1.0000    0     1.008   -1.642639    0.668111   -4.853743
  28 H     1.0000    0     1.008   -4.172920    2.533535   -3.626808
* core charge reduced due to ECP

--------------------------------
INTERNAL COORDINATES (ANGSTROEM)
--------------------------------
 C      0   0   0     0.000000000000     0.00000000     0.00000000
 C      1   0   0     1.548917851554     0.00000000     0.00000000
 C      2   1   0     1.568298003182   113.42757519     0.00000000
 C      3   2   1     1.543792061881   111.41291325    48.93386514
 C      4   3   2     1.537290538414   102.87554804    68.92797291
 C      5   4   3     1.547308296208   102.81378552     3.61218548
 C      6   5   4     1.514919720548   101.28306569    33.12850608
 C      6   5   4     1.559106047571   108.46978680   285.41617887
 O      8   6   5     1.411249624682   113.44988224   194.98827024
 C      6   5   4     1.534566699596   113.04142875   156.22568199
 C      2   1   3     1.551309956671   107.09954168   238.66619175
 H      1   2   3     1.111119194196   110.33617388    51.45967154
 H      1   2   3     1.111348615280   110.36351683   171.32213423
 H      1   2   3     1.109569150539   112.30564954   289.77871327
 H      3   2   1     1.111765071480   114.51696433   279.07979175
 H      4   3   2     1.107791583021   114.27287893   306.09736969
 H      4   3   2     1.113149049859   109.53965303   185.84028629
 H      5   4   3     1.112915811047   109.87601683   122.22467768
 H      5   4   3     1.111841986626   111.58683667   243.01483203
 H      7   6   5     1.115950468138   113.01720885    60.70211787
 H      7   6   5     1.109844764869   113.91834877   184.55546233
 H      8   6   5     1.112494944807   109.31538002   313.64782429
 H      9   8   6     0.990430968142   109.02091102   313.34387011
 H     10   6   5     1.109705276751   111.03288216   187.25768127
 H     10   6   5     1.110456270510   109.83067618    66.70441398
 H     10   6   5     1.110814862585   110.33719371   306.82417564
 H     11   2   1     1.111227216289   110.50807615   297.35656613
 H     11   2   1     1.107834566806   112.77800455   176.29533952
 H     11   2   1     1.111429994516   110.08819181    56.68173306

---------------------------
INTERNAL COORDINATES (A.U.)
---------------------------
 C      0   0   0     0.000000000000     0.00000000     0.00000000
 C      1   0   0     2.927030543380     0.00000000     0.00000000
 C      2   1   0     2.963653722390   113.42757519     0.00000000
 C      3   2   1     2.917344204676   111.41291325    48.93386514
 C      4   3   2     2.905058105870   102.87554804    68.92797291
 C      5   4   3     2.923988924578   102.81378552     3.61218548
 C      6   5   4     2.862783386712   101.28306569    33.12850608
 C      6   5   4     2.946283443649   108.46978680   285.41617887
 O      8   6   5     2.666875297249   113.44988224   194.98827024
 C      6   5   4     2.899910796472   113.04142875   156.22568199
 C      2   1   3     2.931550966934   107.09954168   238.66619175
 H      1   2   3     2.099710979173   110.33617388    51.45967154
 H      1   2   3     2.100144522192   110.36351683   171.32213423
 H      1   2   3     2.096781821166   112.30564954   289.77871327
 H      3   2   1     2.100931510357   114.51696433   279.07979175
 H      4   3   2     2.093422705373   114.27287893   306.09736969
 H      4   3   2     2.103546850468   109.53965303   185.84028629
 H      5   4   3     2.103106092989   109.87601683   122.22467768
 H      5   4   3     2.101076858919   111.58683667   243.01483203
 H      7   6   5     2.108840763803   113.01720885    60.70211787
 H      7   6   5     2.097302656769   113.91834877   184.55546233
 H      8   6   5     2.102310771058   109.31538002   313.64782429
 H      9   8   6     1.871643284342   109.02091102   313.34387011
 H     10   6   5     2.097039062428   111.03288216   187.25768127
 H     10   6   5     2.098458234959   109.83067618    66.70441398
 H     10   6   5     2.099135875774   110.33719371   306.82417564
 H     11   2   1     2.099915111346   110.50807615   297.35656613
 H     11   2   1     2.093503932954   112.77800455   176.29533952
 H     11   2   1     2.100298306660   110.08819181    56.68173306

---------------------
BASIS SET INFORMATION
---------------------
There are 3 groups of distinct atoms

 Group   1 Type C   : 6s6p2d contracted to 2s2p1d pattern {42/42/2}
 Group   2 Type O   : 6s6p2d contracted to 2s2p1d pattern {42/42/2}
 Group   3 Type H   : 8s2p contracted to 2s1p pattern {53/2}

Atom   0C    basis set group =>   1
Atom   1C    basis set group =>   1
Atom   2C    basis set group =>   1
Atom   3C    basis set group =>   1
Atom   4C    basis set group =>   1
Atom   5C    basis set group =>   1
Atom   6C    basis set group =>   1
Atom   7C    basis set group =>   1
Atom   8O    basis set group =>   2
Atom   9C    basis set group =>   1
Atom  10C    basis set group =>   1
Atom  11H    basis set group =>   3
Atom  12H    basis set group =>   3
Atom  13H    basis set group =>   3
Atom  14H    basis set group =>   3
Atom  15H    basis set group =>   3
Atom  16H    basis set group =>   3
Atom  17H    basis set group =>   3
Atom  18H    basis set group =>   3
Atom  19H    basis set group =>   3
Atom  20H    basis set group =>   3
Atom  21H    basis set group =>   3
Atom  22H    basis set group =>   3
Atom  23H    basis set group =>   3
Atom  24H    basis set group =>   3
Atom  25H    basis set group =>   3
Atom  26H    basis set group =>   3
Atom  27H    basis set group =>   3
Atom  28H    basis set group =>   3
---------------------------------
AUXILIARY/J BASIS SET INFORMATION
---------------------------------
There are 3 groups of distinct atoms

 Group   1 Type C   : 12s5p4d2f1g contracted to 6s4p3d1f1g pattern {711111/2111/211/2/1}
 Group   2 Type O   : 12s5p4d2f1g contracted to 6s4p3d1f1g pattern {711111/2111/211/2/1}
 Group   3 Type H   : 5s2p1d contracted to 3s1p1d pattern {311/2/1}

Atom   0C    basis set group =>   1
Atom   1C    basis set group =>   1
Atom   2C    basis set group =>   1
Atom   3C    basis set group =>   1
Atom   4C    basis set group =>   1
Atom   5C    basis set group =>   1
Atom   6C    basis set group =>   1
Atom   7C    basis set group =>   1
Atom   8O    basis set group =>   2
Atom   9C    basis set group =>   1
Atom  10C    basis set group =>   1
Atom  11H    basis set group =>   3
Atom  12H    basis set group =>   3
Atom  13H    basis set group =>   3
Atom  14H    basis set group =>   3
Atom  15H    basis set group =>   3
Atom  16H    basis set group =>   3
Atom  17H    basis set group =>   3
Atom  18H    basis set group =>   3
Atom  19H    basis set group =>   3
Atom  20H    basis set group =>   3
Atom  21H    basis set group =>   3
Atom  22H    basis set group =>   3
Atom  23H    basis set group =>   3
Atom  24H    basis set group =>   3
Atom  25H    basis set group =>   3
Atom  26H    basis set group =>   3
Atom  27H    basis set group =>   3
Atom  28H    basis set group =>   3
-------------------------
ECP PARAMETER INFORMATION
-------------------------

 Group 1, Type C  ECP vDZP-ECP (replacing 2 core electrons, lmax=3)
 Group 2, Type O  ECP vDZP-ECP (replacing 2 core electrons, lmax=3)

Atom   0C    ECP group =>   1
Atom   1C    ECP group =>   1
Atom   2C    ECP group =>   1
Atom   3C    ECP group =>   1
Atom   4C    ECP group =>   1
Atom   5C    ECP group =>   1
Atom   6C    ECP group =>   1
Atom   7C    ECP group =>   1
Atom   8O    ECP group =>   2
Atom   9C    ECP group =>   1
Atom  10C    ECP group =>   1



           ************************************************************
           *        Program running with 40 parallel MPI-processes    *
           *              working on a common directory               *
           ************************************************************
------------------------------------------------------------------------------
                             ORCA STARTUP CALCULATIONS
                           -- RI-GTO INTEGRALS CHOSEN --
------------------------------------------------------------------------------
------------------------------------------------------------------------------
                   ___                                                        
                  /   \      - P O W E R E D   B Y -                         
                 /     \                                                     
                 |  |  |   _    _      __       _____    __    __             
                 |  |  |  | |  | |    /  \     |  _  \  |  |  /  |          
                  \  \/   | |  | |   /    \    | | | |  |  | /  /          
                 / \  \   | |__| |  /  /\  \   | |_| |  |  |/  /          
                |  |  |   |  __  | /  /__\  \  |    /   |      \           
                |  |  |   | |  | | |   __   |  |    \   |  |\   \          
                \     /   | |  | | |  |  |  |  | |\  \  |  | \   \       
                 \___/    |_|  |_| |__|  |__|  |_| \__\ |__|  \__/        
                                                                              
                      - O R C A' S   B I G   F R I E N D -                    
                                      &                                       
                       - I N T E G R A L  F E E D E R -                       
                                                                              
 v1 FN, 2020, v2 2021, v3 2022-2024                                           
------------------------------------------------------------------------------


----------------------
SHARK INTEGRAL PACKAGE
----------------------

Number of atoms                             ...     29
Number of basis functions                   ...    233
Number of shells                            ...    109
Maximum angular momentum                    ...      2
Integral batch strategy                     ... SHARK/LIBINT Hybrid
RI-J (if used) integral strategy            ... SPLIT-RIJ (Revised 2003 algorithm where possible)
Printlevel                                  ...      1
Contraction scheme used                     ... SEGMENTED contraction
Prescreening option                         ... SCHWARTZ
   Thresh                                   ... 2.500e-11
   Tcut                                     ... 2.500e-12
   Tpresel                                  ... 2.500e-12 
Coulomb Range Separation                    ... NOT USED
Exchange Range Separation                   ... Long Range
   Mu parameter                             ... 3.000e-01
   Scaling (regular/separated)              ... 1.670e-01 8.330e-01
Multipole approximations                    ... NOT USED
Finite Nucleus Model                        ... NOT USED
CABS basis                                  ... NOT available
Auxiliary Coulomb fitting basis             ... AVAILABLE
   # of basis functions in Aux-J            ...    737
   # of shells in Aux-J                     ...    255
   Maximum angular momentum in Aux-J        ...      4
Auxiliary J/K fitting basis                 ... NOT available
Auxiliary Correlation fitting basis         ... NOT available
Auxiliary 'external' fitting basis          ... NOT available

Checking pre-screening integrals            ... done (  0.0 sec) Dimension = 109
Check shell pair data                       ... done (  0.0 sec)
Shell pair information
Shell pair cut-off parameter TPreSel        ...   2.5e-12
Total number of shell pairs                 ...      5995
Shell pairs after pre-screening             ...      5995
Total number of primitive shell pairs       ...     56362
Primitive shell pairs kept                  ...     47407
          la=0 lb=0:   1711 shell pairs
          la=1 lb=0:   2320 shell pairs
          la=1 lb=1:    820 shell pairs
          la=2 lb=0:    638 shell pairs
          la=2 lb=1:    440 shell pairs
          la=2 lb=2:     66 shell pairs

Calculating one electron integrals          ... done (  0.0 sec)
Calculating ECP integrals                   ... done (  0.1 sec)
Calculating RI/J V-Matrix + Cholesky decomp.... done (  0.0 sec)
Calculating Nuclear repulsion               ... done (  0.0 sec) ENN=    388.252041210195 Eh

Diagonalization of the overlap matrix:
Smallest eigenvalue                        ... 1.180e-03
Time for diagonalization                   ...    0.008 sec
Threshold for overlap eigenvalues          ... 1.000e-07
Number of eigenvalues below threshold      ... 0
Time for construction of square roots      ...    0.006 sec
Total time needed                          ...    0.017 sec

-------------------
DFT GRID GENERATION
-------------------

General Integration Accuracy     IntAcc      ... 4.388
Radial Grid Type                 RadialGrid  ... OptM3 with GC (2021)
Angular Grid (max. ang.)         AngularGrid ... 4 (Lebedev-302)
Angular grid pruning method      GridPruning ... 4 (adaptive)
Weight generation scheme         WeightScheme... mBecke (2022)
Basis function cutoff            BFCut       ... 1.0000e-11
Integration weight cutoff        WCut        ... 1.0000e-14
Partially contracted basis set               ... off
Rotationally invariant grid construction     ... off
Angular grids for H and He will be reduced by one unit

Total number of grid points                  ...   122198
Total number of batches                      ...     1924
Average number of points per batch           ...       63
Average number of grid points per atom       ...     4214

--------------------
COSX GRID GENERATION
--------------------

GRIDX 1
-------
General Integration Accuracy     IntAcc      ... 3.816
Radial Grid Type                 RadialGrid  ... OptM3 with GC (2021)
Angular Grid (max. ang.)         AngularGrid ... 1 (Lebedev-50)
Angular grid pruning method      GridPruning ... 4 (adaptive)
Weight generation scheme         WeightScheme... mBecke (2022)
Basis function cutoff            BFCut       ... 1.0000e-11
Integration weight cutoff        WCut        ... 1.0000e-14
Partially contracted basis set               ... on
Rotationally invariant grid construction     ... off
Angular grids for H and He will be reduced by one unit

Total number of grid points                  ...    15603
Total number of batches                      ...      139
Average number of points per batch           ...      112
Average number of grid points per atom       ...      538
UseSFitting                                  ... on

GRIDX 2
-------
General Integration Accuracy     IntAcc      ... 4.020
Radial Grid Type                 RadialGrid  ... OptM3 with GC (2021)
Angular Grid (max. ang.)         AngularGrid ... 2 (Lebedev-110)
Angular grid pruning method      GridPruning ... 4 (adaptive)
Weight generation scheme         WeightScheme... mBecke (2022)
Basis function cutoff            BFCut       ... 1.0000e-11
Integration weight cutoff        WCut        ... 1.0000e-14
Partially contracted basis set               ... on
Rotationally invariant grid construction     ... off
Angular grids for H and He will be reduced by one unit

Total number of grid points                  ...    32309
Total number of batches                      ...      265
Average number of points per batch           ...      121
Average number of grid points per atom       ...     1114
UseSFitting                                  ... on

GRIDX 3
-------
General Integration Accuracy     IntAcc      ... 4.338
Radial Grid Type                 RadialGrid  ... OptM3 with GC (2021)
Angular Grid (max. ang.)         AngularGrid ... 3 (Lebedev-194)
Angular grid pruning method      GridPruning ... 4 (adaptive)
Weight generation scheme         WeightScheme... mBecke (2022)
Basis function cutoff            BFCut       ... 1.0000e-11
Integration weight cutoff        WCut        ... 1.0000e-14
Partially contracted basis set               ... on
Rotationally invariant grid construction     ... off
Angular grids for H and He will be reduced by one unit

Total number of grid points                  ...    70202
Total number of batches                      ...      562
Average number of points per batch           ...      124
Average number of grid points per atom       ...     2421
UseSFitting                                  ... on
Initializing property integral containers    ... done (  0.0 sec)

SHARK setup successfully completed in   3.8 seconds

Maximum memory used throughout the entire STARTUP-calculation: 37.1 MB


           ************************************************************
           *        Program running with 40 parallel MPI-processes    *
           *              working on a common directory               *
           ************************************************************
-------------------------------------------------------------------------------
                                 ORCA GUESS
                   Start orbitals & Density for SCF / CASSCF
-------------------------------------------------------------------------------

------------
SCF SETTINGS
------------
Hamiltonian:
 Density Functional     Method          .... DFT(GTOs)
 Exchange Functional    Exchange        .... WB97X-V
 Correlation Functional Correlation     .... WB97X-V
 Gradients option       PostSCFGGA      .... off
 Hybrid DFT is turned on
   Fraction HF Exchange ScalHFX         ....  0.167000
   Scaling of DF-GGA-X  ScalDFX         ....  0.000000
   Scaling of DF-GGA-C  ScalDFC         ....  1.000000
   Scaling of DF-LDA-C  ScalLDAC        ....  1.000000
   Perturbative correction              ....  0.000000
 Long-range corrected/Screened/Range-Separated Hybrid DFT is turned on
   Amount of maximum screened exact exchange              ....  0.833000
   Range separation parameter mu (erf(mu*r12)/r12)        ....  0.300000
   NL short-range parameter             ....  6.000000
   NL long-range parameter              ....  0.010000
 RI-approximation to the Coulomb term is turned on
   Number of AuxJ basis functions       .... 737
   RIJ-COSX (HFX calculated with COS-X)).... on


General Settings:
 Integral files         IntName         .... ./output/exo_fenchol/exo_fenchol
 Hartree-Fock type      HFTyp           .... RHF
 Total Charge           Charge          ....    0
 Multiplicity           Mult            ....    1
 Number of Electrons    NEL             ....   64
 Basis Dimension        Dim             ....  233
 Nuclear Repulsion      ENuc            ....    388.2520412102 Eh

Convergence Acceleration:
 AO-DIIS                CNVDIIS         .... on
   Start iteration      DIISMaxIt       ....    12
   Startup error        DIISStart       ....  0.200000
   # of expansion vecs  DIISMaxEq       ....     5
   Bias factor          DIISBfac        ....   1.050
   Max. coefficient     DIISMaxC        ....  10.000
 MO-DIIS                CNVKDIIS        .... off
 Trust-Rad. Augm. Hess. CNVTRAH         .... auto
   Auto Start mean grad. ratio tolernc. ....  1.125000
   Auto Start start iteration           ....    50
   Auto Start num. interpolation iter.  ....    10
   Max. Number of Micro iterations      ....    24
   Max. Number of Macro iterations      .... Maxiter - #DIIS iter
   Number of Davidson start vectors     ....     2
   Converg. threshold    (grad. norm)   ....   1.000e-05
   Grad. Scal. Fac. for Micro threshold ....   0.100
   Minimum threshold for Micro iter.    ....   1.000e-02
   NR start threshold (gradient norm)   ....   1.000e-04
   Initial trust radius                 ....   0.400
   Minimum AH scaling param. (alpha)    ....   1.000
   Maximum AH scaling param. (alpha)    .... 1000.000
   Quad. conv. algorithm                .... NR
   White noise on init. David. guess    .... on
   Maximum white noise                  ....   0.010
   Pseudo random numbers                .... off
   Inactive MOs                         .... canonical
   Orbital update algorithm             .... Taylor
   Preconditioner                       .... Diag
   Full preconditioner red. dimension   ....   250
 SOSCF                  CNVSOSCF        .... on
   Start iteration      SOSCFMaxIt      ....   150
   Startup grad/error   SOSCFStart      ....  0.003300
   Hessian update       SOSCFHessUp     .... L-BFGS
 Level Shifting         CNVShift        .... on
   Level shift para.    LevelShift      ....    0.2500
   Turn off err/grad.   ShiftErr        ....    0.0010
 Zerner damping         CNVZerner       .... off
 Static damping         CNVDamp         .... on
   Fraction old density DampFac         ....    0.7000
   Max. Damping (<1)    DampMax         ....    0.9800
   Min. Damping (>=0)   DampMin         ....    0.0000
   Turn off err/grad.   DampErr         ....    0.1000

SCF Procedure:
 Maximum # iterations   MaxIter         ....   125
 SCF integral mode      SCFMode         .... Direct
   Integral package                     .... SHARK and LIBINT hybrid scheme
 Reset frequency        DirectResetFreq ....    20
 Integral Threshold     Thresh          ....  2.500e-11 Eh
 Primitive CutOff       TCut            ....  2.500e-12 Eh

Convergence Tolerance:
 Convergence Check Mode ConvCheckMode   .... Total+1el-Energy
 Convergence forced     ConvForced      .... 0
 Energy Change          TolE            ....  1.000e-08 Eh
 1-El. energy change                    ....  1.000e-05 Eh
 Orbital Gradient       TolG            ....  1.000e-05
 Orbital Rotation angle TolX            ....  1.000e-05
 DIIS Error             TolErr          ....  5.000e-07

------------------------------
INITIAL GUESS: MODEL POTENTIAL
------------------------------
Loading Hartree-Fock densities                     ... done
Atomic calculation to generate a density for atom 0 (C  with ECP)
  Multiplicity assumed   :    1
  Atomic configuration   : 1s2 2s2 2p2 
  Number of open shells  : 1
  Command: /home/aspe232/Project/Software/ORCA/6_0_1/build/orca ./output/exo_fenchol/exo_fenchol_atom6.inp "" > ./output/exo_fenchol/exo_fenchol_atom6.out
Returned from the atomic calculation with res=0
Atomic calculation to generate a density for atom 8 (O  with ECP)
  Multiplicity assumed   :    3
  Atomic configuration   : 1s2 2s2 2p4 
  Number of open shells  : 1
  Command: /home/aspe232/Project/Software/ORCA/6_0_1/build/orca ./output/exo_fenchol/exo_fenchol_atom8.inp "" > ./output/exo_fenchol/exo_fenchol_atom8.out
Returned from the atomic calculation with res=0
Calculating cut-offs                               ... done
Initializing the effective Hamiltonian             ... done
Setting up the integral package (SHARK)            ... done
Starting the Coulomb interaction                   ... done (   0.1 sec)
Making the grid                                    ... done (   0.8 sec)
Mapping shells                                     ... done
Starting the XC term evaluation                    ... done (   0.0 sec)
  promolecular density results
     # of electrons  =     85.988115282
     EX              =    -42.937474460
     EC              =     -3.480730261
     EX+EC           =    -46.418204721
Transforming the Hamiltonian                       ... done (   0.0 sec)
Diagonalizing the Hamiltonian                      ... done (   0.0 sec)
Back transforming the eigenvectors                 ... done (   0.0 sec)
Now organizing SCF variables                       ... done
                      ------------------
                      INITIAL GUESS DONE (   2.0 sec)
                      ------------------
             **** ENERGY FILE WAS UPDATED (./output/exo_fenchol/exo_fenchol.en.tmp) ****
Finished Guess after   2.6 sec
Maximum memory used throughout the entire GUESS-calculation: 23.5 MB


           ************************************************************
           *        Program running with 40 parallel MPI-processes    *
           *              working on a common directory               *
           ************************************************************

-------------------------------------------------------------------------------------------
                                      ORCA LEAN-SCF
                              memory conserving SCF solver
-------------------------------------------------------------------------------------------

----------------------------------------D-I-I-S--------------------------------------------
Iteration    Energy (Eh)           Delta-E    RMSDP     MaxDP     DIISErr   Damp  Time(sec)
-------------------------------------------------------------------------------------------
               ***  Starting incremental Fock matrix formation  ***
    1    -83.3529786845528520     0.00e+00  3.82e-03  7.20e-02  2.03e-01  0.700   5.1
    2    -83.5664068545241321    -2.13e-01  2.75e-03  5.29e-02  1.21e-01  0.700   3.9
                               ***Turning on AO-DIIS***
    3    -83.6723160890022655    -1.06e-01  1.42e-03  2.55e-02  6.14e-02  0.700   3.7
    4    -83.7344734558675441    -6.22e-02  3.10e-03  6.07e-02  3.84e-02  0.000   4.2
    5    -83.8658814286862935    -1.31e-01  2.58e-04  5.20e-03  5.47e-03  0.000   4.2
                              *** Initializing SOSCF ***
---------------------------------------S-O-S-C-F--------------------------------------
Iteration    Energy (Eh)           Delta-E    RMSDP     MaxDP     MaxGrad    Time(sec)
--------------------------------------------------------------------------------------
    6    -83.8662568480312984    -3.75e-04  1.23e-04  1.91e-03  1.22e-03     3.8
               *** Restarting incremental Fock matrix formation ***
    7    -83.8663029661730661    -4.61e-05  6.66e-05  1.04e-03  1.84e-04     4.9
    8    -83.8663105090320187    -7.54e-06  3.51e-05  5.68e-04  1.03e-04     4.6
    9    -83.8663117926423638    -1.28e-06  1.11e-05  1.58e-04  3.77e-05     4.9
   10    -83.8663119801502717    -1.88e-07  2.57e-06  7.32e-05  8.13e-06     4.4
   11    -83.8663119745726817     5.58e-09  1.11e-06  3.61e-05  6.35e-06     4.2
                 **** Energy Check signals convergence ****

               *****************************************************
               *                     SUCCESS                       *
               *           SCF CONVERGED AFTER  11 CYCLES          *
               *****************************************************

Recomputing exchange energy using gridx3       ... done (    4.954 sec)
Old exchange energy                            :    -12.308054764 Eh
New exchange energy                            :    -12.308100236 Eh
Exchange energy change after final integration :     -0.000045472 Eh
Total energy after final integration           :    -83.866357447 Eh
             **** ENERGY FILE WAS UPDATED (./output/exo_fenchol/exo_fenchol.en.tmp) ****

----------------
TOTAL SCF ENERGY
----------------

Total Energy       :        -83.86635744706558 Eh           -2282.11961 eV

Components:
Nuclear Repulsion  :        388.25204121019522 Eh           10564.87515 eV
Electronic Energy  :       -472.11835318476790 Eh          -12846.99352 eV
One Electron Energy:       -896.45573492467429 Eh          -24393.80070 eV
Two Electron Energy:        424.33738173990639 Eh           11546.80719 eV

Virial components:
Potential Energy   :       -149.63300960782908 Eh           -4071.72119 eV
Kinetic Energy     :         65.76665216076348 Eh            1789.60159 eV
Virial Ratio       :          2.27521098750866

DFT components:
N(Alpha)           :       32.000108623062 electrons
N(Beta)            :       32.000108623062 electrons
N(Total)           :       64.000217246125 electrons
E(X)               :      -13.016672420370 Eh       
E(C)               :       -2.423572130040 Eh       
E(XC)              :      -15.440244550411 Eh       

---------------
SCF CONVERGENCE
---------------

  Last Energy change         ...   -5.5776e-09  Tolerance :   1.0000e-08
  Last MAX-Density change    ...    3.6095e-05  Tolerance :   1.0000e-07
  Last RMS-Density change    ...    1.1122e-06  Tolerance :   5.0000e-09
  Last DIIS Error            ...    1.2152e-03  Tolerance :   5.0000e-07
  Last Orbital Gradient      ...    6.3468e-06  Tolerance :   1.0000e-05
  Last Orbital Rotation      ...    6.4216e-06  Tolerance :   1.0000e-05


----------------
ORBITAL ENERGIES
----------------

  NO   OCC          E(Eh)            E(eV) 
   0   2.0000      -1.143580       -31.1184 
   1   2.0000      -1.021772       -27.8038 
   2   2.0000      -0.924415       -25.1546 
   3   2.0000      -0.878876       -23.9154 
   4   2.0000      -0.850404       -23.1407 
   5   2.0000      -0.816045       -22.2057 
   6   2.0000      -0.804692       -21.8968 
   7   2.0000      -0.771446       -20.9921 
   8   2.0000      -0.707545       -19.2533 
   9   2.0000      -0.672083       -18.2883 
  10   2.0000      -0.659459       -17.9448 
  11   2.0000      -0.616669       -16.7804 
  12   2.0000      -0.596755       -16.2385 
  13   2.0000      -0.577162       -15.7054 
  14   2.0000      -0.567620       -15.4457 
  15   2.0000      -0.547109       -14.8876 
  16   2.0000      -0.528589       -14.3836 
  17   2.0000      -0.518417       -14.1068 
  18   2.0000      -0.507503       -13.8098 
  19   2.0000      -0.499213       -13.5843 
  20   2.0000      -0.490815       -13.3557 
  21   2.0000      -0.486096       -13.2273 
  22   2.0000      -0.468318       -12.7436 
  23   2.0000      -0.451968       -12.2987 
  24   2.0000      -0.451269       -12.2797 
  25   2.0000      -0.446336       -12.1454 
  26   2.0000      -0.428943       -11.6721 
  27   2.0000      -0.424491       -11.5510 
  28   2.0000      -0.419275       -11.4091 
  29   2.0000      -0.404793       -11.0150 
  30   2.0000      -0.390080       -10.6146 
  31   2.0000      -0.363924        -9.9029 
  32   0.0000       0.079317         2.1583 
  33   0.0000       0.090334         2.4581 
  34   0.0000       0.097879         2.6634 
  35   0.0000       0.100939         2.7467 
  36   0.0000       0.119079         3.2403 
  37   0.0000       0.127317         3.4645 
  38   0.0000       0.130034         3.5384 
  39   0.0000       0.138494         3.7686 
  40   0.0000       0.145281         3.9533 
  41   0.0000       0.159382         4.3370 
  42   0.0000       0.166268         4.5244 
*Only the first 10 virtual orbitals were printed.

                    ********************************
                    * MULLIKEN POPULATION ANALYSIS *
                    ********************************

-----------------------
MULLIKEN ATOMIC CHARGES
-----------------------
   0 C :   -0.039878
   1 C :   -0.206421
   2 C :   -0.028755
   3 C :   -0.056236
   4 C :   -0.029602
   5 C :   -0.197714
   6 C :   -0.018627
   7 C :    0.186410
   8 O :   -0.333863
   9 C :   -0.027739
  10 C :   -0.039311
  11 H :    0.039277
  12 H :    0.041626
  13 H :    0.026062
  14 H :    0.042360
  15 H :    0.036886
  16 H :    0.041756
  17 H :    0.040838
  18 H :    0.036466
  19 H :    0.044210
  20 H :    0.018511
  21 H :    0.041618
  22 H :    0.169344
  23 H :    0.027320
  24 H :    0.042238
  25 H :    0.034209
  26 H :    0.054805
  27 H :    0.016004
  28 H :    0.038208
Sum of atomic charges:   -0.0000000

--------------------------------
MULLIKEN REDUCED ORBITAL CHARGES
--------------------------------
  0 C s       :     0.951825  s :     0.951825
      pz      :     0.993489  p :     3.014311
      px      :     0.980399
      py      :     1.040424
      dz2     :     0.023369  d :     0.073742
      dxz     :     0.012903
      dyz     :     0.006218
      dx2y2   :     0.011349
      dxy     :     0.019904

  1 C s       :     1.090942  s :     1.090942
      pz      :     1.026130  p :     2.979800
      px      :     0.963143
      py      :     0.990526
      dz2     :     0.029820  d :     0.135679
      dxz     :     0.029678
      dyz     :     0.019331
      dx2y2   :     0.023752
      dxy     :     0.033097

  2 C s       :     1.031490  s :     1.031490
      pz      :     0.959947  p :     2.874901
      px      :     0.922171
      py      :     0.992783
      dz2     :     0.026792  d :     0.122365
      dxz     :     0.023265
      dyz     :     0.022221
      dx2y2   :     0.024616
      dxy     :     0.025471

  3 C s       :     0.991667  s :     0.991667
      pz      :     0.965277  p :     2.967809
      px      :     1.025714
      py      :     0.976818
      dz2     :     0.021454  d :     0.096761
      dxz     :     0.022825
      dyz     :     0.015677
      dx2y2   :     0.014134
      dxy     :     0.022669

  4 C s       :     0.990866  s :     0.990866
      pz      :     0.958123  p :     2.943948
      px      :     1.027138
      py      :     0.958687
      dz2     :     0.017292  d :     0.094789
      dxz     :     0.018318
      dyz     :     0.023590
      dx2y2   :     0.018314
      dxy     :     0.017276

  5 C s       :     1.077528  s :     1.077528
      pz      :     1.000046  p :     2.973323
      px      :     0.984018
      py      :     0.989259
      dz2     :     0.029993  d :     0.146863
      dxz     :     0.021181
      dyz     :     0.032505
      dx2y2   :     0.030331
      dxy     :     0.032854

  6 C s       :     0.984542  s :     0.984542
      pz      :     0.985731  p :     2.932620
      px      :     0.981699
      py      :     0.965190
      dz2     :     0.031106  d :     0.101466
      dxz     :     0.009945
      dyz     :     0.017464
      dx2y2   :     0.018172
      dxy     :     0.024778

  7 C s       :     1.048439  s :     1.048439
      pz      :     0.837425  p :     2.602179
      px      :     0.934707
      py      :     0.830047
      dz2     :     0.032403  d :     0.162972
      dxz     :     0.029774
      dyz     :     0.037783
      dx2y2   :     0.028837
      dxy     :     0.034175

  8 O s       :     1.666961  s :     1.666961
      pz      :     1.297168  p :     4.635563
      px      :     1.733867
      py      :     1.604528
      dz2     :     0.003453  d :     0.031339
      dxz     :     0.006867
      dyz     :     0.011480
      dx2y2   :     0.004463
      dxy     :     0.005077

  9 C s       :     0.941354  s :     0.941354
      pz      :     1.029987  p :     3.013409
      px      :     0.981961
      py      :     1.001461
      dz2     :     0.015868  d :     0.072976
      dxz     :     0.006575
      dyz     :     0.018511
      dx2y2   :     0.016624
      dxy     :     0.015399

 10 C s       :     0.950043  s :     0.950043
      pz      :     0.946241  p :     3.015521
      px      :     1.021584
      py      :     1.047696
      dz2     :     0.018023  d :     0.073748
      dxz     :     0.022070
      dyz     :     0.008192
      dx2y2   :     0.006877
      dxy     :     0.018587

 11 H s       :     0.917932  s :     0.917932
      pz      :     0.009655  p :     0.042792
      px      :     0.011307
      py      :     0.021830

 12 H s       :     0.915431  s :     0.915431
      pz      :     0.010789  p :     0.042943
      px      :     0.017455
      py      :     0.014699

 13 H s       :     0.929515  s :     0.929515
      pz      :     0.022194  p :     0.044423
      px      :     0.010695
      py      :     0.011533

 14 H s       :     0.917208  s :     0.917208
      pz      :     0.011277  p :     0.040432
      px      :     0.009425
      py      :     0.019730

 15 H s       :     0.918626  s :     0.918626
      pz      :     0.015104  p :     0.044487
      px      :     0.019067
      py      :     0.010316

 16 H s       :     0.916161  s :     0.916161
      pz      :     0.009647  p :     0.042083
      px      :     0.015400
      py      :     0.017036

 17 H s       :     0.916956  s :     0.916956
      pz      :     0.010415  p :     0.042206
      px      :     0.021357
      py      :     0.010434

 18 H s       :     0.920974  s :     0.920974
      pz      :     0.015538  p :     0.042560
      px      :     0.012994
      py      :     0.014028

 19 H s       :     0.914197  s :     0.914197
      pz      :     0.008910  p :     0.041594
      px      :     0.019126
      py      :     0.013557

 20 H s       :     0.937550  s :     0.937550
      pz      :     0.022752  p :     0.043939
      px      :     0.010134
      py      :     0.011053

 21 H s       :     0.919629  s :     0.919629
      pz      :     0.016440  p :     0.038753
      px      :     0.011461
      py      :     0.010852

 22 H s       :     0.730447  s :     0.730447
      pz      :     0.033435  p :     0.100209
      px      :     0.036967
      py      :     0.029807

 23 H s       :     0.928520  s :     0.928520
      pz      :     0.021744  p :     0.044159
      px      :     0.010676
      py      :     0.011739

 24 H s       :     0.914841  s :     0.914841
      pz      :     0.014346  p :     0.042921
      px      :     0.009935
      py      :     0.018640

 25 H s       :     0.922413  s :     0.922413
      pz      :     0.011047  p :     0.043378
      px      :     0.020806
      py      :     0.011525

 26 H s       :     0.902457  s :     0.902457
      pz      :     0.009629  p :     0.042738
      px      :     0.014934
      py      :     0.018175

 27 H s       :     0.939022  s :     0.939022
      pz      :     0.016833  p :     0.044974
      px      :     0.017109
      py      :     0.011032

 28 H s       :     0.918805  s :     0.918805
      pz      :     0.009538  p :     0.042987
      px      :     0.013319
      py      :     0.020130



                     *******************************
                     * LOEWDIN POPULATION ANALYSIS *
                     *******************************

----------------------
LOEWDIN ATOMIC CHARGES
----------------------
   0 C :   -0.114873
   1 C :   -0.054708
   2 C :   -0.055287
   3 C :   -0.074890
   4 C :   -0.064655
   5 C :   -0.079113
   6 C :   -0.078010
   7 C :   -0.011827
   8 O :   -0.079239
   9 C :   -0.111857
  10 C :   -0.111910
  11 H :    0.047219
  12 H :    0.050716
  13 H :    0.041375
  14 H :    0.042708
  15 H :    0.040391
  16 H :    0.046711
  17 H :    0.048440
  18 H :    0.041874
  19 H :    0.055176
  20 H :    0.037485
  21 H :    0.055344
  22 H :    0.048112
  23 H :    0.043729
  24 H :    0.050992
  25 H :    0.047707
  26 H :    0.052144
  27 H :    0.036827
  28 H :    0.049419

-------------------------------
LOEWDIN REDUCED ORBITAL CHARGES
-------------------------------
  0 C s       :     0.778594  s :     0.778594
      pz      :     1.024509  p :     3.091701
      px      :     1.004074
      py      :     1.063118
      dz2     :     0.078868  d :     0.244577
      dxz     :     0.041487
      dyz     :     0.020809
      dx2y2   :     0.037638
      dxy     :     0.065775

  1 C s       :     0.762487  s :     0.762487
      pz      :     0.962221  p :     2.878728
      px      :     0.952509
      py      :     0.963997
      dz2     :     0.088672  d :     0.413493
      dxz     :     0.088412
      dyz     :     0.062765
      dx2y2   :     0.073541
      dxy     :     0.100103

  2 C s       :     0.756080  s :     0.756080
      pz      :     0.959637  p :     2.910625
      px      :     0.946257
      py      :     1.004731
      dz2     :     0.081650  d :     0.388583
      dxz     :     0.073162
      dyz     :     0.073102
      dx2y2   :     0.079740
      dxy     :     0.080928

  3 C s       :     0.764034  s :     0.764034
      pz      :     0.971603  p :     2.995695
      px      :     1.035374
      py      :     0.988718
      dz2     :     0.067280  d :     0.315161
      dxz     :     0.075040
      dyz     :     0.052850
      dx2y2   :     0.046377
      dxy     :     0.073614

  4 C s       :     0.764120  s :     0.764120
      pz      :     0.977816  p :     2.990639
      px      :     1.039817
      py      :     0.973006
      dz2     :     0.054964  d :     0.309896
      dxz     :     0.062883
      dyz     :     0.078341
      dx2y2   :     0.060543
      dxy     :     0.053164

  5 C s       :     0.748601  s :     0.748601
      pz      :     0.960254  p :     2.881232
      px      :     0.959837
      py      :     0.961141
      dz2     :     0.092810  d :     0.449280
      dxz     :     0.068048
      dyz     :     0.095078
      dx2y2   :     0.091572
      dxy     :     0.101773

  6 C s       :     0.753087  s :     0.753087
      pz      :     1.014249  p :     2.986113
      px      :     0.997559
      py      :     0.974305
      dz2     :     0.108367  d :     0.338810
      dxz     :     0.031782
      dyz     :     0.055220
      dx2y2   :     0.060327
      dxy     :     0.083113

  7 C s       :     0.754118  s :     0.754118
      pz      :     0.884070  p :     2.773245
      px      :     0.973424
      py      :     0.915751
      dz2     :     0.088609  d :     0.484464
      dxz     :     0.085952
      dyz     :     0.120761
      dx2y2   :     0.088490
      dxy     :     0.100652

  8 O s       :     1.383782  s :     1.383782
      pz      :     1.344316  p :     4.617716
      px      :     1.671049
      py      :     1.602351
      dz2     :     0.014707  d :     0.077741
      dxz     :     0.020612
      dyz     :     0.025476
      dx2y2   :     0.007791
      dxy     :     0.009155

  9 C s       :     0.777068  s :     0.777068
      pz      :     1.059700  p :     3.093242
      px      :     1.010043
      py      :     1.023500
      dz2     :     0.050822  d :     0.241548
      dxz     :     0.022714
      dyz     :     0.061156
      dx2y2   :     0.057791
      dxy     :     0.049065

 10 C s       :     0.777396  s :     0.777396
      pz      :     0.977621  p :     3.090371
      px      :     1.045523
      py      :     1.067228
      dz2     :     0.060493  d :     0.244143
      dxz     :     0.072455
      dyz     :     0.029071
      dx2y2   :     0.021716
      dxy     :     0.060408

 11 H s       :     0.807941  s :     0.807941
      pz      :     0.038689  p :     0.144840
      px      :     0.042722
      py      :     0.063428

 12 H s       :     0.803798  s :     0.803798
      pz      :     0.041496  p :     0.145485
      px      :     0.054641
      py      :     0.049348

 13 H s       :     0.809996  s :     0.809996
      pz      :     0.064198  p :     0.148629
      px      :     0.041388
      py      :     0.043044

 14 H s       :     0.810794  s :     0.810794
      pz      :     0.044534  p :     0.146499
      px      :     0.038975
      py      :     0.062990

 15 H s       :     0.808517  s :     0.808517
      pz      :     0.049659  p :     0.151092
      px      :     0.060076
      py      :     0.041357

 16 H s       :     0.806920  s :     0.806920
      pz      :     0.039474  p :     0.146369
      px      :     0.051775
      py      :     0.055120

 17 H s       :     0.806682  s :     0.806682
      pz      :     0.040907  p :     0.144879
      px      :     0.064356
      py      :     0.039615

 18 H s       :     0.810811  s :     0.810811
      pz      :     0.051603  p :     0.147315
      px      :     0.046926
      py      :     0.048786

 19 H s       :     0.803607  s :     0.803607
      pz      :     0.036988  p :     0.141216
      px      :     0.058009
      py      :     0.046220

 20 H s       :     0.813713  s :     0.813713
      pz      :     0.066062  p :     0.148802
      px      :     0.040058
      py      :     0.042681

 21 H s       :     0.808055  s :     0.808055
      pz      :     0.053577  p :     0.136600
      px      :     0.042625
      py      :     0.040399

 22 H s       :     0.641198  s :     0.641198
      pz      :     0.099758  p :     0.310690
      px      :     0.113418
      py      :     0.097514

 23 H s       :     0.809066  s :     0.809066
      pz      :     0.063663  p :     0.147205
      px      :     0.040684
      py      :     0.042858

 24 H s       :     0.804111  s :     0.804111
      pz      :     0.048395  p :     0.144897
      px      :     0.039556
      py      :     0.056946

 25 H s       :     0.807349  s :     0.807349
      pz      :     0.042080  p :     0.144944
      px      :     0.060030
      py      :     0.042834

 26 H s       :     0.801646  s :     0.801646
      pz      :     0.038528  p :     0.146211
      px      :     0.051293
      py      :     0.056390

 27 H s       :     0.812796  s :     0.812796
      pz      :     0.052126  p :     0.150377
      px      :     0.056070
      py      :     0.042181

 28 H s       :     0.805331  s :     0.805331
      pz      :     0.037970  p :     0.145250
      px      :     0.046915
      py      :     0.060365



                      *****************************
                      * MAYER POPULATION ANALYSIS *
                      *****************************

  NA   - Mulliken gross atomic population
  ZA   - Total nuclear charge
  QA   - Mulliken gross atomic charge
  VA   - Mayer's total valence
  BVA  - Mayer's bonded valence
  FA   - Mayer's free valence

  ATOM       NA         ZA         QA         VA         BVA        FA
  0 C      4.0399     4.0000    -0.0399     3.9571     3.9571    -0.0000
  1 C      4.2064     4.0000    -0.2064     4.0283     4.0283    -0.0000
  2 C      4.0288     4.0000    -0.0288     3.9481     3.9481    -0.0000
  3 C      4.0562     4.0000    -0.0562     3.9785     3.9785     0.0000
  4 C      4.0296     4.0000    -0.0296     3.9516     3.9516     0.0000
  5 C      4.1977     4.0000    -0.1977     4.0440     4.0440    -0.0000
  6 C      4.0186     4.0000    -0.0186     3.9221     3.9221    -0.0000
  7 C      3.8136     4.0000     0.1864     3.8820     3.8820    -0.0000
  8 O      6.3339     6.0000    -0.3339     2.0152     2.0152     0.0000
  9 C      4.0277     4.0000    -0.0277     3.9812     3.9812    -0.0000
 10 C      4.0393     4.0000    -0.0393     3.9695     3.9695    -0.0000
 11 H      0.9607     1.0000     0.0393     1.0230     1.0230     0.0000
 12 H      0.9584     1.0000     0.0416     1.0263     1.0263    -0.0000
 13 H      0.9739     1.0000     0.0261     1.0220     1.0220    -0.0000
 14 H      0.9576     1.0000     0.0424     1.0219     1.0219    -0.0000
 15 H      0.9631     1.0000     0.0369     1.0228     1.0228     0.0000
 16 H      0.9582     1.0000     0.0418     1.0141     1.0141     0.0000
 17 H      0.9592     1.0000     0.0408     1.0190     1.0190    -0.0000
 18 H      0.9635     1.0000     0.0365     1.0262     1.0262     0.0000
 19 H      0.9558     1.0000     0.0442     1.0255     1.0255    -0.0000
 20 H      0.9815     1.0000     0.0185     1.0343     1.0343    -0.0000
 21 H      0.9584     1.0000     0.0416     1.0231     1.0231    -0.0000
 22 H      0.8307     1.0000     0.1693     1.0790     1.0790     0.0000
 23 H      0.9727     1.0000     0.0273     1.0332     1.0332    -0.0000
 24 H      0.9578     1.0000     0.0422     1.0278     1.0278    -0.0000
 25 H      0.9658     1.0000     0.0342     1.0217     1.0217    -0.0000
 26 H      0.9452     1.0000     0.0548     1.0218     1.0218    -0.0000
 27 H      0.9840     1.0000     0.0160     1.0294     1.0294    -0.0000
 28 H      0.9618     1.0000     0.0382     1.0261     1.0261    -0.0000

  Mayer bond orders larger than 0.100000
B(  0-C ,  1-C ) :   1.0158 B(  0-C , 11-H ) :   0.9938 B(  0-C , 12-H ) :   0.9947 
B(  0-C , 13-H ) :   0.9973 B(  1-C ,  2-C ) :   0.9721 B(  1-C ,  7-C ) :   0.9502 
B(  1-C , 10-C ) :   1.0196 B(  2-C ,  3-C ) :   0.9965 B(  2-C ,  6-C ) :   0.9882 
[...]
 34:   1003.62   0.000384    1.94  0.000119  (-0.010044  0.003617 -0.002327)
 35:   1016.17   0.000628    3.17  0.000193  (-0.013021 -0.003766 -0.003025)
 36:   1031.87   0.000601    3.04  0.000182  ( 0.006316  0.011807  0.001553)
 37:   1038.80   0.000218    1.10  0.000066  ( 0.005153  0.006084 -0.001418)
 38:   1066.65   0.000685    3.46  0.000200  ( 0.003031  0.009931  0.009626)
 39:   1107.61   0.007068   35.72  0.001991  (-0.002867 -0.033592 -0.029236)
 40:   1154.92   0.006903   34.89  0.001865  ( 0.006939  0.036055  0.022742)
 41:   1159.74   0.010653   53.83  0.002866  ( 0.000298 -0.039257 -0.036404)
 42:   1192.39   0.000649    3.28  0.000170  ( 0.005109  0.007014  0.009727)
 43:   1202.02   0.002852   14.41  0.000740  ( 0.011014  0.014194  0.020438)
 44:   1217.81   0.002104   10.63  0.000539  ( 0.003842 -0.020401 -0.010405)
 45:   1249.62   0.000613    3.10  0.000153  (-0.000303 -0.009388 -0.008060)
 46:   1275.86   0.000420    2.12  0.000103  (-0.009402  0.001965  0.003242)
 47:   1280.56   0.000748    3.78  0.000182  (-0.004396 -0.007825 -0.010089)
 48:   1299.53   0.000860    4.35  0.000207  (-0.001049  0.013615  0.004478)
 49:   1308.19   0.000620    3.13  0.000148  (-0.001560 -0.006866 -0.009912)
 50:   1316.26   0.000843    4.26  0.000200  (-0.000506 -0.005268 -0.013108)
 51:   1331.64   0.000348    1.76  0.000082  (-0.000077  0.006664  0.006102)
 52:   1343.59   0.000128    0.64  0.000030  ( 0.003284  0.003262  0.002863)
 53:   1367.61   0.000226    1.14  0.000052  ( 0.001983 -0.005424  0.004279)
 54:   1393.10   0.000169    0.86  0.000038  (-0.002579 -0.005045 -0.002410)
 55:   1405.13   0.000285    1.44  0.000063  ( 0.005122 -0.006051  0.000722)
 56:   1434.46   0.002461   12.44  0.000535  ( 0.006663  0.000857 -0.022144)
 57:   1449.43   0.003193   16.14  0.000687  ( 0.024987 -0.006605  0.004411)
 58:   1451.70   0.001865    9.42  0.000401  ( 0.003011  0.016657  0.010694)
 59:   1468.45   0.003961   20.02  0.000842  (-0.002037  0.024321  0.015685)
 60:   1514.17   0.000835    4.22  0.000172  (-0.002636 -0.011149 -0.006383)
 61:   1516.06   0.000267    1.35  0.000055  (-0.002924 -0.003350  0.005941)
 62:   1520.05   0.001318    6.66  0.000271  ( 0.006685  0.006286 -0.013653)
 63:   1523.73   0.001244    6.29  0.000255  (-0.006830 -0.013463  0.005190)
 64:   1529.35   0.002214   11.19  0.000452  ( 0.010357 -0.000345  0.018558)
 65:   1534.94   0.000609    3.08  0.000124  ( 0.004616 -0.005654  0.008405)
 66:   1538.37   0.004350   21.98  0.000882  (-0.008117  0.014921  0.024368)
 67:   1548.40   0.003865   19.53  0.000779  (-0.016873 -0.022096  0.002460)
 68:   1564.02   0.001231    6.22  0.000246  (-0.011990  0.000257 -0.010089)
 69:   3093.86   0.005904   29.84  0.000595  (-0.018943  0.002137  0.015234)
 70:   3099.39   0.005570   28.15  0.000561  (-0.018109  0.015153 -0.001805)
 71:   3100.69   0.004771   24.11  0.000480  ( 0.016535 -0.004887  0.013521)
 72:   3109.95   0.008238   41.63  0.000827  (-0.008051  0.017168 -0.021613)
 73:   3114.46   0.007171   36.24  0.000718  (-0.019564  0.002876  0.018097)
 74:   3125.83   0.006878   34.76  0.000687  ( 0.007954  0.010939  0.022444)
 75:   3137.20   0.005840   29.51  0.000581  (-0.004890 -0.014857  0.018337)
 76:   3148.37   0.007594   38.38  0.000753  (-0.004049  0.026621 -0.005260)
 77:   3163.14   0.002970   15.01  0.000293  ( 0.012398  0.011800  0.000213)
 78:   3167.91   0.005218   26.37  0.000514  ( 0.015288  0.006948  0.015234)
 79:   3178.87   0.002557   12.92  0.000251  (-0.004596 -0.015159  0.000200)
 80:   3183.32   0.005161   26.08  0.000506  ( 0.017312 -0.003775 -0.013856)
 81:   3183.67   0.003993   20.18  0.000391  ( 0.003738  0.018773  0.005005)
 82:   3190.20   0.005673   28.67  0.000555  ( 0.023406 -0.002612 -0.000499)
 83:   3199.43   0.003998   20.20  0.000390  (-0.000084  0.004201 -0.019295)
 84:   3202.92   0.002683   13.56  0.000261  (-0.010711 -0.011236  0.004519)
 85:   3203.04   0.003068   15.50  0.000299  ( 0.003191  0.005518  0.016069)
 86:   3961.79   0.005542   28.01  0.000437  (-0.003977 -0.004065  0.020104)

* The epsilon (eps) is given for a Dirac delta lineshape.
** The dipole moment derivative (T) already includes vibrational overlap.

The first frequency considered to be a vibration is 6
The total number of vibrations considered is 81


--------------------------
THERMOCHEMISTRY AT 298.15K
--------------------------

Temperature         ...   298.15 K
Pressure            ...     1.00 atm
Total Mass          ...   154.25 AMU
Quasi RRHO          ...     True
Cut-Off Frequency   ...     1.00 cm^-1

Throughout the following assumptions are being made:
  (1) The electronic state is orbitally nondegenerate
  (2) There are no thermally accessible electronically excited states
  (3) Hindered rotations indicated by low frequency modes are not
      treated as such but are treated as vibrations and this may
      cause some error
  (4) All equations used are the standard statistical mechanics
      equations for an ideal gas
  (5) All vibrations are strictly harmonic

freq.      91.32  E(vib)   ...       0.47 
freq.     207.59  E(vib)   ...       0.34 
freq.     226.03  E(vib)   ...       0.33 
freq.     235.61  E(vib)   ...       0.32 
freq.     254.98  E(vib)   ...       0.30 
freq.     272.26  E(vib)   ...       0.29 
freq.     283.07  E(vib)   ...       0.28 
freq.     305.23  E(vib)   ...       0.26 
freq.     326.52  E(vib)   ...       0.24 
freq.     342.74  E(vib)   ...       0.23 
freq.     356.93  E(vib)   ...       0.22 
freq.     387.52  E(vib)   ...       0.20 
freq.     432.99  E(vib)   ...       0.17 
freq.     446.20  E(vib)   ...       0.17 
freq.     506.71  E(vib)   ...       0.14 
freq.     520.02  E(vib)   ...       0.13 
freq.     592.97  E(vib)   ...       0.10 
freq.     647.68  E(vib)   ...       0.09 
freq.     732.97  E(vib)   ...       0.06 
freq.     813.35  E(vib)   ...       0.05 
freq.     835.89  E(vib)   ...       0.04 
freq.     858.24  E(vib)   ...       0.04 
freq.     896.38  E(vib)   ...       0.03 
freq.     938.00  E(vib)   ...       0.03 
freq.     940.36  E(vib)   ...       0.03 
freq.     963.87  E(vib)   ...       0.03 
freq.     982.59  E(vib)   ...       0.02 
freq.     986.59  E(vib)   ...       0.02 
freq.    1003.62  E(vib)   ...       0.02 
freq.    1016.17  E(vib)   ...       0.02 
freq.    1031.87  E(vib)   ...       0.02 
freq.    1038.80  E(vib)   ...       0.02 
freq.    1066.65  E(vib)   ...       0.02 
freq.    1107.61  E(vib)   ...       0.02 
freq.    1154.92  E(vib)   ...       0.01 
freq.    1159.74  E(vib)   ...       0.01 
freq.    1192.39  E(vib)   ...       0.01 
freq.    1202.02  E(vib)   ...       0.01 
freq.    1217.81  E(vib)   ...       0.01 
freq.    1249.62  E(vib)   ...       0.01 
freq.    1275.86  E(vib)   ...       0.01 
freq.    1280.56  E(vib)   ...       0.01 
freq.    1299.53  E(vib)   ...       0.01 
freq.    1308.19  E(vib)   ...       0.01 
freq.    1316.26  E(vib)   ...       0.01 
freq.    1331.64  E(vib)   ...       0.01 
freq.    1343.59  E(vib)   ...       0.01 
freq.    1367.61  E(vib)   ...       0.01 
freq.    1393.10  E(vib)   ...       0.00 
freq.    1405.13  E(vib)   ...       0.00 
freq.    1434.46  E(vib)   ...       0.00 
freq.    1449.43  E(vib)   ...       0.00 
freq.    1451.70  E(vib)   ...       0.00 
freq.    1468.45  E(vib)   ...       0.00 
freq.    1514.17  E(vib)   ...       0.00 
freq.    1516.06  E(vib)   ...       0.00 
freq.    1520.05  E(vib)   ...       0.00 
freq.    1523.73  E(vib)   ...       0.00 
freq.    1529.35  E(vib)   ...       0.00 
freq.    1534.94  E(vib)   ...       0.00 
freq.    1538.37  E(vib)   ...       0.00 
freq.    1548.40  E(vib)   ...       0.00 
freq.    1564.02  E(vib)   ...       0.00 
freq.    3093.86  E(vib)   ...       0.00 
freq.    3099.39  E(vib)   ...       0.00 
freq.    3100.69  E(vib)   ...       0.00 
freq.    3109.95  E(vib)   ...       0.00 
freq.    3114.46  E(vib)   ...       0.00 
freq.    3125.83  E(vib)   ...       0.00 
freq.    3137.20  E(vib)   ...       0.00 
freq.    3148.37  E(vib)   ...       0.00 
freq.    3163.14  E(vib)   ...       0.00 
freq.    3167.91  E(vib)   ...       0.00 
freq.    3178.87  E(vib)   ...       0.00 
freq.    3183.32  E(vib)   ...       0.00 
freq.    3183.67  E(vib)   ...       0.00 
freq.    3190.20  E(vib)   ...       0.00 
freq.    3199.43  E(vib)   ...       0.00 
freq.    3202.92  E(vib)   ...       0.00 
freq.    3203.04  E(vib)   ...       0.00 
freq.    3961.79  E(vib)   ...       0.00 

------------
INNER ENERGY
------------

The inner energy is: U= E(el) + E(ZPE) + E(vib) + E(rot) + E(trans)
    E(el)   - is the total energy from the electronic structure calculation
              = E(kin-el) + E(nuc-el) + E(el-el) + E(nuc-nuc)
    E(ZPE)  - the the zero temperature vibrational energy from the frequency calculation
    E(vib)  - the the finite temperature correction to E(ZPE) due to population
              of excited vibrational states
    E(rot)  - is the rotational thermal energy
    E(trans)- is the translational thermal energy

Summary of contributions to the inner energy U:
Electronic energy                ...    -83.91460453 Eh
Zero point energy                ...      0.27179560 Eh     170.55 kcal/mol
Thermal vibrational correction   ...      0.00785478 Eh       4.93 kcal/mol
Thermal rotational correction    ...      0.00141627 Eh       0.89 kcal/mol
Thermal translational correction ...      0.00141627 Eh       0.89 kcal/mol
-----------------------------------------------------------------------
Total thermal energy                    -83.63212162 Eh


Summary of corrections to the electronic energy:
(perhaps to be used in another calculation)
Total thermal correction                  0.01068732 Eh       6.71 kcal/mol
Non-thermal (ZPE) correction              0.27179560 Eh     170.55 kcal/mol
-----------------------------------------------------------------------
Total correction                          0.28248292 Eh     177.26 kcal/mol


--------
ENTHALPY
--------

The enthalpy is H = U + kB*T
                kB is Boltzmann's constant
Total thermal energy              ...    -83.63212162 Eh 
Thermal Enthalpy correction       ...      0.00094421 Eh       0.59 kcal/mol
-----------------------------------------------------------------------
Total Enthalpy                    ...    -83.63117741 Eh


Note: Only C1 symmetry has been detected, increase convergence thresholds 
      if your molecule has a higher symmetry. Symmetry factor of 1.0 is   
      used for the rotational entropy correction. 
 

Note: Rotational entropy computed according to Herzberg 
Infrared and Raman Spectra, Chapter V,1, Van Nostrand Reinhold, 1945 
Point Group:  C1, Symmetry Number:   1  
Rotational constants in cm-1:     0.050327     0.040471     0.030454 

Vibrational entropy computed according to the QRRHO of S. Grimme
Chem.Eur.J. 2012 18 9955 using a reference frequency of 100.0 cm-1


-------
ENTROPY
-------

The entropy contributions are T*S = T*(S(el)+S(vib)+S(rot)+S(trans))
     S(el)   - electronic entropy
     S(vib)  - vibrational entropy
     S(rot)  - rotational entropy
     S(trans)- translational entropy
The entropies will be listed as multiplied by the temperature to get
units of energy

Electronic entropy                ...      0.00000000 Eh      0.00 kcal/mol
Vibrational entropy               ...      0.01247513 Eh      7.83 kcal/mol
Rotational entropy                ...      0.01408439 Eh      8.84 kcal/mol
Translational entropy             ...      0.01948509 Eh     12.23 kcal/mol
-----------------------------------------------------------------------
Final entropy term                ...      0.04604461 Eh     28.89 kcal/mol

In case the symmetry of your molecule has not been determined correctly
or in case you have a reason to use a different symmetry number we print 
out the resulting rotational entropy values for sn=1,12:

 non-linear molecules -----------------------------------
|  sn= 1 | S(rot)=       0.01408439 Eh      8.84 kcal/mol|
|  sn= 2 | S(rot)=       0.01342993 Eh      8.43 kcal/mol|
|  sn= 3 | S(rot)=       0.01304710 Eh      8.19 kcal/mol|
|  sn= 4 | S(rot)=       0.01277547 Eh      8.02 kcal/mol|
|  sn= 5 | S(rot)=       0.01256479 Eh      7.88 kcal/mol|
|  sn= 6 | S(rot)=       0.01239264 Eh      7.78 kcal/mol|
|  sn= 7 | S(rot)=       0.01224710 Eh      7.69 kcal/mol|
|  sn= 8 | S(rot)=       0.01212102 Eh      7.61 kcal/mol|
|  sn= 9 | S(rot)=       0.01200981 Eh      7.54 kcal/mol|
|  sn=10 | S(rot)=       0.01191033 Eh      7.47 kcal/mol|
|  sn=11 | S(rot)=       0.01182034 Eh      7.42 kcal/mol|
|  sn=12 | S(rot)=       0.01173819 Eh      7.37 kcal/mol|
 linear molecules ---------------------------------------
|  Dinfh | S(rot)=       0.00862245 Eh      5.41 kcal/mol|
|  Cinfv | S(rot)=       0.00927691 Eh      5.82 kcal/mol|
 --------------------------------------------------------


-------------------
GIBBS FREE ENERGY
-------------------

The Gibbs free energy is G = H - T*S

Total enthalpy                    ...    -83.63117741 Eh 
Total entropy correction          ...     -0.04604461 Eh    -28.89 kcal/mol
-----------------------------------------------------------------------
Final Gibbs free energy         ...    -83.67722201 Eh

For completeness - the Gibbs free energy minus the electronic energy
G-E(el)                           ...      0.23738252 Eh    148.96 kcal/mol


Maximum memory used throughout the entire PROP-calculation: 141.1 MB

--------------------------------
SUGGESTED CITATIONS FOR THIS RUN
--------------------------------

Below you find a list of papers that are relevant to this ORCA run
We neither can nor want to force you to cite these papers, but we appreciate if you do
You receive ORCA, which is the product of decades of hard work by many enthusiastic individuals, for free
The only thing we kindly ask in return is that you cite our papers,
We deeply appreciate it, if you show your appreciation for ORCA by not just citing the generic ORCA reference.

Please note that relegating all ORCA citations to the supporting information does *not* help us.
SI sections are not indexed - citations you put there will not count into any citation statistics
But we need these citations in order to attract the funding resources that allow us to do what we are doing

Therefore, if you are a happy ORCA user, please consider citing a few of the papers listed below in the main body of your paper

In addition to the list printed below, the program has created the file ./output/exo_fenchol/exo_fenchol.bibtex that contains the list in bibtex format
You can import this file easily into all common literature databanks and citation aid programs


List of essential papers. We consider these as the minimum necessary citations

  1. Neese,F.
     Software update: the ORCA program system, version 5.0
     WIRES Comput. Molec. Sci., 2022 12(1)e1606
     doi.org/10.1002/wcms.1606
  2. Mueller,M.; Hansen,A.; Grimme,S.
     wB97X-3c: A composite range-separated hybrid DFT method with a molecule-optimized polarized valence double-zeta basis set
     J. Chem. Phys., 2023 158 014103
     doi.org/10.1063/5.0133026

List of papers to cite with high priority. The work reported in these papers was absolutely
necessary for this run to complete.
Our perspective: the developers of density functionals and basis sets usually get cited in chemistry papers
Good! But without the algorithms to do something with them, the functionals or basis sets would not do anything.
Hence, in our opinion, the algorithm design and method developments papers are equally worthy of getting cited

  1. Neese,F.
     An improvement of the resolution of the identity approximation for the formation of the Coulomb matrix
     J. Comp. Chem., 2003 24(14)1740-1747
     doi.org/10.1002/jcc.10318
  2. Neese,F.; Wennmohs,F.; Hansen,A.; Becker,U.
     Efficient, approximate and parallel Hartree-Fock and hybrid DFT calculations. A 'chain-of-spheres' algorithm for the Hartree-Fock exchange
     Chem. Phys., 2009 356(1-3)98-109
     doi.org/10.1016/j.chemphys.2008.10.036
  3. Bykov,D.; Petrenko,T.; Izsak,R.; Kossmann,S.; Becker,U.; Valeev,E.; Neese,F.
     Efficient implementation of the analytic second derivatives of Hartree-Fock and hybrid DFT energies: a detailed analysis of different approximations
     Molec. Phys., 2015 113 1961-1977
     doi.org/10.1080/00268976.2015.1025114
  4. Helmich-Paris,B.; de Souza,B.; Neese,F.; Izsák,R.
     An improved chain of spheres for exchange algorithm
     J. Chem. Phys., 2021 155 104109
     doi.org/doi: 10.1063/5.0058766.
  5. Neese,F.
     The SHARK Integral Generation and Digestion System
     J. Comp. Chem., 2022  1-16
     doi.org/10.1002/jcc.26942
  6. Caldeweyher,E.; Bannwarth,C.; Grimme,S.
     Extension of the D3 dispersion coefficient model
     J. Chem. Phys., 2017 147 034112
     doi.org/10.1063/1.4993215
  7. Caldeweyher,E.; Ehlert,S.; Hansen,A.; Neugebauer,H.; Spicher,S.; Bannwarth,C.; Grimme,S.
     A generally applicable atomic-charge dependent London dispersion correction
     J. Chem. Phys., 2019 150 154122
     doi.org/10.1063/1.5090222
  8. Caldeweyher,E.; Mewes,J.; Ehlert,S.; Grimme,S.
     Extension and evaluation of the D4 London-dispersion model for periodic systems
     Phys. Chem. Chem. Phys., 2020 22(16)8499-8512
     doi.org/10.1039/D0CP00502A
  9. Wittmann,L.; Gordiy,I.; Friede,M.; Helmich-Paris,B.; Grimme,S.; Hansen,A.; Bursch,M.
     Extension of the D3 and D4 London Dispersion Corrections to the full Actinides Series
     Phys. Chem. Chem. Phys., 2024 26(32)21379-21394
     doi.org/https://doi.org/10.1039/D4CP01514B 

List of suggested additional citations. These are papers that are important in the 'surrounding' of 
of this run, or papers that preceded the highly important papers. If you like your results we are grateful for a citation.

  1. Izsak,R.; Neese,F.
     An overlap fitted chain of spheres exchange method
     J. Chem. Phys., 2011 135 144105
     doi.org/10.1063/1.3646921
  2. Izsak,R.; Hansen,A.; Neese,F.
     The resolution of identity and chain of spheres approximations for the LPNO-CCSD singles Fock term
     Molec. Phys., 2012 110 2413-2417
     doi.org/10.1080/00268976.2012.687466
  3. Neese,F.
     The ORCA program system
     WIRES Comput. Molec. Sci., 2012 2(1)73-78
     doi.org/10.1002/wcms.81
  4. Izsak,R.; Neese,F.; Klopper,W.
     Robust fitting techniques in the chain of spheres approximation to the Fock exchange: The role of the complementary space
     J. Chem. Phys., 2013 139 
     doi.org/10.1063/1.4819264
  5. Neese,F.
     Software update: the ORCA program system, version 4.0
     WIRES Comput. Molec. Sci., 2018 8(1)1-6
     doi.org/10.1002/wcms.1327
  6. Neese,F.; Wennmohs,F.; Becker,U.; Riplinger,C.
     The ORCA quantum chemistry program package
     J. Chem. Phys., 2020 152 Art. No. L224108
     doi.org/10.1063/5.0004608

List of optional additional citations

  1. Neese,F.
     Approximate second-order SCF convergence for spin unrestricted wavefunctions
     Chem. Phys. Lett., 2000 325(1-3)93-98
     doi.org/10.1016/s0009-2614(00)00662-x

Timings for individual modules:

Sum of individual times          ...      842.955 sec (=  14.049 min)
Startup calculation              ...       41.103 sec (=   0.685 min)   4.9 %
SCF iterations                   ...      466.548 sec (=   7.776 min)  55.3 %
Property integrals               ...       68.335 sec (=   1.139 min)   8.1 %
SCF Response                     ...       41.037 sec (=   0.684 min)   4.9 %
Property calculations            ...      116.145 sec (=   1.936 min)  13.8 %
SCF Gradient evaluation          ...      109.603 sec (=   1.827 min)  13.0 %
Geometry relaxation              ...        0.182 sec (=   0.003 min)   0.0 %
                             ****ORCA TERMINATED NORMALLY****
TOTAL RUN TIME: 0 days 0 hours 14 minutes 7 seconds 929 msec
