
                                 *****************
                                 * O   R   C   A *
                                 *****************

                                            #,                                       
                                            ###                                      
                                            ####                                     
                                            #####                                    
                                            ######                                   
                                           ########,                                 
                                     ,,################,,,,,                         
                               ,,#################################,,                 
                          ,,##########################################,,             
                       ,#########################################, ''#####,          
                    ,#############################################,,   '####,        
                  ,##################################################,,,,####,       
                ,###########''''           ''''###############################       
              ,#####''   ,,,,##########,,,,          '''####'''          '####       
            ,##' ,,,,###########################,,,                        '##       
           ' ,,###''''                  '''############,,,                           
         ,,##''                                '''############,,,,        ,,,,,,###''
      ,#''                                            '''#######################'''  
     '                                                          ''''####''''         
             ,#######,   #######,   ,#######,      ##                                
            ,#'     '#,  ##    ##  ,#'     '#,    #''#        ,####,   ,####,        
            ##       ##  ##   ,#'  ##            #'  '#       #'       #'  '#        
            ##       ##  #######   ##           ,######,      #####,   #    #        
            '#,     ,#'  ##    ##  '#,     ,#' ,#      #,     #,   #   #,  ,#        
             '#######'   ##     ##  '#######'  #'      '#     '####' # '####'        



                #########################################################
                #                        -***-                          #
                #          Department of theory and spectroscopy        #
                #                                                       #
                #                      Frank Neese                      #
                #                                                       #
                #     Directorship, Architecture, Infrastructure        #
                #                    SHARK, DRIVERS                     #
                #        Core code/Algorithms in most modules           #
                #                                                       #
                #        Max Planck Institute fuer Kohlenforschung      #
                #                Kaiser Wilhelm Platz 1                 #
                #                 D-45470 Muelheim/Ruhr                 #
                #                      Germany                          #
                #                                                       #
                #                  All rights reserved                  #
                #                        -***-                          #
                #########################################################


                         Program Version 6.0.1  -  RELEASE   -


 With contributions from (in alphabetic order):
[Max-Planck-Institut fuer Kohlenforschung]                               
  Daniel Aravena         : Magnetic Suceptibility                        
  Michael Atanasov       : Ab Initio Ligand Field Theory (pilot matlab implementation)
  Alexander A. Auer      : GIAO ZORA, VPT2 properties, NMR spectrum      
  Ute Becker             : All parallelization in ORCA, NUMFREQ, NUMCALC 
  Giovanni Bistoni       : ED, misc. LED, open-shell LED, HFLD           
  Martin Brehm           : Molecular dynamics                            
  Dmytro Bykov           : pre 5.0 version of the SCF Hessian            
  Marcos Casanova-Páez   : Triplet and SCS-CIS(D). UHF-(DLPNO)-IP/EA/STEOM-CCSD. UHF-CVS-IP/STEOM-CCSD   
  Vijay G. Chilkuri      : MRCI spin determinant printing, contributions to CSF-ICE 
  Pauline Colinet        : FMM embedding                                 
  Dipayan Datta          : RHF DLPNO-CCSD density                        
  Achintya Kumar Dutta   : EOM-CC, STEOM-CC                              
  Nicolas Foglia         : Exact transition moments, OPA infrastructure, MCD improvements    
  Dmitry Ganyushin       : Spin-Orbit,Spin-Spin,Magnetic field MRCI      
  Miquel Garcia-Rates    : C-PCM and meta-GGA Hessian, CCSD/C-PCM, Gaussian charge scheme 
  Tiago L. C. Gouveia    : GS-ROHF, GS-ROCIS                             
  Yang Guo               : DLPNO-NEVPT2, F12-NEVPT2, CIM, IAO-localization        
  Andreas Hansen         : Spin unrestricted coupled pair/coupled cluster methods 
  Ingolf Harden          : AUTO-CI MPn and infrastructure                
  Benjamin Helmich-Paris : MC-RPA, TRAH-(SCF,CASSCF), AVAS, COSX integrals, SCF dyn. polar. 
  Lee Huntington         : MR-EOM, pCC                                   
  Robert Izsak           : Overlap fitted RIJCOSX, COSX-SCS-MP3, EOM     
  Riya Kayal             : Wick's Theorem for AUTO-CI, AUTO-CI UHF-CCSDT 
  Emily Kempfer          : AUTO-CI, RHF CISDT and CCSDT                  
  Christian Kollmar      : KDIIS, OOCD, Brueckner-CCSD(T), CCSD density, CASPT2, CASPT2-K, improved NEVPT2 
  Axel Koslowski         : Symmetry handling                             
  Simone Kossmann        : meta-GGA functionals, TD-DFT gradient, OOMP2, (MP2 Hessian; deprecated post 5.0) 
  Lucas Lang             : DCDCAS                                        
  Marvin Lechner         : AUTO-CI (C++ implementation), FIC-MRCC        
  Spencer Leger          : CASSCF response                               
  Dagmar Lenk            : GEPOL surface, SMD, ORCA-2-JSON               
  Dimitrios Liakos       : Extrapolation schemes; Compound Job, initial MDCI parallelization 
  Dimitrios Manganas     : Further ROCIS development; embedding schemes. LFT, Crystal Embedding 
  Dimitrios Pantazis     : SARC Basis sets                               
  Anastasios Papadopoulos: AUTO-CI, single reference methods and gradients 
  Taras Petrenko         : pre 6.0 DFT Hessian and TD-DFT gradient, (ASA, deprecated), ECA, 1-Electron XAS/XES, NRVS 
  Peter Pinski           : DLPNO-MP2, DLPNO-MP2 Gradient                 
  Christoph Reimann      : Effective Core Potentials                     
  Marius Retegan         : Local ZFS, SOC                                
  Christoph Riplinger    : Optimizer, TS searches, QM/MM, DLPNO-CCSD(T), (RO)-DLPNO pert. Triples 
  Michael Roemelt        : Original ROCIS implementation                 
  Masaaki Saitow         : Open-shell DLPNO-CCSD energy and density      
  Barbara Sandhoefer     : DKH picture change effects                    
  Kantharuban Sivalingam : CASSCF convergence/infrastructure, NEVPT2 and variants, FIC-MRCI 
  Bernardo de Souza      : ESD, SOC TD-DFT                               
  Georgi L. Stoychev     : AutoAux, RI-MP2 NMR, DLPNO-MP2 response, X2C  
  Van Anh Tran           : RI-MP2 g-tensors                              
  Willem Van den Heuvel  : Paramagnetic NMR                              
  Zikuan Wang            : NOTCH, Electric field optimization            
  Frank Wennmohs         : Technical directorship and infrastructure     
  Hang Xu                : AUTO-CI-Response properties                   
                                                                         
[FACCTs GmbH]                                                            
  Markus Bursch, Miquel Garcia-Rates, Christoph Riplinger, Bernardo de Souza, Georgi L. Stoychev 
                                                                 
  APM, Basis sets (HGBS, AHGBS, def-TZVP (Ac-Lr), def2-XVPD (La-Lu)), CI-OPT, improved COSX, DLPNO-Multilevel,           
  DOCKER, DRACO, updates on ESD, GOAT, IRC, LR-CPCM, MBIS, meta-GGA TD-DFT gradient, ML-optimized integration grids, 
  MM, NACMEs, nearIR, NEB, NEB-TS, NL-DFT gradient (VV10), 2- and 3-layer-ONIOM, interface openCOSMO-RS, QMMM,   
  Crystal-QMMM, SF, symmetry and pop. for TD-DFT, r2SCAN hybrids, SOLVATOR                                   
                                                                         
[Other institutions]                                                     
  V. Asgeirsson          : NEB                                           
  Christoph Bannwarth    : sTDA-DFT, sTD-DFT, PBEh-3c, B97-3c, D3        
  Sebastian Ehlert       : rSCAN, r2SCAN, r2SCAN-3c, D4, dhf basis sets  
  Marvin Friede          : D4 for Fr, Ra, Ac-Lr                          
  Lars Goerigk           : TD-DFT with DH, B97 family of functionals     
  Stefan Grimme          : VdW corrections, initial TS optimization, DFT functionals, gCP, sTDA/sTD-DF 
  Waldemar Hujo          : DFT-NL                                        
  H. Jonsson             : NEB                                           
  Holger Kruse           : gCP                                           
  Marcel Mueller         : wB97X-3c, vDZP basis set                      
  Hagen Neugebauer       : wr2SCAN                                       
  Tobias Risthaus        : range-separated hybrid DFT                    
  Lukas Wittmann         : regularized MP2, r2SCAN double-hybrids, wr2SCAN        
                                                                         
We gratefully acknowledge several colleagues who have allowed us to      
interface, adapt or use parts of their codes:                            
  Ed Valeev, F. Pavosevic, A. Kumar             : LibInt (2-el integral package), F12 methods 
  Garnet Chan, S. Sharma, J. Yang, R. Olivares  : DMRG                   
  Ulf Ekstrom                                   : XCFun DFT Library      
  Mihaly Kallay                                 : mrcc  (arbitrary order and MRCC methods)
  Frank Weinhold                                : gennbo (NPA and NBO analysis)           
  Simon Mueller                                 : openCOSMO-RS                            
  Christopher J. Cramer and Donald G. Truhlar   : smd solvation model                     
  S Lehtola, MJT Oliveira, MAL Marques          : LibXC Library                           
  Liviu Ungur et al                             : ANISO software                          


 Your calculation uses the libint2 library for the computation of 2-el integrals
 For citations please refer to: http://libint.valeyev.net

 Your ORCA version has been built with support for libXC version: 6.2.2
 For citations please refer to: https://libxc.gitlab.io

 This ORCA versions uses:
   CBLAS   interface :  Fast vector & matrix operations
   LAPACKE interface :  Fast linear algebra routines
   SCALAPACK package :  Parallel linear algebra routines
   Shared memory     :  Shared parallel matrices
   BLAS/LAPACK       :  OpenBLAS 0.3.27  USE64BITINT DYNAMIC_ARCH NO_AFFINITY SkylakeX SINGLE_THREADED
        Core in use  :  SkylakeX
   Copyright (c) 2011-2014, The OpenBLAS Project


Your calculation utilizes the atom-pairwise dispersion correction
based on EEQ partial charges (D4)


================================================================================

cite the ECPs for C  [vDZP-ECP] as follows:
   B-Ne (ecp-2-mwb), Al-Ar (ecp-10-mwb), Ga-Kr (ecp-28-mwb), Y-Cd (ecp-28-mwb), In-Xe (ecp-46-mwb):
     A. Bergner, M. Dolg, W. Küchle, H. Stoll, and H. Preuß, Mol. Phys. 80, 1431 (1993)., T. Leininger, A. Berning, A. Nicklass, H. Stoll, H.-J. Werner, and H.-J.Flad, Chem. Phys. 217, 19 (1997).
   Na-Mg, K-Ca, Rb-Sr, Cs-Ba (CRENBL):
     L. Fernandez Pacios and P. A. Christiansen, J. Chem. Phys. 82, 2664 (1985)., M. M. Hurley, L. F. Pacios, P. A. Christiansen, R. B. Ross, and W. C. Ermler, J. Chem. Phys. 84, 6840 (1986)., L. A. LaJohn, P. A. Christiansen, R. B. Ross, T. Atashroo, and W. C. Ermler, J. Chem. Phys. 87, 2812 (1987)., R. B. Ross, J. M. Powers, T. Atashroo, W. C. Ermler, L. A. LaJohn, and P. A. Christiansen, J. Chem. Phys. 93, 6654 (1990). 
   Sc-Zn (ecp-10-mdf):
     M. Dolg, U. Wedig, H. Stoll, and H. Preuss, J. Chem. Phys. 86, 866 (1986). 
   Y-Cd (ecp-28-mwb), Hf-Hg (ecp-60-mwb):
     D. Andrae, U. Häußermann, M. Dolg, H. Stoll, and H. Preuß, Theor. Chim. Acta 77, 123 (1990). 
   La (ecp-46-mwb):
     M. Dolg, H. Stoll, and H. Preuss, J. Chem. Phys. 90, 1730 (1989)., M. Dolg, H. Stoll, and H. Preuss, Theor. Chim. Acta 85, 441 (1993).
   Ce-Lu (SBKJC-ecp):
     T. R. Cundari and W. J. Stevens, J. Chem. Phys. 98, 5555 (1993).
   Tl-Rn (ecp-78-mwb):
     W. Küchle, M. Dolg, H. Stoll, and H. Preuss, Mol. Phys. 74, 1245 (1991).

ECP parameters for C  [vDZP-ECP] have been obtained from:
MM, AH, SG, J. Chem. Phys. 158, 014103 (2023), 10.1063/5.0133026

----- Orbital basis set information -----
Your calculation utilizes the basis: vDZP
   Marcel Mueller, Andreas Hansen, Stefan Grimme 
   J. Chem. Phys. 158, 014103 (2023). DOI: 10.1063/5.0133026

----- AuxJ basis set information -----
Your calculation utilizes the auxiliary basis: def2/J
   F. Weigend, Phys. Chem. Chem. Phys. 8, 1057 (2006).

================================================================================
                                        WARNINGS
                       Please study these warnings very carefully!
================================================================================

WARNING: Frozen-Core approximation turned on, but there are no core electrons.
  ===> : Turning off frozen-core approximation


WARNING: Geometry Optimization
  ===> : Switching off AutoStart
         For restart on a previous wavefunction, please use MOREAD

================================================================================
                                       INPUT FILE
================================================================================
NAME = ./output/alpha_guaiene/alpha_guaiene.inp
|  1> ! wB97X-3c OPT FREQ TightSCF
|  2> %pal
|  3>   nprocs 40
|  4> end
|  5> * xyz 0 1
|  6> C     -0.497378     2.641507    -1.107351
|  7> C     -0.882527     2.026226     0.246119
|  8> C      0.290137     2.021168     1.247979
|  9> C      1.587249     1.346750     0.756707
| 10> C      1.415566    -0.069161     0.154546
| 11> C      0.291363    -0.872248     0.836497
| 12> C     -1.068510    -0.542222     0.261152
| 13> C     -1.579246     0.684105     0.067935
| 14> C     -2.960803     0.610095    -0.497032
| 15> C     -3.341189    -0.864324    -0.395036
| 16> C     -2.021942    -1.613880    -0.171745
| 17> C     -1.534116    -2.289874    -1.459639
| 18> C      2.738081    -0.824770     0.213421
| 19> C      3.435544    -1.061357    -0.909190
| 20> C      3.307862    -1.288110     1.531142
| 21> H      0.035905     3.603908    -0.954487
| 22> H     -1.409535     2.851220    -1.704955
| 23> H      0.151805     1.961166    -1.693735
| 24> H     -1.643396     2.707136     0.688685
| 25> H     -0.043624     1.557774     2.201216
| 26> H      0.537414     3.075720     1.501372
| 27> H      2.277580     1.310615     1.627401
| 28> H      2.075413     1.998752    -0.000256
| 29> H      1.133199     0.046956    -0.915464
| 30> H      0.474708    -1.960347     0.700493
| 31> H      0.283296    -0.699411     1.933103
| 32> H     -2.950100     0.930026    -1.561079
| 33> H     -3.662878     1.244998     0.085123
| 34> H     -3.887056    -1.202814    -1.303344
| 35> H     -4.002474    -1.012945     0.487379
| 36> H     -2.139401    -2.374347     0.631462
| 37> H     -1.394937    -1.540631    -2.269176
| 38> H     -0.569229    -2.809873    -1.283795
| 39> H     -2.275632    -3.046374    -1.793418
| 40> H      3.073442    -0.732653    -1.878448
| 41> H      4.384318    -1.588790    -0.872471
| 42> H      2.652433    -1.003650     2.379731
| 43> H      3.413598    -2.393530     1.525957
| 44> H      4.305061    -0.826812     1.693199
| 45> *
| 46> 
| 47>                          ****END OF INPUT****
================================================================================

                       *****************************
                       * Geometry Optimization Run *
                       *****************************

Geometry optimization settings:
Update method            Update   .... BFGS
Choice of coordinates    CoordSys .... (2022) Redundant Internals
Initial Hessian          InHess   .... Almloef's Model
Max. no of cycles        MaxIter  .... 117

Convergence Tolerances:
Energy Change            TolE     ....  5.0000e-06 Eh
Max. Gradient            TolMAXG  ....  3.0000e-04 Eh/bohr
RMS Gradient             TolRMSG  ....  1.0000e-04 Eh/bohr
Max. Displacement        TolMAXD  ....  4.0000e-03 bohr
RMS Displacement         TolRMSD  ....  2.0000e-03 bohr
Strict Convergence                .... False

------------------------------------------------------------------------------
                        ORCA OPTIMIZATION COORDINATE SETUP
------------------------------------------------------------------------------

The optimization will be done in redundant internal coordinates (2022)
Making redundant internal coordinates   ...  (2022 redundants) done
Evaluating the initial hessian          ...  (Almloef) done
Evaluating the coordinates              ...  done
Calculating the B-matrix                .... done
Calculating the G-matrix                .... done
Diagonalizing the G-matrix              .... done
Small eigenvalue found = 1.426e-02
Small eigenvalue found = 1.560e-02
Small eigenvalue found = 2.905e-02
The first mode is                       ....   93
The number of degrees of freedom        ....  111

    -----------------------------------------------------------------
                    Redundant Internal Coordinates


    -----------------------------------------------------------------
         Definition                    Initial Value    Approx d2E/dq
    -----------------------------------------------------------------
      1. B(C   1,C   0)                  1.5358         0.365651   
      2. B(C   2,C   1)                  1.5424         0.356985   
      3. B(C   3,C   2)                  1.5423         0.357071   
      4. B(C   4,C   3)                  1.5482         0.349433   
      5. B(C   5,C   4)                  1.5407         0.359140   
      6. B(C   6,C   5)                  1.5130         0.397637   
      7. B(C   7,C   1)                  1.5226         0.383802   
      8. B(C   7,C   6)                  1.3424         0.744161   
      9. B(C   8,C   7)                  1.4944         0.425700   
     10. B(C   9,C   8)                  1.5261         0.378953   
     11. B(C  10,C   9)                  1.5337         0.368589   
     12. B(C  10,C   6)                  1.4983         0.419723   
     13. B(C  11,C  10)                  1.5341         0.367924   
     14. B(C  12,C   4)                  1.5243         0.381495   
     15. B(C  13,C  12)                  1.3426         0.743528   
     16. B(C  14,C  12)                  1.5085         0.404203   
     17. B(H  15,C   0)                  1.1108         0.333556   
     18. B(H  16,C   0)                  1.1105         0.334016   
     19. B(H  17,C   0)                  1.1082         0.336788   
     20. B(H  18,C   1)                  1.1128         0.331112   
     21. B(H  19,C   2)                  1.1112         0.333105   
     22. B(H  20,C   2)                  1.1124         0.331654   
     23. B(H  21,C   3)                  1.1117         0.332457   
     24. B(H  22,C   3)                  1.1119         0.332219   
     25. B(H  23,C   4)                  1.1127         0.331270   
     26. B(H  24,C   5)                  1.1118         0.332401   
     27. B(H  25,C   5)                  1.1102         0.334379   
     28. B(H  26,C   8)                  1.1112         0.333174   
     29. B(H  27,C   8)                  1.1113         0.333037   
     30. B(H  28,C   9)                  1.1125         0.331580   
     31. B(H  29,C   9)                  1.1127         0.331321   
     32. B(H  30,C  10)                  1.1123         0.331756   
     33. B(H  31,C  11)                  1.1118         0.332393   
     34. B(H  32,C  11)                  1.1101         0.334465   
     35. B(H  33,C  11)                  1.1107         0.333791   
     36. B(H  34,C  13)                  1.0856         0.365907   
     37. B(H  35,C  13)                  1.0861         0.365239   
     38. B(H  36,C  14)                  1.1093         0.335418   
     39. B(H  37,C  14)                  1.1105         0.334005   
     40. B(H  38,C  14)                  1.1106         0.333837   
     41. A(H  16,C   0,H  17)          108.2017         0.284450   
     42. A(C   1,C   0,H  17)          111.5465         0.319659   
     43. A(H  15,C   0,H  16)          107.7449         0.284024   
     44. A(C   1,C   0,H  15)          110.2551         0.319156   
     45. A(H  15,C   0,H  17)          108.8724         0.284389   
     46. A(C   1,C   0,H  16)          110.1159         0.319228   
     47. A(C   0,C   1,C   7)          111.3915         0.363698   
     48. A(C   2,C   1,H  18)          105.2787         0.317529   
     49. A(C   7,C   1,H  18)          105.8435         0.321307   
     50. A(C   0,C   1,H  18)          106.0695         0.318773   
     51. A(C   0,C   1,C   2)          112.5246         0.359231   
     52. A(C   2,C   1,C   7)          114.8987         0.362210   
     53. A(C   1,C   2,H  20)          108.2922         0.317614   
     54. A(C   1,C   2,C   3)          115.7192         0.357782   
     55. A(C   1,C   2,H  19)          109.2822         0.317840   
     56. A(C   3,C   2,H  19)          110.0904         0.317852   
     57. A(H  19,C   2,H  20)          105.4675         0.283651   
     58. A(C   3,C   2,H  20)          107.4664         0.317626   
     59. A(C   2,C   3,C   4)          115.5024         0.356485   
     60. A(H  21,C   3,H  22)          106.2368         0.283640   
     61. A(C   2,C   3,H  22)          109.2485         0.317714   
     62. A(C   4,C   3,H  22)          108.6734         0.316598   
     63. A(C   4,C   3,H  21)          110.1054         0.316635   
     64. A(C   2,C   3,H  21)          106.6770         0.317752   
     65. A(C  12,C   4,H  23)          108.0017         0.321015   
     66. A(C   3,C   4,H  23)          107.8617         0.316451   
     67. A(C   5,C   4,H  23)          107.1493         0.317866   
     68. A(C   3,C   4,C   5)          112.6726         0.356835   
     69. A(C   5,C   4,C  12)          110.9523         0.362210   
     70. A(C   3,C   4,C  12)          110.0063         0.360521   
     71. A(C   6,C   5,H  24)          108.3717         0.323382   
     72. A(C   4,C   5,H  24)          109.6127         0.318042   
     73. A(H  24,C   5,H  25)          105.9263         0.283919   
     74. A(C   6,C   5,H  25)          109.5804         0.323697   
     75. A(C   4,C   5,H  25)          111.1838         0.318350   
     76. A(C   4,C   5,C   6)          111.9502         0.364784   
     77. A(C   7,C   6,C  10)          111.6978         0.418228   
     78. A(C   5,C   6,C  10)          121.7217         0.374688   
     79. A(C   5,C   6,C   7)          126.5805         0.414225   
     80. A(C   6,C   7,C   8)          111.1552         0.419284   
     81. A(C   1,C   7,C   8)          120.7237         0.373316   
     82. A(C   1,C   7,C   6)          127.9001         0.411628   
     83. A(C   9,C   8,H  27)          111.0693         0.320943   
     84. A(C   7,C   8,H  27)          110.9600         0.327131   
     85. A(C   9,C   8,H  26)          110.1559         0.320965   
     86. A(C   7,C   8,H  26)          109.8070         0.327153   
     87. A(C   7,C   8,C   9)          104.6553         0.372499   
     88. A(H  26,C   8,H  27)          110.0744         0.283844   
     89. A(C   8,C   9,C  10)          105.5161         0.363405   
     90. A(C   8,C   9,H  29)          109.2801         0.320672   
     91. A(C  10,C   9,H  28)          113.0946         0.319263   
     92. A(C   8,C   9,H  28)          111.2047         0.320713   
     93. A(H  28,C   9,H  29)          108.3762         0.283405   
     94. A(C  10,C   9,H  29)          109.2983         0.319223   
     95. A(C  11,C  10,H  30)          109.7868         0.319197   
     96. A(C   9,C  10,H  30)          110.3918         0.319291   
     97. A(C   6,C  10,H  30)          110.3385         0.326163   
     98. A(C   9,C  10,C  11)          111.5094         0.361576   
     99. A(C   6,C  10,C  11)          110.8160         0.369710   
    100. A(C   6,C  10,C   9)          103.8793         0.369825   
    101. A(H  32,C  11,H  33)          107.9900         0.284115   
    102. A(H  31,C  11,H  33)          108.8912         0.283840   
    103. A(C  10,C  11,H  33)          109.8841         0.319516   
    104. A(H  31,C  11,H  32)          108.7963         0.283929   
    105. A(C  10,C  11,H  32)          110.4756         0.319621   
    106. A(C  10,C  11,H  31)          110.7396         0.319297   
    107. A(C  13,C  12,C  14)          118.6872         0.415370   
    108. A(C   4,C  12,C  14)          120.9104         0.369618   
    109. A(C   4,C  12,C  13)          120.3820         0.411126   
    110. A(H  34,C  13,H  35)          117.9410         0.292222   
    111. A(C  12,C  13,H  35)          120.7353         0.364871   
    112. A(C  12,C  13,H  34)          121.3236         0.364985   
    113. A(H  37,C  14,H  38)          109.1869         0.284060   
    114. A(H  36,C  14,H  38)          108.2022         0.284246   
    115. A(C  12,C  14,H  38)          109.8169         0.324482   
    116. A(H  36,C  14,H  37)          108.3660         0.284268   
    117. A(C  12,C  14,H  37)          109.7325         0.324509   
    118. A(C  12,C  14,H  36)          111.4860         0.324734   
    119. D(C   7,C   1,C   0,H  17)    -57.2151         0.010704   
    120. D(C   2,C   1,C   0,H  17)     73.4746         0.010704   
    121. D(C   2,C   1,C   0,H  16)   -166.3754         0.010704   
    122. D(C   2,C   1,C   0,H  15)    -47.6160         0.010704   
    123. D(C   7,C   1,C   0,H  15)   -178.3057         0.010704   
    124. D(C   7,C   1,C   0,H  16)     62.9350         0.010704   
    125. D(C   3,C   2,C   1,C   7)     74.3397         0.010236   
    126. D(H  19,C   2,C   1,H  18)     65.4464         0.010236   
    127. D(C   3,C   2,C   1,C   0)    -54.5495         0.010236   
    128. D(H  19,C   2,C   1,C   0)   -179.4707         0.010236   
    129. D(C   3,C   2,C   1,H  18)   -169.6324         0.010236   
    130. D(H  19,C   2,C   1,C   7)    -50.5815         0.010236   
    131. D(C   4,C   3,C   2,H  19)     74.3306         0.010241   
    132. D(C   4,C   3,C   2,H  20)   -171.2895         0.010241   
    133. D(C   4,C   3,C   2,C   1)    -50.1732         0.010241   
    134. D(H  21,C   3,C   2,C   1)   -172.8897         0.010241   
    135. D(H  21,C   3,C   2,H  20)     65.9939         0.010241   
    136. D(H  21,C   3,C   2,H  19)    -48.3860         0.010241   
    137. D(C  12,C   4,C   3,H  22)     78.7622         0.009840   
    138. D(C  12,C   4,C   3,H  21)    -37.2149         0.009840   
    139. D(C  12,C   4,C   3,C   2)   -158.0924         0.009840   
    140. D(C   5,C   4,C   3,C   2)    -33.7230         0.009840   
    141. D(C   5,C   4,C   3,H  21)     87.1545         0.009840   
    142. D(C   5,C   4,C   3,H  22)   -156.8685         0.009840   
    143. D(H  24,C   5,C   4,H  23)     85.3718         0.010351   
    144. D(H  24,C   5,C   4,C  12)    -32.3049         0.010351   
    145. D(H  24,C   5,C   4,C   3)   -156.1526         0.010351   
    146. D(C   6,C   5,C   4,H  23)    -34.9164         0.010351   
    147. D(C   6,C   5,C   4,C  12)   -152.5931         0.010351   
    148. D(C   6,C   5,C   4,C   3)     83.5592         0.010351   
    149. D(C   7,C   6,C   5,C   4)    -49.3666         0.011741   
    150. D(C  10,C   6,C   5,H  24)      9.5219         0.011741   
    151. D(C  10,C   6,C   5,C   4)    130.5309         0.011741   
    152. D(C   7,C   6,C   5,H  25)     74.4729         0.011741   
    153. D(C   7,C   6,C   5,H  24)   -170.3756         0.011741   
    154. D(C   8,C   7,C   6,C  10)      1.1535         0.039434   
    155. D(C   1,C   7,C   6,C  10)   -173.4080         0.039434   
    156. D(C   1,C   7,C   6,C   5)      6.4982         0.039434   
    157. D(C   8,C   7,C   1,C   2)    160.0988         0.010979   
    158. D(C   8,C   7,C   1,C   0)    -70.4512         0.010979   
    159. D(C   6,C   7,C   1,H  18)   -141.5062         0.010979   
    160. D(C   8,C   7,C   6,C   5)   -178.9403         0.039434   
    161. D(C   6,C   7,C   1,C   2)    -25.8029         0.010979   
    162. D(C   6,C   7,C   1,C   0)    103.6471         0.010979   
    163. D(H  27,C   8,C   7,C   1)    -55.1629         0.013390   
    164. D(H  26,C   8,C   7,C   6)   -108.2585         0.013390   
    165. D(H  26,C   8,C   7,C   1)     66.7505         0.013390   
    166. D(C   9,C   8,C   7,C   6)      9.9541         0.013390   
    167. D(C   9,C   8,C   7,C   1)   -175.0368         0.013390   
    168. D(H  28,C   9,C   8,H  26)    -21.5236         0.011449   
    169. D(H  28,C   9,C   8,C   7)   -139.4986         0.011449   
    170. D(C  10,C   9,C   8,H  27)   -136.3182         0.011449   
    171. D(C  10,C   9,C   8,H  26)    101.4574         0.011449   
    172. D(H  28,C   9,C   8,H  27)    100.7007         0.011449   
    173. D(C  10,C   9,C   8,C   7)    -16.5176         0.011449   
    174. D(C   6,C  10,C   9,H  28)    138.7786         0.010866   
    175. D(C   6,C  10,C   9,C   8)     17.0111         0.010866   
    176. D(H  30,C  10,C   6,C   5)     50.1050         0.013027   
    177. D(C  11,C  10,C   6,C   7)    108.2022         0.013027   
    178. D(C  11,C  10,C   6,C   5)    -71.7092         0.013027   
    179. D(C   9,C  10,C   6,C   7)    -11.6652         0.013027   
    180. D(C   6,C  10,C   9,H  29)   -100.3947         0.010866   
    181. D(C   9,C  10,C   6,C   5)    168.4234         0.013027   
    182. D(C  11,C  10,C   9,H  29)    140.2098         0.010866   
    183. D(C  11,C  10,C   9,H  28)     19.3831         0.010866   
    184. D(C  11,C  10,C   9,C   8)   -102.3844         0.010866   
    185. D(H  32,C  11,C  10,H  30)    -58.4481         0.010829   
    186. D(H  32,C  11,C  10,C   9)    178.8817         0.010829   
    187. D(H  32,C  11,C  10,C   6)     63.6887         0.010829   
    188. D(H  31,C  11,C  10,H  30)   -179.0557         0.010829   
    189. D(H  31,C  11,C  10,C   9)     58.2742         0.010829   
    190. D(H  31,C  11,C  10,C   6)    -56.9188         0.010829   
    191. D(C  14,C  12,C   4,C   5)    -55.4137         0.010855   
    192. D(C  14,C  12,C   4,C   3)     69.9440         0.010855   
    193. D(C  13,C  12,C   4,H  23)      9.0970         0.010855   
    194. D(C  13,C  12,C   4,C   5)    126.2532         0.010855   
    195. D(C  13,C  12,C   4,C   3)   -108.3891         0.010855   
    196. D(H  35,C  13,C  12,C  14)      0.8948         0.039360   
    197. D(H  35,C  13,C  12,C   4)    179.2645         0.039360   
    198. D(H  34,C  13,C  12,C  14)   -179.0073         0.039360   
    199. D(H  34,C  13,C  12,C   4)     -0.6376         0.039360   
    200. D(H  38,C  14,C  12,C   4)   -120.0847         0.012114   
    201. D(H  37,C  14,C  12,C  13)    -61.7495         0.012114   
    202. D(H  37,C  14,C  12,C   4)    119.8897         0.012114   
    203. D(H  36,C  14,C  12,C  13)    178.1887         0.012114   
    204. D(H  36,C  14,C  12,C   4)     -0.1721         0.012114   
    -----------------------------------------------------------------

Number of atoms                         .... 39
Number of degrees of freedom            .... 204


         *************************************************************
         *                GEOMETRY OPTIMIZATION CYCLE   1            *
         *************************************************************
---------------------------------
CARTESIAN COORDINATES (ANGSTROEM)
---------------------------------
  C     -0.497378    2.641507   -1.107351
  C     -0.882527    2.026226    0.246119
  C      0.290137    2.021168    1.247979
  C      1.587249    1.346750    0.756707
  C      1.415566   -0.069161    0.154546
  C      0.291363   -0.872248    0.836497
  C     -1.068510   -0.542222    0.261152
  C     -1.579246    0.684105    0.067935
  C     -2.960803    0.610095   -0.497032
  C     -3.341189   -0.864324   -0.395036
  C     -2.021942   -1.613880   -0.171745
  C     -1.534116   -2.289874   -1.459639
  C      2.738081   -0.824770    0.213421
  C      3.435544   -1.061357   -0.909190
  C      3.307862   -1.288110    1.531142
  H      0.035905    3.603908   -0.954487
  H     -1.409535    2.851220   -1.704955
  H      0.151805    1.961166   -1.693735
  H     -1.643396    2.707136    0.688685
  H     -0.043624    1.557774    2.201216
  H      0.537414    3.075720    1.501372
  H      2.277580    1.310615    1.627401
  H      2.075413    1.998752   -0.000256
  H      1.133199    0.046956   -0.915464
  H      0.474708   -1.960347    0.700493
  H      0.283296   -0.699411    1.933103
  H     -2.950100    0.930026   -1.561079
  H     -3.662878    1.244998    0.085123
  H     -3.887056   -1.202814   -1.303344
  H     -4.002474   -1.012945    0.487379
  H     -2.139401   -2.374347    0.631462
  H     -1.394937   -1.540631   -2.269176
  H     -0.569229   -2.809873   -1.283795
  H     -2.275632   -3.046374   -1.793418
  H      3.073442   -0.732653   -1.878448
  H      4.384318   -1.588790   -0.872471
  H      2.652433   -1.003650    2.379731
  H      3.413598   -2.393530    1.525957
  H      4.305061   -0.826812    1.693199

----------------------------
CARTESIAN COORDINATES (A.U.)
----------------------------
  NO LB      ZA    FRAG     MASS         X           Y           Z
   0 C     4.0000*   0    12.011   -0.939908    4.991725   -2.092590
   1 C     4.0000*   0    12.011   -1.667734    3.829012    0.465098
   2 C     4.0000*   0    12.011    0.548279    3.819454    2.358339
   3 C     4.0000*   0    12.011    2.999466    2.544989    1.429969
   4 C     4.0000*   0    12.011    2.675032   -0.130695    0.292050
   5 C     4.0000*   0    12.011    0.550596   -1.648310    1.580750
   6 C     4.0000*   0    12.011   -2.019191   -1.024651    0.493506
   7 C     4.0000*   0    12.011   -2.984342    1.292771    0.128379
   8 C     4.0000*   0    12.011   -5.595107    1.152912   -0.939254
   9 C     4.0000*   0    12.011   -6.313932   -1.633336   -0.746510
  10 C     4.0000*   0    12.011   -3.820917   -3.049791   -0.324551
  11 C     4.0000*   0    12.011   -2.899059   -4.327235   -2.758318
  12 C     4.0000*   0    12.011    5.174223   -1.558589    0.403307
  13 C     4.0000*   0    12.011    6.492237   -2.005674   -1.718120
  14 C     4.0000*   0    12.011    6.250953   -2.434175    2.893439
  15 H     1.0000    0     1.008    0.067851    6.810399   -1.803719
  16 H     1.0000    0     1.008   -2.663635    5.388025   -3.221898
  17 H     1.0000    0     1.008    0.286870    3.706067   -3.200695
  18 H     1.0000    0     1.008   -3.105568    5.115746    1.301426
  19 H     1.0000    0     1.008   -0.082437    2.943766    4.159695
  20 H     1.0000    0     1.008    1.015565    5.812268    2.837182
  21 H     1.0000    0     1.008    4.304002    2.476703    3.075342
  22 H     1.0000    0     1.008    3.921962    3.777094   -0.000484
  23 H     1.0000    0     1.008    2.141436    0.088734   -1.729976
  24 H     1.0000    0     1.008    0.897068   -3.704519    1.323740
  25 H     1.0000    0     1.008    0.535352   -1.321695    3.653035
  26 H     1.0000    0     1.008   -5.574881    1.757494   -2.950012
  27 H     1.0000    0     1.008   -6.921836    2.352705    0.160859
  28 H     1.0000    0     1.008   -7.345471   -2.272989   -2.462963
  29 H     1.0000    0     1.008   -7.563580   -1.914189    0.921013
  30 H     1.0000    0     1.008   -4.042882   -4.486866    1.193290
  31 H     1.0000    0     1.008   -2.636049   -2.911371   -4.288121
  32 H     1.0000    0     1.008   -1.075687   -5.309890   -2.426021
  33 H     1.0000    0     1.008   -4.300321   -5.756813   -3.389069
  34 H     1.0000    0     1.008    5.807964   -1.384514   -3.549752
  35 H     1.0000    0     1.008    8.285160   -3.002378   -1.648731
  36 H     1.0000    0     1.008    5.012372   -1.896624    4.497040
  37 H     1.0000    0     1.008    6.450765   -4.523116    2.883641
  38 H     1.0000    0     1.008    8.135386   -1.562448    3.199682
* core charge reduced due to ECP

--------------------------------
INTERNAL COORDINATES (ANGSTROEM)
--------------------------------
 C      0   0   0     0.000000000000     0.00000000     0.00000000
 C      1   0   0     1.535835766631     0.00000000     0.00000000
 C      2   1   0     1.542365034569   112.52464433     0.00000000
 C      3   2   1     1.542299373420   115.71921236   305.45050036
 C      4   3   2     1.548185028455   115.50237626   309.82684693
 C      5   4   3     1.540726543284   112.67263257   326.27696490
 C      6   5   4     1.513008131449   111.95015313    83.55922713
 C      7   6   5     1.342409021764   126.58048078   310.63343406
 C      8   7   6     1.494444691328   111.15517062   181.05967289
 C      9   8   7     1.526108803648   104.65534072     9.95414244
 C      7   6   5     1.498293449294   121.72165901   130.53094874
 C     11   7   6     1.534148965892   110.81600323   288.29079928
 C      5   4   3     1.524289064361   110.00626596   201.90759133
 C     13   5   4     1.342640496283   120.38196042   251.61092965
 C     13   5   4     1.508549958537   120.91039241    69.94398568
 H      1   2   3     1.110843753813   110.25509968   312.38398936
 H      1   2   3     1.110468583902   110.11590034   193.62464950
 H      1   2   3     1.108218678432   111.54646342    73.47459377
 H      2   1   3     1.112845329602   106.06947446   114.60364923
 H      3   2   1     1.111211583150   109.28221121   180.52931858
 H      3   2   1     1.112400039501   108.29218859    66.12165011
 H      4   3   2     1.111742177585   106.67695865   187.11026796
 H      4   3   2     1.111936905705   109.24846711    72.66796280
 H      5   4   3     1.112715453509   107.86171768    84.33464363
 H      6   5   4     1.111787709431   109.61270081   203.84742985
 H      6   5   4     1.110172249831   111.18378660   320.62372801
 H      9   8   7     1.111155442402   109.80703322   251.74147100
 H      9   8   7     1.111267550619   110.95999967   129.82798434
 H     10   9   8     1.112461093546   111.20467601   220.50136851
 H     10   9   8     1.112673485390   109.28006813   100.90056086
 H     11   7   6     1.112316573471   110.33845560    50.10496273
 H     12  11   7     1.111794055326   110.73958201   303.08117480
 H     12  11   7     1.110102245339   110.47557023    63.68873655
 H     12  11   7     1.110651452571   109.88413363   182.74257730
 H     14  13   5     1.085645084079   121.32358679   359.36238173
 H     14  13   5     1.086142696668   120.73533125   179.26449363
 H     15  13   5     1.109327704766   111.48600838   359.82788947
 H     15  13   5     1.110477537963   109.73246821   119.88968327
 H     15  13   5     1.110614317238   109.81693150   239.91532299

---------------------------
INTERNAL COORDINATES (A.U.)
---------------------------
 C      0   0   0     0.000000000000     0.00000000     0.00000000
 C      1   0   0     2.902308985613     0.00000000     0.00000000
 C      2   1   0     2.914647513871   112.52464433     0.00000000
 C      3   2   1     2.914523432282   115.71921236   305.45050036
 C      4   3   2     2.925645708416   115.50237626   309.82684693
 C      5   4   3     2.911551214069   112.67263257   326.27696490
 C      6   5   4     2.859171006834   111.95015313    83.55922713
 C      7   6   5     2.536785410840   126.58048078   310.63343406
 C      8   7   6     2.824091188902   111.15517062   181.05967289
 C      9   8   7     2.883927689462   104.65534072     9.95414244
 C      7   6   5     2.831364287414   121.72165901   130.53094874
 C     11   7   6     2.899121394175   110.81600323   288.29079928
 C      5   4   3     2.880488880574   110.00626596   201.90759133
 C     13   5   4     2.537222834287   120.38196042   251.61092965
 C     13   5   4     2.850746280973   120.91039241    69.94398568
 H      1   2   3     2.099190472284   110.25509968   312.38398936
 H      1   2   3     2.098481503899   110.11590034   193.62464950
 H      1   2   3     2.094229798733   111.54646342    73.47459377
 H      2   1   3     2.102972902361   106.06947446   114.60364923
 H      3   2   1     2.099885568994   109.28221121   180.52931858
 H      3   2   1     2.102131426020   108.29218859    66.12165011
 H      4   3   2     2.100888247165   106.67695865   187.11026796
 H      4   3   2     2.101256229982   109.24846711    72.66796280
 H      5   4   3     2.102727472114   107.86171768    84.33464363
 H      6   5   4     2.100974289884   109.61270081   203.84742985
 H      6   5   4     2.097921513659   111.18378660   320.62372801
 H      9   8   7     2.099779478355   109.80703322   251.74147100
 H      9   8   7     2.099991332184   110.95999967   129.82798434
 H     10   9   8     2.102246801444   111.20467601   220.50136851
 H     10   9   8     2.102648163864   109.28006813   100.90056086
 H     11   7   6     2.101973698083   110.33845560    50.10496273
 H     12  11   7     2.100986281888   110.73958201   303.08117480
 H     12  11   7     2.097789224341   110.47557023    63.68873655
 H     12  11   7     2.098827075600   109.88413363   182.74257730
 H     14  13   5     2.051571887546   121.32358679   359.36238173
 H     14  13   5     2.052512239062   120.73533125   179.26449363
 H     15  13   5     2.096325554780   111.48600838   359.82788947
 H     15  13   5     2.098498424622   109.73246821   119.88968327
 H     15  13   5     2.098756899992   109.81693150   239.91532299

---------------------
BASIS SET INFORMATION
---------------------
There are 2 groups of distinct atoms

 Group   1 Type C   : 6s6p2d contracted to 2s2p1d pattern {42/42/2}
 Group   2 Type H   : 8s2p contracted to 2s1p pattern {53/2}

Atom   0C    basis set group =>   1
Atom   1C    basis set group =>   1
Atom   2C    basis set group =>   1
Atom   3C    basis set group =>   1
Atom   4C    basis set group =>   1
Atom   5C    basis set group =>   1
Atom   6C    basis set group =>   1
Atom   7C    basis set group =>   1
Atom   8C    basis set group =>   1
Atom   9C    basis set group =>   1
Atom  10C    basis set group =>   1
Atom  11C    basis set group =>   1
Atom  12C    basis set group =>   1
Atom  13C    basis set group =>   1
Atom  14C    basis set group =>   1
Atom  15H    basis set group =>   2
Atom  16H    basis set group =>   2
Atom  17H    basis set group =>   2
Atom  18H    basis set group =>   2
Atom  19H    basis set group =>   2
Atom  20H    basis set group =>   2
Atom  21H    basis set group =>   2
Atom  22H    basis set group =>   2
Atom  23H    basis set group =>   2
Atom  24H    basis set group =>   2
Atom  25H    basis set group =>   2
Atom  26H    basis set group =>   2
Atom  27H    basis set group =>   2
Atom  28H    basis set group =>   2
Atom  29H    basis set group =>   2
Atom  30H    basis set group =>   2
Atom  31H    basis set group =>   2
Atom  32H    basis set group =>   2
Atom  33H    basis set group =>   2
Atom  34H    basis set group =>   2
Atom  35H    basis set group =>   2
Atom  36H    basis set group =>   2
Atom  37H    basis set group =>   2
Atom  38H    basis set group =>   2
---------------------------------
AUXILIARY/J BASIS SET INFORMATION
---------------------------------
There are 2 groups of distinct atoms

 Group   1 Type C   : 12s5p4d2f1g contracted to 6s4p3d1f1g pattern {711111/2111/211/2/1}
 Group   2 Type H   : 5s2p1d contracted to 3s1p1d pattern {311/2/1}

Atom   0C    basis set group =>   1
Atom   1C    basis set group =>   1
Atom   2C    basis set group =>   1
Atom   3C    basis set group =>   1
Atom   4C    basis set group =>   1
Atom   5C    basis set group =>   1
Atom   6C    basis set group =>   1
Atom   7C    basis set group =>   1
Atom   8C    basis set group =>   1
Atom   9C    basis set group =>   1
Atom  10C    basis set group =>   1
Atom  11C    basis set group =>   1
Atom  12C    basis set group =>   1
Atom  13C    basis set group =>   1
Atom  14C    basis set group =>   1
Atom  15H    basis set group =>   2
Atom  16H    basis set group =>   2
Atom  17H    basis set group =>   2
Atom  18H    basis set group =>   2
Atom  19H    basis set group =>   2
Atom  20H    basis set group =>   2
Atom  21H    basis set group =>   2
Atom  22H    basis set group =>   2
Atom  23H    basis set group =>   2
Atom  24H    basis set group =>   2
Atom  25H    basis set group =>   2
Atom  26H    basis set group =>   2
Atom  27H    basis set group =>   2
Atom  28H    basis set group =>   2
Atom  29H    basis set group =>   2
Atom  30H    basis set group =>   2
Atom  31H    basis set group =>   2
Atom  32H    basis set group =>   2
Atom  33H    basis set group =>   2
Atom  34H    basis set group =>   2
Atom  35H    basis set group =>   2
Atom  36H    basis set group =>   2
Atom  37H    basis set group =>   2
Atom  38H    basis set group =>   2
-------------------------
ECP PARAMETER INFORMATION
-------------------------

 Group 1, Type C  ECP vDZP-ECP (replacing 2 core electrons, lmax=3)

Atom   0C    ECP group =>   1
Atom   1C    ECP group =>   1
Atom   2C    ECP group =>   1
Atom   3C    ECP group =>   1
Atom   4C    ECP group =>   1
Atom   5C    ECP group =>   1
Atom   6C    ECP group =>   1
Atom   7C    ECP group =>   1
Atom   8C    ECP group =>   1
Atom   9C    ECP group =>   1
Atom  10C    ECP group =>   1
Atom  11C    ECP group =>   1
Atom  12C    ECP group =>   1
Atom  13C    ECP group =>   1
Atom  14C    ECP group =>   1



           ************************************************************
           *        Program running with 40 parallel MPI-processes    *
           *              working on a common directory               *
           ************************************************************
------------------------------------------------------------------------------
                             ORCA STARTUP CALCULATIONS
                           -- RI-GTO INTEGRALS CHOSEN --
------------------------------------------------------------------------------
------------------------------------------------------------------------------
                   ___                                                        
                  /   \      - P O W E R E D   B Y -                         
                 /     \                                                     
                 |  |  |   _    _      __       _____    __    __             
                 |  |  |  | |  | |    /  \     |  _  \  |  |  /  |          
                  \  \/   | |  | |   /    \    | | | |  |  | /  /          
                 / \  \   | |__| |  /  /\  \   | |_| |  |  |/  /          
                |  |  |   |  __  | /  /__\  \  |    /   |      \           
                |  |  |   | |  | | |   __   |  |    \   |  |\   \          
                \     /   | |  | | |  |  |  |  | |\  \  |  | \   \       
                 \___/    |_|  |_| |__|  |__|  |_| \__\ |__|  \__/        
                                                                              
                      - O R C A' S   B I G   F R I E N D -                    
                                      &                                       
                       - I N T E G R A L  F E E D E R -                       
                                                                              
 v1 FN, 2020, v2 2021, v3 2022-2024                                           
------------------------------------------------------------------------------


----------------------
SHARK INTEGRAL PACKAGE
----------------------

Number of atoms                             ...     39
Number of basis functions                   ...    315
Number of shells                            ...    147
Maximum angular momentum                    ...      2
Integral batch strategy                     ... SHARK/LIBINT Hybrid
RI-J (if used) integral strategy            ... SPLIT-RIJ (Revised 2003 algorithm where possible)
Printlevel                                  ...      1
Contraction scheme used                     ... SEGMENTED contraction
Prescreening option                         ... SCHWARTZ
   Thresh                                   ... 2.500e-11
   Tcut                                     ... 2.500e-12
   Tpresel                                  ... 2.500e-12 
Coulomb Range Separation                    ... NOT USED
Exchange Range Separation                   ... Long Range
   Mu parameter                             ... 3.000e-01
   Scaling (regular/separated)              ... 1.670e-01 8.330e-01
Multipole approximations                    ... NOT USED
Finite Nucleus Model                        ... NOT USED
CABS basis                                  ... NOT available
Auxiliary Coulomb fitting basis             ... AVAILABLE
   # of basis functions in Aux-J            ...    999
   # of shells in Aux-J                     ...    345
   Maximum angular momentum in Aux-J        ...      4
Auxiliary J/K fitting basis                 ... NOT available
Auxiliary Correlation fitting basis         ... NOT available
Auxiliary 'external' fitting basis          ... NOT available

Checking pre-screening integrals            ... done (  0.0 sec) Dimension = 147
Check shell pair data                       ... done (  0.0 sec)
Shell pair information
Shell pair cut-off parameter TPreSel        ...   2.5e-12
Total number of shell pairs                 ...     10878
Shell pairs after pre-screening             ...     10810
Total number of primitive shell pairs       ...    102036
Primitive shell pairs kept                  ...     77780
          la=0 lb=0:   3073 shell pairs
          la=1 lb=0:   4182 shell pairs
          la=1 lb=1:   1455 shell pairs
          la=2 lb=0:   1170 shell pairs
          la=2 lb=1:    810 shell pairs
          la=2 lb=2:    120 shell pairs

Calculating one electron integrals          ... done (  0.0 sec)
Calculating ECP integrals                   ... done (  0.2 sec)
Calculating RI/J V-Matrix + Cholesky decomp.... done (  0.1 sec)
Calculating Nuclear repulsion               ... done (  0.0 sec) ENN=    568.073053180603 Eh

Diagonalization of the overlap matrix:
Smallest eigenvalue                        ... 6.545e-04
Time for diagonalization                   ...    0.014 sec
Threshold for overlap eigenvalues          ... 1.000e-07
Number of eigenvalues below threshold      ... 0
Time for construction of square roots      ...    0.010 sec
Total time needed                          ...    0.027 sec

-------------------
DFT GRID GENERATION
-------------------

General Integration Accuracy     IntAcc      ... 4.388
Radial Grid Type                 RadialGrid  ... OptM3 with GC (2021)
Angular Grid (max. ang.)         AngularGrid ... 4 (Lebedev-302)
Angular grid pruning method      GridPruning ... 4 (adaptive)
Weight generation scheme         WeightScheme... mBecke (2022)
Basis function cutoff            BFCut       ... 1.0000e-11
Integration weight cutoff        WCut        ... 1.0000e-14
Partially contracted basis set               ... off
Rotationally invariant grid construction     ... off
Angular grids for H and He will be reduced by one unit

Total number of grid points                  ...   164833
Total number of batches                      ...     2595
Average number of points per batch           ...       63
Average number of grid points per atom       ...     4226

--------------------
COSX GRID GENERATION
--------------------

GRIDX 1
-------
General Integration Accuracy     IntAcc      ... 3.816
Radial Grid Type                 RadialGrid  ... OptM3 with GC (2021)
Angular Grid (max. ang.)         AngularGrid ... 1 (Lebedev-50)
Angular grid pruning method      GridPruning ... 4 (adaptive)
Weight generation scheme         WeightScheme... mBecke (2022)
Basis function cutoff            BFCut       ... 1.0000e-11
Integration weight cutoff        WCut        ... 1.0000e-14
Partially contracted basis set               ... on
Rotationally invariant grid construction     ... off
Angular grids for H and He will be reduced by one unit

Total number of grid points                  ...    21025
Total number of batches                      ...      192
Average number of points per batch           ...      109
Average number of grid points per atom       ...      539
UseSFitting                                  ... on

GRIDX 2
-------
General Integration Accuracy     IntAcc      ... 4.020
Radial Grid Type                 RadialGrid  ... OptM3 with GC (2021)
Angular Grid (max. ang.)         AngularGrid ... 2 (Lebedev-110)
Angular grid pruning method      GridPruning ... 4 (adaptive)
Weight generation scheme         WeightScheme... mBecke (2022)
Basis function cutoff            BFCut       ... 1.0000e-11
Integration weight cutoff        WCut        ... 1.0000e-14
Partially contracted basis set               ... on
Rotationally invariant grid construction     ... off
Angular grids for H and He will be reduced by one unit

Total number of grid points                  ...    43472
Total number of batches                      ...      361
Average number of points per batch           ...      120
Average number of grid points per atom       ...     1115
UseSFitting                                  ... on

GRIDX 3
-------
General Integration Accuracy     IntAcc      ... 4.338
Radial Grid Type                 RadialGrid  ... OptM3 with GC (2021)
Angular Grid (max. ang.)         AngularGrid ... 3 (Lebedev-194)
Angular grid pruning method      GridPruning ... 4 (adaptive)
Weight generation scheme         WeightScheme... mBecke (2022)
Basis function cutoff            BFCut       ... 1.0000e-11
Integration weight cutoff        WCut        ... 1.0000e-14
Partially contracted basis set               ... on
Rotationally invariant grid construction     ... off
Angular grids for H and He will be reduced by one unit

Total number of grid points                  ...    94327
Total number of batches                      ...      756
Average number of points per batch           ...      124
Average number of grid points per atom       ...     2419
UseSFitting                                  ... on
Initializing property integral containers    ... done (  0.0 sec)

SHARK setup successfully completed in   5.2 seconds

Maximum memory used throughout the entire STARTUP-calculation: 52.1 MB


           ************************************************************
           *        Program running with 40 parallel MPI-processes    *
           *              working on a common directory               *
           ************************************************************
-------------------------------------------------------------------------------
                                 ORCA GUESS
                   Start orbitals & Density for SCF / CASSCF
-------------------------------------------------------------------------------

------------
SCF SETTINGS
------------
Hamiltonian:
 Density Functional     Method          .... DFT(GTOs)
 Exchange Functional    Exchange        .... WB97X-V
 Correlation Functional Correlation     .... WB97X-V
 Gradients option       PostSCFGGA      .... off
 Hybrid DFT is turned on
   Fraction HF Exchange ScalHFX         ....  0.167000
   Scaling of DF-GGA-X  ScalDFX         ....  0.000000
   Scaling of DF-GGA-C  ScalDFC         ....  1.000000
   Scaling of DF-LDA-C  ScalLDAC        ....  1.000000
   Perturbative correction              ....  0.000000
 Long-range corrected/Screened/Range-Separated Hybrid DFT is turned on
   Amount of maximum screened exact exchange              ....  0.833000
   Range separation parameter mu (erf(mu*r12)/r12)        ....  0.300000
   NL short-range parameter             ....  6.000000
   NL long-range parameter              ....  0.010000
 RI-approximation to the Coulomb term is turned on
   Number of AuxJ basis functions       .... 999
   RIJ-COSX (HFX calculated with COS-X)).... on


General Settings:
 Integral files         IntName         .... ./output/alpha_guaiene/alpha_guaiene
 Hartree-Fock type      HFTyp           .... RHF
 Total Charge           Charge          ....    0
 Multiplicity           Mult            ....    1
 Number of Electrons    NEL             ....   84
 Basis Dimension        Dim             ....  315
 Nuclear Repulsion      ENuc            ....    568.0730531806 Eh

Convergence Acceleration:
 AO-DIIS                CNVDIIS         .... on
   Start iteration      DIISMaxIt       ....    12
   Startup error        DIISStart       ....  0.200000
   # of expansion vecs  DIISMaxEq       ....     5
   Bias factor          DIISBfac        ....   1.050
   Max. coefficient     DIISMaxC        ....  10.000
 MO-DIIS                CNVKDIIS        .... off
 Trust-Rad. Augm. Hess. CNVTRAH         .... auto
   Auto Start mean grad. ratio tolernc. ....  1.125000
   Auto Start start iteration           ....    50
   Auto Start num. interpolation iter.  ....    10
   Max. Number of Micro iterations      ....    24
   Max. Number of Macro iterations      .... Maxiter - #DIIS iter
   Number of Davidson start vectors     ....     2
   Converg. threshold    (grad. norm)   ....   1.000e-05
   Grad. Scal. Fac. for Micro threshold ....   0.100
   Minimum threshold for Micro iter.    ....   1.000e-02
   NR start threshold (gradient norm)   ....   1.000e-04
   Initial trust radius                 ....   0.400
   Minimum AH scaling param. (alpha)    ....   1.000
   Maximum AH scaling param. (alpha)    .... 1000.000
   Quad. conv. algorithm                .... NR
   White noise on init. David. guess    .... on
   Maximum white noise                  ....   0.010
   Pseudo random numbers                .... off
   Inactive MOs                         .... canonical
   Orbital update algorithm             .... Taylor
   Preconditioner                       .... Diag
   Full preconditioner red. dimension   ....   250
 SOSCF                  CNVSOSCF        .... on
   Start iteration      SOSCFMaxIt      ....   150
   Startup grad/error   SOSCFStart      ....  0.003300
   Hessian update       SOSCFHessUp     .... L-BFGS
 Level Shifting         CNVShift        .... on
   Level shift para.    LevelShift      ....    0.2500
   Turn off err/grad.   ShiftErr        ....    0.0010
 Zerner damping         CNVZerner       .... off
 Static damping         CNVDamp         .... on
   Fraction old density DampFac         ....    0.7000
   Max. Damping (<1)    DampMax         ....    0.9800
   Min. Damping (>=0)   DampMin         ....    0.0000
   Turn off err/grad.   DampErr         ....    0.1000

SCF Procedure:
 Maximum # iterations   MaxIter         ....   125
 SCF integral mode      SCFMode         .... Direct
   Integral package                     .... SHARK and LIBINT hybrid scheme
 Reset frequency        DirectResetFreq ....    20
 Integral Threshold     Thresh          ....  2.500e-11 Eh
 Primitive CutOff       TCut            ....  2.500e-12 Eh

Convergence Tolerance:
 Convergence Check Mode ConvCheckMode   .... Total+1el-Energy
 Convergence forced     ConvForced      .... 0
 Energy Change          TolE            ....  1.000e-08 Eh
 1-El. energy change                    ....  1.000e-05 Eh
 Orbital Gradient       TolG            ....  1.000e-05
 Orbital Rotation angle TolX            ....  1.000e-05
 DIIS Error             TolErr          ....  5.000e-07

------------------------------
INITIAL GUESS: MODEL POTENTIAL
------------------------------
Loading Hartree-Fock densities                     ... done
Atomic calculation to generate a density for atom 0 (C  with ECP)
  Multiplicity assumed   :    1
  Atomic configuration   : 1s2 2s2 2p2 
  Number of open shells  : 1
  Command: /home/aspe232/Project/Software/ORCA/6_0_1/build/orca ./output/alpha_guaiene/alpha_guaiene_atom6.inp "" > ./output/alpha_guaiene/alpha_guaiene_atom6.out
Returned from the atomic calculation with res=0
Calculating cut-offs                               ... done
Initializing the effective Hamiltonian             ... done
Setting up the integral package (SHARK)            ... done
Starting the Coulomb interaction                   ... done (   0.1 sec)
Making the grid                                    ... done (   1.0 sec)
Mapping shells                                     ... done
Starting the XC term evaluation                    ... done (   0.1 sec)
  promolecular density results
     # of electrons  =    113.990279041
     EX              =    -55.395448100
     EC              =     -4.561384042
     EX+EC           =    -59.956832142
Transforming the Hamiltonian                       ... done (   0.0 sec)
Diagonalizing the Hamiltonian                      ... done (   0.0 sec)
Back transforming the eigenvectors                 ... done (   0.0 sec)
Now organizing SCF variables                       ... done
                      ------------------
                      INITIAL GUESS DONE (   1.8 sec)
                      ------------------
             **** ENERGY FILE WAS UPDATED (./output/alpha_guaiene/alpha_guaiene.en.tmp) ****
Finished Guess after   2.7 sec
Maximum memory used throughout the entire GUESS-calculation: 34.7 MB


           ************************************************************
           *        Program running with 40 parallel MPI-processes    *
           *              working on a common directory               *
           ************************************************************

-------------------------------------------------------------------------------------------
                                      ORCA LEAN-SCF
                              memory conserving SCF solver
-------------------------------------------------------------------------------------------

----------------------------------------D-I-I-S--------------------------------------------
Iteration    Energy (Eh)           Delta-E    RMSDP     MaxDP     DIISErr   Damp  Time(sec)
-------------------------------------------------------------------------------------------
               ***  Starting incremental Fock matrix formation  ***
    1    -99.1899909719517154     0.00e+00  3.57e-03  8.08e-02  1.86e-01  0.700   9.5
    2    -99.4654577645532072    -2.75e-01  2.61e-03  5.77e-02  1.13e-01  0.700   6.0
                               ***Turning on AO-DIIS***
    3    -99.6085178885830373    -1.43e-01  1.36e-03  3.04e-02  5.96e-02  0.700   6.1
    4    -99.6927445891459456    -8.42e-02  2.95e-03  6.40e-02  3.74e-02  0.000   5.9
    5    -99.8696649267202474    -1.77e-01  2.15e-04  5.84e-03  6.04e-03  0.000   6.3
                              *** Initializing SOSCF ***
---------------------------------------S-O-S-C-F--------------------------------------
Iteration    Energy (Eh)           Delta-E    RMSDP     MaxDP     MaxGrad    Time(sec)
--------------------------------------------------------------------------------------
    6    -99.8701530379737505    -4.88e-04  1.03e-04  1.56e-03  1.09e-03     5.9
               *** Restarting incremental Fock matrix formation ***
    7    -99.8703037065306489    -1.51e-04  5.57e-05  1.03e-03  2.53e-04     8.2
    8    -99.8703162897971879    -1.26e-05  3.28e-05  6.60e-04  2.30e-04     7.6
    9    -99.8703186953187014    -2.41e-06  1.04e-05  2.05e-04  6.95e-05     7.3
   10    -99.8703190714379616    -3.76e-07  2.85e-06  7.95e-05  1.68e-05     7.0
   11    -99.8703190758981236    -4.46e-09  1.08e-06  2.99e-05  8.78e-06     6.6
                 **** Energy Check signals convergence ****

               *****************************************************
               *                     SUCCESS                       *
               *           SCF CONVERGED AFTER  11 CYCLES          *
               *****************************************************

Recomputing exchange energy using gridx3       ... done (    9.592 sec)
Old exchange energy                            :    -15.894663926 Eh
New exchange energy                            :    -15.894663934 Eh
Exchange energy change after final integration :     -0.000000008 Eh
Total energy after final integration           :    -99.870319084 Eh
             **** ENERGY FILE WAS UPDATED (./output/alpha_guaiene/alpha_guaiene.en.tmp) ****

----------------
TOTAL SCF ENERGY
----------------

Total Energy       :        -99.87031908386112 Eh           -2717.60954 eV

Components:
Nuclear Repulsion  :        568.07305318060253 Eh           15458.05365 eV
Electronic Energy  :       -667.94337225650065 Eh          -18175.66319 eV
One Electron Energy:      -1275.00569653508273 Eh          -34694.66885 eV
Two Electron Energy:        607.06232427858208 Eh           16519.00565 eV

Virial components:
Potential Energy   :       -177.90095780805291 Eh           -4840.93117 eV
Kinetic Energy     :         78.03063872419177 Eh            2123.32163 eV
Virial Ratio       :          2.27988596167800

DFT components:
N(Alpha)           :       41.999919747183 electrons
N(Beta)            :       41.999919747183 electrons
N(Total)           :       83.999839494365 electrons
E(X)               :      -16.105834735533 Eh       
E(C)               :       -3.137787930497 Eh       
E(XC)              :      -19.243622666029 Eh       

---------------
SCF CONVERGENCE
---------------

  Last Energy change         ...    4.4602e-09  Tolerance :   1.0000e-08
  Last MAX-Density change    ...    2.9911e-05  Tolerance :   1.0000e-07
  Last RMS-Density change    ...    1.0847e-06  Tolerance :   5.0000e-09
  Last DIIS Error            ...    1.0925e-03  Tolerance :   5.0000e-07
  Last Orbital Gradient      ...    8.7769e-06  Tolerance :   1.0000e-05
  Last Orbital Rotation      ...    1.9149e-05  Tolerance :   1.0000e-05


----------------
ORBITAL ENERGIES
----------------

  NO   OCC          E(Eh)            E(eV) 
   0   2.0000      -1.002569       -27.2813 
   1   2.0000      -0.965409       -26.2701 
   2   2.0000      -0.936735       -25.4899 
   3   2.0000      -0.897229       -24.4148 
   4   2.0000      -0.870755       -23.6945 
   5   2.0000      -0.860486       -23.4150 
   6   2.0000      -0.820004       -22.3134 
   7   2.0000      -0.810488       -22.0545 
   8   2.0000      -0.781877       -21.2760 
   9   2.0000      -0.768681       -20.9169 
  10   2.0000      -0.733777       -19.9671 
  11   2.0000      -0.683929       -18.6106 
  12   2.0000      -0.674680       -18.3590 
  13   2.0000      -0.639158       -17.3924 
  14   2.0000      -0.614107       -16.7107 
  15   2.0000      -0.595106       -16.1937 
  16   2.0000      -0.585755       -15.9392 
  17   2.0000      -0.573153       -15.5963 
  18   2.0000      -0.567270       -15.4362 
  19   2.0000      -0.553917       -15.0728 
  20   2.0000      -0.542983       -14.7753 
  21   2.0000      -0.534362       -14.5407 
  22   2.0000      -0.524151       -14.2629 
  23   2.0000      -0.512161       -13.9366 
  24   2.0000      -0.510097       -13.8804 
  25   2.0000      -0.500707       -13.6249 
  26   2.0000      -0.488657       -13.2970 
  27   2.0000      -0.482351       -13.1254 
  28   2.0000      -0.478038       -13.0081 
  29   2.0000      -0.473340       -12.8802 
  30   2.0000      -0.464158       -12.6304 
  31   2.0000      -0.462072       -12.5736 
  32   2.0000      -0.446252       -12.1431 
  33   2.0000      -0.440499       -11.9866 
  34   2.0000      -0.432520       -11.7695 
  35   2.0000      -0.422178       -11.4880 
  36   2.0000      -0.418490       -11.3877 
  37   2.0000      -0.413111       -11.2413 
  38   2.0000      -0.404753       -11.0139 
  39   2.0000      -0.396684       -10.7943 
  40   2.0000      -0.340590        -9.2679 
  41   2.0000      -0.312441        -8.5020 
  42   0.0000       0.080753         2.1974 
  43   0.0000       0.083846         2.2816 
  44   0.0000       0.088399         2.4055 
  45   0.0000       0.092811         2.5255 
  46   0.0000       0.097530         2.6539 
  47   0.0000       0.104053         2.8314 
  48   0.0000       0.115651         3.1470 
  49   0.0000       0.118821         3.2333 
  50   0.0000       0.125607         3.4179 
  51   0.0000       0.127738         3.4759 
  52   0.0000       0.134975         3.6729 
*Only the first 10 virtual orbitals were printed.

                    ********************************
                    * MULLIKEN POPULATION ANALYSIS *
                    ********************************

-----------------------
MULLIKEN ATOMIC CHARGES
-----------------------
   0 C :   -0.056618
   1 C :   -0.128512
   2 C :   -0.056125
   3 C :   -0.038972
   4 C :   -0.085387
   5 C :   -0.054555
   6 C :   -0.018655
   7 C :   -0.009187
   8 C :   -0.057869
   9 C :   -0.049348
  10 C :   -0.092157
  11 C :   -0.065857
  12 C :   -0.075998
  13 C :   -0.028484
  14 C :   -0.095486
  15 H :    0.034488
  16 H :    0.039688
  17 H :    0.032678
  18 H :    0.041014
  19 H :    0.040594
  20 H :    0.039638
  21 H :    0.035868
  22 H :    0.045134
  23 H :    0.025542
  24 H :    0.038483
  25 H :    0.050240
  26 H :    0.034244
  27 H :    0.042782
  28 H :    0.036265
  29 H :    0.038349
  30 H :    0.039212
  31 H :    0.032649
  32 H :    0.033696
  33 H :    0.039178
  34 H :    0.026699
  35 H :    0.017885
  36 H :    0.030995
  37 H :    0.058701
  38 H :    0.059189
Sum of atomic charges:   -0.0000000

--------------------------------
MULLIKEN REDUCED ORBITAL CHARGES
--------------------------------
  0 C s       :     0.958279  s :     0.958279
      pz      :     0.975746  p :     3.024325
      px      :     1.034767
      py      :     1.013812
      dz2     :     0.013554  d :     0.074014
      dxz     :     0.021742
      dyz     :     0.014014
      dx2y2   :     0.008949
      dxy     :     0.015754

  1 C s       :     1.038093  s :     1.038093
      pz      :     0.973139  p :     2.965015
      px      :     0.991574
      py      :     1.000302
      dz2     :     0.024826  d :     0.125404
      dxz     :     0.027212
      dyz     :     0.026301
      dx2y2   :     0.017737
      dxy     :     0.029328

  2 C s       :     0.992481  s :     0.992481
      pz      :     0.991487  p :     2.964395
      px      :     0.935251
      py      :     1.037656
      dz2     :     0.019759  d :     0.099250
      dxz     :     0.023743
      dyz     :     0.013947
      dx2y2   :     0.023549
      dxy     :     0.018251

  3 C s       :     0.997612  s :     0.997612
      pz      :     1.039595  p :     2.943727
      px      :     0.973590
      py      :     0.930542
      dz2     :     0.012434  d :     0.097633
      dxz     :     0.025357
      dyz     :     0.019815
      dx2y2   :     0.019798
      dxy     :     0.020229

  4 C s       :     1.036777  s :     1.036777
      pz      :     1.032871  p :     2.926358
      px      :     0.955171
      py      :     0.938315
      dz2     :     0.028306  d :     0.122252
      dxz     :     0.018347
      dyz     :     0.017571
      dx2y2   :     0.028876
      dxy     :     0.029153

  5 C s       :     0.980170  s :     0.980170
      pz      :     1.026283  p :     2.975925
      px      :     0.928329
      py      :     1.021313
      dz2     :     0.028862  d :     0.098460
      dxz     :     0.017574
      dyz     :     0.006831
      dx2y2   :     0.027775
      dxy     :     0.017418

  6 C s       :     1.041542  s :     1.041542
      pz      :     0.963952  p :     2.856796
      px      :     0.920033
      py      :     0.972811
      dz2     :     0.011191  d :     0.120317
      dxz     :     0.016010
      dyz     :     0.025254
      dx2y2   :     0.032240
      dxy     :     0.035622

  7 C s       :     1.049160  s :     1.049160
      pz      :     0.969472  p :     2.840169
      px      :     0.911201
      py      :     0.959496
      dz2     :     0.010045  d :     0.119858
      dxz     :     0.014712
      dyz     :     0.026146
      dx2y2   :     0.034437
      dxy     :     0.034517

  8 C s       :     0.996169  s :     0.996169
      pz      :     1.019196  p :     2.959192
      px      :     0.970918
      py      :     0.969078
      dz2     :     0.021415  d :     0.102509
      dxz     :     0.017705
      dyz     :     0.018365
      dx2y2   :     0.021476
      dxy     :     0.023548

  9 C s       :     0.994963  s :     0.994963
      pz      :     1.047311  p :     2.958236
      px      :     0.973651
      py      :     0.937274
      dz2     :     0.013210  d :     0.096148
      dxz     :     0.025407
      dyz     :     0.015122
      dx2y2   :     0.021193
      dxy     :     0.021216

 10 C s       :     1.035899  s :     1.035899
      pz      :     0.979759  p :     2.927764
      px      :     0.950287
      py      :     0.997718
      dz2     :     0.020648  d :     0.128494
      dxz     :     0.021001
      dyz     :     0.036244
      dx2y2   :     0.022508
      dxy     :     0.028093

 11 C s       :     0.965490  s :     0.965490
      pz      :     0.976644  p :     3.025903
      px      :     1.033053
      py      :     1.016206
      dz2     :     0.016297  d :     0.074464
      dxz     :     0.009767
      dyz     :     0.021668
      dx2y2   :     0.007197
      dxy     :     0.019533

 12 C s       :     1.083331  s :     1.083331
      pz      :     0.979732  p :     2.871309
      px      :     0.950607
      py      :     0.940971
      dz2     :     0.030442  d :     0.121358
      dxz     :     0.031663
      dyz     :     0.026766
      dx2y2   :     0.016800
      dxy     :     0.015686

 13 C s       :     0.981140  s :     0.981140
      pz      :     0.983239  p :     2.982864
      px      :     0.992151
      py      :     1.007474
      dz2     :     0.022552  d :     0.064480
      dxz     :     0.013880
      dyz     :     0.012788
      dx2y2   :     0.005915
      dxy     :     0.009346

 14 C s       :     0.953927  s :     0.953927
      pz      :     0.984237  p :     3.068944
      px      :     1.037311
      py      :     1.047396
      dz2     :     0.018858  d :     0.072615
      dxz     :     0.018977
      dyz     :     0.011508
      dx2y2   :     0.015372
      dxy     :     0.007900

 15 H s       :     0.922235  s :     0.922235
      pz      :     0.009919  p :     0.043277
      px      :     0.013159
      py      :     0.020198

 16 H s       :     0.916370  s :     0.916370
      pz      :     0.014151  p :     0.043943
      px      :     0.018881
      py      :     0.010910

 17 H s       :     0.923468  s :     0.923468
      pz      :     0.013993  p :     0.043854
      px      :     0.014739
      py      :     0.015123

 18 H s       :     0.918040  s :     0.918040
      pz      :     0.011240  p :     0.040947
      px      :     0.015186
      py      :     0.014521

 19 H s       :     0.917258  s :     0.917258
      pz      :     0.019039  p :     0.042148
      px      :     0.010737
      py      :     0.012372

 20 H s       :     0.918390  s :     0.918390
      pz      :     0.009932  p :     0.041972
      px      :     0.010616
      py      :     0.021424

 21 H s       :     0.921191  s :     0.921191
      pz      :     0.018086  p :     0.042940
      px      :     0.015238
      py      :     0.009616

 22 H s       :     0.912913  s :     0.912913
      pz      :     0.015902  p :     0.041953
      px      :     0.012189
      py      :     0.013862

 23 H s       :     0.933972  s :     0.933972
      pz      :     0.021782  p :     0.040487
      px      :     0.009397
      py      :     0.009308

 24 H s       :     0.918840  s :     0.918840
      pz      :     0.009993  p :     0.042677
      px      :     0.009631
      py      :     0.023053

 25 H s       :     0.906200  s :     0.906200
      pz      :     0.023089  p :     0.043560
      px      :     0.010159
      py      :     0.010312

 26 H s       :     0.922507  s :     0.922507
      pz      :     0.022271  p :     0.043249
      px      :     0.010192
      py      :     0.010786

 27 H s       :     0.914277  s :     0.914277
      pz      :     0.013269  p :     0.042941
      px      :     0.015615
      py      :     0.014057

 28 H s       :     0.920740  s :     0.920740
      pz      :     0.018823  p :     0.042995
      px      :     0.012784
      py      :     0.011388

 29 H s       :     0.919646  s :     0.919646
      pz      :     0.017876  p :     0.042006
      px      :     0.013901
      py      :     0.010228

 30 H s       :     0.920018  s :     0.920018
      pz      :     0.015915  p :     0.040769
      px      :     0.008964
      py      :     0.015890

 31 H s       :     0.924834  s :     0.924834
      pz      :     0.016969  p :     0.042517
      px      :     0.010056
      py      :     0.015492

 32 H s       :     0.922214  s :     0.922214
      pz      :     0.010531  p :     0.044089
      px      :     0.020356
      py      :     0.013202

 33 H s       :     0.917577  s :     0.917577
      pz      :     0.011480  p :     0.043245
      px      :     0.015542
      py      :     0.016222

 34 H s       :     0.922075  s :     0.922075
      pz      :     0.022509  p :     0.051226
      px      :     0.012988
      py      :     0.015728

 35 H s       :     0.931959  s :     0.931959
      pz      :     0.009719  p :     0.050156
      px      :     0.023029
      py      :     0.017408

 36 H s       :     0.924386  s :     0.924386
      pz      :     0.018505  p :     0.044619
      px      :     0.014918
      py      :     0.011195

 37 H s       :     0.897259  s :     0.897259
      pz      :     0.010073  p :     0.044040
      px      :     0.010285
      py      :     0.023683

 38 H s       :     0.896857  s :     0.896857
      pz      :     0.010468  p :     0.043954
      px      :     0.021236
      py      :     0.012250



                     *******************************
                     * LOEWDIN POPULATION ANALYSIS *
                     *******************************

----------------------
LOEWDIN ATOMIC CHARGES
----------------------
   0 C :   -0.110190
   1 C :   -0.080625
   2 C :   -0.083211
   3 C :   -0.076982
   4 C :   -0.063196
   5 C :   -0.073952
   6 C :   -0.029758
   7 C :   -0.031054
   8 C :   -0.082503
   9 C :   -0.066083
  10 C :   -0.079395
  11 C :   -0.114531
  12 C :   -0.042604
  13 C :   -0.087133
  14 C :   -0.116252
  15 H :    0.047979
  16 H :    0.047424
  17 H :    0.042796
  18 H :    0.054295
  19 H :    0.047994
  20 H :    0.051588
  21 H :    0.049455
  22 H :    0.049279
  23 H :    0.051728
  24 H :    0.053499
  25 H :    0.049341
  26 H :    0.042563
  27 H :    0.048161
  28 H :    0.045776
  29 H :    0.047939
  30 H :    0.047542
  31 H :    0.047575
  32 H :    0.044129
[...]
 81:   1511.15   0.000598    3.02  0.000123  ( 0.008492 -0.004545 -0.005537)
 82:   1514.02   0.000314    1.59  0.000065  ( 0.000381 -0.000442 -0.008028)
 83:   1516.53   0.001141    5.77  0.000235  ( 0.008955  0.012202 -0.002409)
 84:   1523.27   0.001310    6.62  0.000268  (-0.015781 -0.000930 -0.004290)
 85:   1523.80   0.004796   24.24  0.000982  (-0.029150  0.011348  0.001943)
 86:   1526.73   0.000364    1.84  0.000074  (-0.000038  0.003013  0.008084)
 87:   1530.64   0.003549   17.93  0.000723  ( 0.005707  0.026127 -0.002875)
 88:   1534.55   0.002072   10.47  0.000421  ( 0.008211  0.004392  0.018294)
 89:   1537.94   0.000677    3.42  0.000137  ( 0.005961 -0.002201 -0.009849)
 90:   1538.91   0.000873    4.41  0.000177  (-0.008969  0.001573 -0.009701)
 91:   1770.96   0.006441   32.55  0.001135  (-0.019021  0.003806  0.027543)
 92:   1796.17   0.000144    0.73  0.000025  (-0.004471 -0.000948  0.002051)
 93:   3063.26   0.003996   20.19  0.000407  ( 0.016214 -0.010780 -0.005292)
 94:   3084.79   0.008175   41.31  0.000827  (-0.013214  0.021262 -0.014153)
 95:   3085.62   0.001452    7.34  0.000147  (-0.005802  0.009524 -0.004741)
 96:   3088.46   0.008017   40.52  0.000810  ( 0.006580 -0.020390  0.018736)
 97:   3093.56   0.011606   58.65  0.001171  (-0.011161  0.020042  0.025386)
 98:   3094.03   0.002014   10.18  0.000203  (-0.008658 -0.003320  0.010824)
 99:   3100.56   0.005519   27.89  0.000555  ( 0.001306 -0.016109  0.017154)
100:   3105.37   0.006171   31.19  0.000620  (-0.005917 -0.023513  0.005682)
101:   3109.82   0.010425   52.68  0.001046  (-0.018841 -0.008816 -0.024767)
102:   3116.74   0.001811    9.15  0.000181  (-0.007718  0.008033 -0.007565)
103:   3118.28   0.007736   39.09  0.000774  ( 0.022691  0.015448 -0.004549)
104:   3136.88   0.007054   35.65  0.000702  (-0.022536  0.009279  0.010383)
105:   3138.64   0.003610   18.24  0.000359  ( 0.005187  0.015978  0.008756)
106:   3140.93   0.001916    9.68  0.000190  (-0.009266 -0.009614 -0.003470)
107:   3157.47   0.007646   38.64  0.000756  (-0.001111 -0.015473  0.022694)
108:   3174.45   0.004642   23.46  0.000456  (-0.002568 -0.007697 -0.019762)
109:   3183.69   0.005393   27.25  0.000529  (-0.008423 -0.020798  0.005008)
110:   3186.40   0.004292   21.69  0.000420  (-0.018030  0.003015 -0.009281)
111:   3186.93   0.001412    7.13  0.000138  ( 0.004177  0.010016  0.004521)
112:   3187.91   0.004423   22.35  0.000433  ( 0.010339  0.013750  0.011706)
113:   3198.50   0.003849   19.45  0.000376  (-0.015417  0.011632  0.001588)
114:   3202.32   0.001195    6.04  0.000116  ( 0.006579 -0.001095 -0.008481)
115:   3209.40   0.003215   16.25  0.000313  ( 0.015521 -0.006887 -0.004927)
116:   3296.26   0.001791    9.05  0.000170  ( 0.010246 -0.005911  0.005445)

* The epsilon (eps) is given for a Dirac delta lineshape.
** The dipole moment derivative (T) already includes vibrational overlap.

The first frequency considered to be a vibration is 6
The total number of vibrations considered is 111


--------------------------
THERMOCHEMISTRY AT 298.15K
--------------------------

Temperature         ...   298.15 K
Pressure            ...     1.00 atm
Total Mass          ...   204.36 AMU
Quasi RRHO          ...     True
Cut-Off Frequency   ...     1.00 cm^-1

Throughout the following assumptions are being made:
  (1) The electronic state is orbitally nondegenerate
  (2) There are no thermally accessible electronically excited states
  (3) Hindered rotations indicated by low frequency modes are not
      treated as such but are treated as vibrations and this may
      cause some error
  (4) All equations used are the standard statistical mechanics
      equations for an ideal gas
  (5) All vibrations are strictly harmonic

freq.      47.58  E(vib)   ...       0.53 
freq.      61.28  E(vib)   ...       0.51 
freq.      81.06  E(vib)   ...       0.48 
freq.      96.44  E(vib)   ...       0.47 
freq.     147.22  E(vib)   ...       0.41 
freq.     150.37  E(vib)   ...       0.40 
freq.     163.32  E(vib)   ...       0.39 
freq.     203.80  E(vib)   ...       0.35 
freq.     229.04  E(vib)   ...       0.32 
freq.     235.26  E(vib)   ...       0.32 
freq.     245.75  E(vib)   ...       0.31 
freq.     257.65  E(vib)   ...       0.30 
freq.     282.14  E(vib)   ...       0.28 
freq.     335.55  E(vib)   ...       0.24 
freq.     338.87  E(vib)   ...       0.23 
freq.     345.39  E(vib)   ...       0.23 
freq.     366.48  E(vib)   ...       0.22 
freq.     403.15  E(vib)   ...       0.19 
freq.     478.47  E(vib)   ...       0.15 
freq.     494.47  E(vib)   ...       0.14 
freq.     515.24  E(vib)   ...       0.13 
freq.     560.30  E(vib)   ...       0.11 
freq.     577.09  E(vib)   ...       0.11 
freq.     638.28  E(vib)   ...       0.09 
freq.     669.81  E(vib)   ...       0.08 
freq.     693.51  E(vib)   ...       0.07 
freq.     742.81  E(vib)   ...       0.06 
freq.     758.09  E(vib)   ...       0.06 
freq.     797.77  E(vib)   ...       0.05 
freq.     831.14  E(vib)   ...       0.04 
freq.     864.11  E(vib)   ...       0.04 
freq.     892.39  E(vib)   ...       0.03 
freq.     921.45  E(vib)   ...       0.03 
freq.     935.20  E(vib)   ...       0.03 
freq.     939.56  E(vib)   ...       0.03 
freq.     959.61  E(vib)   ...       0.03 
freq.     971.57  E(vib)   ...       0.03 
freq.     995.56  E(vib)   ...       0.02 
freq.    1012.55  E(vib)   ...       0.02 
freq.    1023.32  E(vib)   ...       0.02 
freq.    1039.79  E(vib)   ...       0.02 
freq.    1053.11  E(vib)   ...       0.02 
freq.    1066.23  E(vib)   ...       0.02 
freq.    1075.67  E(vib)   ...       0.02 
freq.    1093.82  E(vib)   ...       0.02 
freq.    1102.47  E(vib)   ...       0.02 
freq.    1109.21  E(vib)   ...       0.02 
freq.    1143.45  E(vib)   ...       0.01 
freq.    1155.10  E(vib)   ...       0.01 
freq.    1161.90  E(vib)   ...       0.01 
freq.    1182.80  E(vib)   ...       0.01 
freq.    1198.36  E(vib)   ...       0.01 
freq.    1212.58  E(vib)   ...       0.01 
freq.    1239.59  E(vib)   ...       0.01 
freq.    1248.45  E(vib)   ...       0.01 
freq.    1288.04  E(vib)   ...       0.01 
freq.    1292.11  E(vib)   ...       0.01 
freq.    1297.42  E(vib)   ...       0.01 
freq.    1338.56  E(vib)   ...       0.01 
freq.    1347.67  E(vib)   ...       0.01 
freq.    1361.44  E(vib)   ...       0.01 
freq.    1370.13  E(vib)   ...       0.01 
freq.    1373.96  E(vib)   ...       0.01 
freq.    1383.48  E(vib)   ...       0.00 
freq.    1389.19  E(vib)   ...       0.00 
freq.    1396.71  E(vib)   ...       0.00 
freq.    1422.81  E(vib)   ...       0.00 
freq.    1431.67  E(vib)   ...       0.00 
freq.    1433.50  E(vib)   ...       0.00 
freq.    1439.34  E(vib)   ...       0.00 
freq.    1445.61  E(vib)   ...       0.00 
freq.    1449.32  E(vib)   ...       0.00 
freq.    1463.29  E(vib)   ...       0.00 
freq.    1482.30  E(vib)   ...       0.00 
freq.    1505.59  E(vib)   ...       0.00 
freq.    1511.15  E(vib)   ...       0.00 
freq.    1514.02  E(vib)   ...       0.00 
freq.    1516.53  E(vib)   ...       0.00 
freq.    1523.27  E(vib)   ...       0.00 
freq.    1523.80  E(vib)   ...       0.00 
freq.    1526.73  E(vib)   ...       0.00 
freq.    1530.64  E(vib)   ...       0.00 
freq.    1534.55  E(vib)   ...       0.00 
freq.    1537.94  E(vib)   ...       0.00 
freq.    1538.91  E(vib)   ...       0.00 
freq.    1770.96  E(vib)   ...       0.00 
freq.    1796.17  E(vib)   ...       0.00 
freq.    3063.26  E(vib)   ...       0.00 
freq.    3084.79  E(vib)   ...       0.00 
freq.    3085.62  E(vib)   ...       0.00 
freq.    3088.46  E(vib)   ...       0.00 
freq.    3093.56  E(vib)   ...       0.00 
freq.    3094.03  E(vib)   ...       0.00 
freq.    3100.56  E(vib)   ...       0.00 
freq.    3105.37  E(vib)   ...       0.00 
freq.    3109.82  E(vib)   ...       0.00 
freq.    3116.74  E(vib)   ...       0.00 
freq.    3118.28  E(vib)   ...       0.00 
freq.    3136.88  E(vib)   ...       0.00 
freq.    3138.64  E(vib)   ...       0.00 
freq.    3140.93  E(vib)   ...       0.00 
freq.    3157.47  E(vib)   ...       0.00 
freq.    3174.45  E(vib)   ...       0.00 
freq.    3183.69  E(vib)   ...       0.00 
freq.    3186.40  E(vib)   ...       0.00 
freq.    3186.93  E(vib)   ...       0.00 
freq.    3187.91  E(vib)   ...       0.00 
freq.    3198.50  E(vib)   ...       0.00 
freq.    3202.32  E(vib)   ...       0.00 
freq.    3209.40  E(vib)   ...       0.00 
freq.    3296.26  E(vib)   ...       0.00 

------------
INNER ENERGY
------------

The inner energy is: U= E(el) + E(ZPE) + E(vib) + E(rot) + E(trans)
    E(el)   - is the total energy from the electronic structure calculation
              = E(kin-el) + E(nuc-el) + E(el-el) + E(nuc-nuc)
    E(ZPE)  - the the zero temperature vibrational energy from the frequency calculation
    E(vib)  - the the finite temperature correction to E(ZPE) due to population
              of excited vibrational states
    E(rot)  - is the rotational thermal energy
    E(trans)- is the translational thermal energy

Summary of contributions to the inner energy U:
Electronic energy                ...    -99.93594720 Eh
Zero point energy                ...      0.36574226 Eh     229.51 kcal/mol
Thermal vibrational correction   ...      0.01257551 Eh       7.89 kcal/mol
Thermal rotational correction    ...      0.00141627 Eh       0.89 kcal/mol
Thermal translational correction ...      0.00141627 Eh       0.89 kcal/mol
-----------------------------------------------------------------------
Total thermal energy                    -99.55479688 Eh


Summary of corrections to the electronic energy:
(perhaps to be used in another calculation)
Total thermal correction                  0.01540806 Eh       9.67 kcal/mol
Non-thermal (ZPE) correction              0.36574226 Eh     229.51 kcal/mol
-----------------------------------------------------------------------
Total correction                          0.38115032 Eh     239.17 kcal/mol


--------
ENTHALPY
--------

The enthalpy is H = U + kB*T
                kB is Boltzmann's constant
Total thermal energy              ...    -99.55479688 Eh 
Thermal Enthalpy correction       ...      0.00094421 Eh       0.59 kcal/mol
-----------------------------------------------------------------------
Total Enthalpy                    ...    -99.55385267 Eh


Note: Only C1 symmetry has been detected, increase convergence thresholds 
      if your molecule has a higher symmetry. Symmetry factor of 1.0 is   
      used for the rotational entropy correction. 
 

Note: Rotational entropy computed according to Herzberg 
Infrared and Raman Spectra, Chapter V,1, Van Nostrand Reinhold, 1945 
Point Group:  C1, Symmetry Number:   1  
Rotational constants in cm-1:     0.028091     0.015289     0.011816 

Vibrational entropy computed according to the QRRHO of S. Grimme
Chem.Eur.J. 2012 18 9955 using a reference frequency of 100.0 cm-1


-------
ENTROPY
-------

The entropy contributions are T*S = T*(S(el)+S(vib)+S(rot)+S(trans))
     S(el)   - electronic entropy
     S(vib)  - vibrational entropy
     S(rot)  - rotational entropy
     S(trans)- translational entropy
The entropies will be listed as multiplied by the temperature to get
units of energy

Electronic entropy                ...      0.00000000 Eh      0.00 kcal/mol
Vibrational entropy               ...      0.02155576 Eh     13.53 kcal/mol
Rotational entropy                ...      0.01526617 Eh      9.58 kcal/mol
Translational entropy             ...      0.01988345 Eh     12.48 kcal/mol
-----------------------------------------------------------------------
Final entropy term                ...      0.05670538 Eh     35.58 kcal/mol

In case the symmetry of your molecule has not been determined correctly
or in case you have a reason to use a different symmetry number we print 
out the resulting rotational entropy values for sn=1,12:

 non-linear molecules -----------------------------------
|  sn= 1 | S(rot)=       0.01526617 Eh      9.58 kcal/mol|
|  sn= 2 | S(rot)=       0.01461171 Eh      9.17 kcal/mol|
|  sn= 3 | S(rot)=       0.01422888 Eh      8.93 kcal/mol|
|  sn= 4 | S(rot)=       0.01395726 Eh      8.76 kcal/mol|
|  sn= 5 | S(rot)=       0.01374657 Eh      8.63 kcal/mol|
|  sn= 6 | S(rot)=       0.01357442 Eh      8.52 kcal/mol|
|  sn= 7 | S(rot)=       0.01342888 Eh      8.43 kcal/mol|
|  sn= 8 | S(rot)=       0.01330280 Eh      8.35 kcal/mol|
|  sn= 9 | S(rot)=       0.01319159 Eh      8.28 kcal/mol|
|  sn=10 | S(rot)=       0.01309211 Eh      8.22 kcal/mol|
|  sn=11 | S(rot)=       0.01300212 Eh      8.16 kcal/mol|
|  sn=12 | S(rot)=       0.01291997 Eh      8.11 kcal/mol|
 linear molecules ---------------------------------------
|  Dinfh | S(rot)=       0.00951639 Eh      5.97 kcal/mol|
|  Cinfv | S(rot)=       0.01017084 Eh      6.38 kcal/mol|
 --------------------------------------------------------


-------------------
GIBBS FREE ENERGY
-------------------

The Gibbs free energy is G = H - T*S

Total enthalpy                    ...    -99.55385267 Eh 
Total entropy correction          ...     -0.05670538 Eh    -35.58 kcal/mol
-----------------------------------------------------------------------
Final Gibbs free energy         ...    -99.61055805 Eh

For completeness - the Gibbs free energy minus the electronic energy
G-E(el)                           ...      0.32538915 Eh    204.18 kcal/mol


Maximum memory used throughout the entire PROP-calculation: 241.4 MB

--------------------------------
SUGGESTED CITATIONS FOR THIS RUN
--------------------------------

Below you find a list of papers that are relevant to this ORCA run
We neither can nor want to force you to cite these papers, but we appreciate if you do
You receive ORCA, which is the product of decades of hard work by many enthusiastic individuals, for free
The only thing we kindly ask in return is that you cite our papers,
We deeply appreciate it, if you show your appreciation for ORCA by not just citing the generic ORCA reference.

Please note that relegating all ORCA citations to the supporting information does *not* help us.
SI sections are not indexed - citations you put there will not count into any citation statistics
But we need these citations in order to attract the funding resources that allow us to do what we are doing

Therefore, if you are a happy ORCA user, please consider citing a few of the papers listed below in the main body of your paper

In addition to the list printed below, the program has created the file ./output/alpha_guaiene/alpha_guaiene.bibtex that contains the list in bibtex format
You can import this file easily into all common literature databanks and citation aid programs


List of essential papers. We consider these as the minimum necessary citations

  1. Neese,F.
     Software update: the ORCA program system, version 5.0
     WIRES Comput. Molec. Sci., 2022 12(1)e1606
     doi.org/10.1002/wcms.1606
  2. Mueller,M.; Hansen,A.; Grimme,S.
     wB97X-3c: A composite range-separated hybrid DFT method with a molecule-optimized polarized valence double-zeta basis set
     J. Chem. Phys., 2023 158 014103
     doi.org/10.1063/5.0133026

List of papers to cite with high priority. The work reported in these papers was absolutely
necessary for this run to complete.
Our perspective: the developers of density functionals and basis sets usually get cited in chemistry papers
Good! But without the algorithms to do something with them, the functionals or basis sets would not do anything.
Hence, in our opinion, the algorithm design and method developments papers are equally worthy of getting cited

  1. Neese,F.
     An improvement of the resolution of the identity approximation for the formation of the Coulomb matrix
     J. Comp. Chem., 2003 24(14)1740-1747
     doi.org/10.1002/jcc.10318
  2. Neese,F.; Wennmohs,F.; Hansen,A.; Becker,U.
     Efficient, approximate and parallel Hartree-Fock and hybrid DFT calculations. A 'chain-of-spheres' algorithm for the Hartree-Fock exchange
     Chem. Phys., 2009 356(1-3)98-109
     doi.org/10.1016/j.chemphys.2008.10.036
  3. Bykov,D.; Petrenko,T.; Izsak,R.; Kossmann,S.; Becker,U.; Valeev,E.; Neese,F.
     Efficient implementation of the analytic second derivatives of Hartree-Fock and hybrid DFT energies: a detailed analysis of different approximations
     Molec. Phys., 2015 113 1961-1977
     doi.org/10.1080/00268976.2015.1025114
  4. Helmich-Paris,B.; de Souza,B.; Neese,F.; Izsák,R.
     An improved chain of spheres for exchange algorithm
     J. Chem. Phys., 2021 155 104109
     doi.org/doi: 10.1063/5.0058766.
  5. Neese,F.
     The SHARK Integral Generation and Digestion System
     J. Comp. Chem., 2022  1-16
     doi.org/10.1002/jcc.26942
  6. Caldeweyher,E.; Bannwarth,C.; Grimme,S.
     Extension of the D3 dispersion coefficient model
     J. Chem. Phys., 2017 147 034112
     doi.org/10.1063/1.4993215
  7. Caldeweyher,E.; Ehlert,S.; Hansen,A.; Neugebauer,H.; Spicher,S.; Bannwarth,C.; Grimme,S.
     A generally applicable atomic-charge dependent London dispersion correction
     J. Chem. Phys., 2019 150 154122
     doi.org/10.1063/1.5090222
  8. Caldeweyher,E.; Mewes,J.; Ehlert,S.; Grimme,S.
     Extension and evaluation of the D4 London-dispersion model for periodic systems
     Phys. Chem. Chem. Phys., 2020 22(16)8499-8512
     doi.org/10.1039/D0CP00502A
  9. Wittmann,L.; Gordiy,I.; Friede,M.; Helmich-Paris,B.; Grimme,S.; Hansen,A.; Bursch,M.
     Extension of the D3 and D4 London Dispersion Corrections to the full Actinides Series
     Phys. Chem. Chem. Phys., 2024 26(32)21379-21394
     doi.org/https://doi.org/10.1039/D4CP01514B 

List of suggested additional citations. These are papers that are important in the 'surrounding' of 
of this run, or papers that preceded the highly important papers. If you like your results we are grateful for a citation.

  1. Izsak,R.; Neese,F.
     An overlap fitted chain of spheres exchange method
     J. Chem. Phys., 2011 135 144105
     doi.org/10.1063/1.3646921
  2. Izsak,R.; Hansen,A.; Neese,F.
     The resolution of identity and chain of spheres approximations for the LPNO-CCSD singles Fock term
     Molec. Phys., 2012 110 2413-2417
     doi.org/10.1080/00268976.2012.687466
  3. Neese,F.
     The ORCA program system
     WIRES Comput. Molec. Sci., 2012 2(1)73-78
     doi.org/10.1002/wcms.81
  4. Izsak,R.; Neese,F.; Klopper,W.
     Robust fitting techniques in the chain of spheres approximation to the Fock exchange: The role of the complementary space
     J. Chem. Phys., 2013 139 
     doi.org/10.1063/1.4819264
  5. Neese,F.
     Software update: the ORCA program system, version 4.0
     WIRES Comput. Molec. Sci., 2018 8(1)1-6
     doi.org/10.1002/wcms.1327
  6. Neese,F.; Wennmohs,F.; Becker,U.; Riplinger,C.
     The ORCA quantum chemistry program package
     J. Chem. Phys., 2020 152 Art. No. L224108
     doi.org/10.1063/5.0004608

List of optional additional citations

  1. Neese,F.
     Approximate second-order SCF convergence for spin unrestricted wavefunctions
     Chem. Phys. Lett., 2000 325(1-3)93-98
     doi.org/10.1016/s0009-2614(00)00662-x

Timings for individual modules:

Sum of individual times          ...     2193.833 sec (=  36.564 min)
Startup calculation              ...       97.439 sec (=   1.624 min)   4.4 %
SCF iterations                   ...     1363.807 sec (=  22.730 min)  62.2 %
Property integrals               ...      142.272 sec (=   2.371 min)   6.5 %
SCF Response                     ...       86.197 sec (=   1.437 min)   3.9 %
Property calculations            ...      206.316 sec (=   3.439 min)   9.4 %
SCF Gradient evaluation          ...      297.331 sec (=   4.956 min)  13.6 %
Geometry relaxation              ...        0.471 sec (=   0.008 min)   0.0 %
                             ****ORCA TERMINATED NORMALLY****
TOTAL RUN TIME: 0 days 0 hours 36 minutes 43 seconds 122 msec
