
                                 *****************
                                 * O   R   C   A *
                                 *****************

                                            #,                                       
                                            ###                                      
                                            ####                                     
                                            #####                                    
                                            ######                                   
                                           ########,                                 
                                     ,,################,,,,,                         
                               ,,#################################,,                 
                          ,,##########################################,,             
                       ,#########################################, ''#####,          
                    ,#############################################,,   '####,        
                  ,##################################################,,,,####,       
                ,###########''''           ''''###############################       
              ,#####''   ,,,,##########,,,,          '''####'''          '####       
            ,##' ,,,,###########################,,,                        '##       
           ' ,,###''''                  '''############,,,                           
         ,,##''                                '''############,,,,        ,,,,,,###''
      ,#''                                            '''#######################'''  
     '                                                          ''''####''''         
             ,#######,   #######,   ,#######,      ##                                
            ,#'     '#,  ##    ##  ,#'     '#,    #''#        ,####,   ,####,        
            ##       ##  ##   ,#'  ##            #'  '#       #'       #'  '#        
            ##       ##  #######   ##           ,######,      #####,   #    #        
            '#,     ,#'  ##    ##  '#,     ,#' ,#      #,     #,   #   #,  ,#        
             '#######'   ##     ##  '#######'  #'      '#     '####' # '####'        



                #########################################################
                #                        -***-                          #
                #          Department of theory and spectroscopy        #
                #                                                       #
                #                      Frank Neese                      #
                #                                                       #
                #     Directorship, Architecture, Infrastructure        #
                #                    SHARK, DRIVERS                     #
                #        Core code/Algorithms in most modules           #
                #                                                       #
                #        Max Planck Institute fuer Kohlenforschung      #
                #                Kaiser Wilhelm Platz 1                 #
                #                 D-45470 Muelheim/Ruhr                 #
                #                      Germany                          #
                #                                                       #
                #                  All rights reserved                  #
                #                        -***-                          #
                #########################################################


                         Program Version 6.0.1  -  RELEASE   -


 With contributions from (in alphabetic order):
[Max-Planck-Institut fuer Kohlenforschung]                               
  Daniel Aravena         : Magnetic Suceptibility                        
  Michael Atanasov       : Ab Initio Ligand Field Theory (pilot matlab implementation)
  Alexander A. Auer      : GIAO ZORA, VPT2 properties, NMR spectrum      
  Ute Becker             : All parallelization in ORCA, NUMFREQ, NUMCALC 
  Giovanni Bistoni       : ED, misc. LED, open-shell LED, HFLD           
  Martin Brehm           : Molecular dynamics                            
  Dmytro Bykov           : pre 5.0 version of the SCF Hessian            
  Marcos Casanova-Páez   : Triplet and SCS-CIS(D). UHF-(DLPNO)-IP/EA/STEOM-CCSD. UHF-CVS-IP/STEOM-CCSD   
  Vijay G. Chilkuri      : MRCI spin determinant printing, contributions to CSF-ICE 
  Pauline Colinet        : FMM embedding                                 
  Dipayan Datta          : RHF DLPNO-CCSD density                        
  Achintya Kumar Dutta   : EOM-CC, STEOM-CC                              
  Nicolas Foglia         : Exact transition moments, OPA infrastructure, MCD improvements    
  Dmitry Ganyushin       : Spin-Orbit,Spin-Spin,Magnetic field MRCI      
  Miquel Garcia-Rates    : C-PCM and meta-GGA Hessian, CCSD/C-PCM, Gaussian charge scheme 
  Tiago L. C. Gouveia    : GS-ROHF, GS-ROCIS                             
  Yang Guo               : DLPNO-NEVPT2, F12-NEVPT2, CIM, IAO-localization        
  Andreas Hansen         : Spin unrestricted coupled pair/coupled cluster methods 
  Ingolf Harden          : AUTO-CI MPn and infrastructure                
  Benjamin Helmich-Paris : MC-RPA, TRAH-(SCF,CASSCF), AVAS, COSX integrals, SCF dyn. polar. 
  Lee Huntington         : MR-EOM, pCC                                   
  Robert Izsak           : Overlap fitted RIJCOSX, COSX-SCS-MP3, EOM     
  Riya Kayal             : Wick's Theorem for AUTO-CI, AUTO-CI UHF-CCSDT 
  Emily Kempfer          : AUTO-CI, RHF CISDT and CCSDT                  
  Christian Kollmar      : KDIIS, OOCD, Brueckner-CCSD(T), CCSD density, CASPT2, CASPT2-K, improved NEVPT2 
  Axel Koslowski         : Symmetry handling                             
  Simone Kossmann        : meta-GGA functionals, TD-DFT gradient, OOMP2, (MP2 Hessian; deprecated post 5.0) 
  Lucas Lang             : DCDCAS                                        
  Marvin Lechner         : AUTO-CI (C++ implementation), FIC-MRCC        
  Spencer Leger          : CASSCF response                               
  Dagmar Lenk            : GEPOL surface, SMD, ORCA-2-JSON               
  Dimitrios Liakos       : Extrapolation schemes; Compound Job, initial MDCI parallelization 
  Dimitrios Manganas     : Further ROCIS development; embedding schemes. LFT, Crystal Embedding 
  Dimitrios Pantazis     : SARC Basis sets                               
  Anastasios Papadopoulos: AUTO-CI, single reference methods and gradients 
  Taras Petrenko         : pre 6.0 DFT Hessian and TD-DFT gradient, (ASA, deprecated), ECA, 1-Electron XAS/XES, NRVS 
  Peter Pinski           : DLPNO-MP2, DLPNO-MP2 Gradient                 
  Christoph Reimann      : Effective Core Potentials                     
  Marius Retegan         : Local ZFS, SOC                                
  Christoph Riplinger    : Optimizer, TS searches, QM/MM, DLPNO-CCSD(T), (RO)-DLPNO pert. Triples 
  Michael Roemelt        : Original ROCIS implementation                 
  Masaaki Saitow         : Open-shell DLPNO-CCSD energy and density      
  Barbara Sandhoefer     : DKH picture change effects                    
  Kantharuban Sivalingam : CASSCF convergence/infrastructure, NEVPT2 and variants, FIC-MRCI 
  Bernardo de Souza      : ESD, SOC TD-DFT                               
  Georgi L. Stoychev     : AutoAux, RI-MP2 NMR, DLPNO-MP2 response, X2C  
  Van Anh Tran           : RI-MP2 g-tensors                              
  Willem Van den Heuvel  : Paramagnetic NMR                              
  Zikuan Wang            : NOTCH, Electric field optimization            
  Frank Wennmohs         : Technical directorship and infrastructure     
  Hang Xu                : AUTO-CI-Response properties                   
                                                                         
[FACCTs GmbH]                                                            
  Markus Bursch, Miquel Garcia-Rates, Christoph Riplinger, Bernardo de Souza, Georgi L. Stoychev 
                                                                 
  APM, Basis sets (HGBS, AHGBS, def-TZVP (Ac-Lr), def2-XVPD (La-Lu)), CI-OPT, improved COSX, DLPNO-Multilevel,           
  DOCKER, DRACO, updates on ESD, GOAT, IRC, LR-CPCM, MBIS, meta-GGA TD-DFT gradient, ML-optimized integration grids, 
  MM, NACMEs, nearIR, NEB, NEB-TS, NL-DFT gradient (VV10), 2- and 3-layer-ONIOM, interface openCOSMO-RS, QMMM,   
  Crystal-QMMM, SF, symmetry and pop. for TD-DFT, r2SCAN hybrids, SOLVATOR                                   
                                                                         
[Other institutions]                                                     
  V. Asgeirsson          : NEB                                           
  Christoph Bannwarth    : sTDA-DFT, sTD-DFT, PBEh-3c, B97-3c, D3        
  Sebastian Ehlert       : rSCAN, r2SCAN, r2SCAN-3c, D4, dhf basis sets  
  Marvin Friede          : D4 for Fr, Ra, Ac-Lr                          
  Lars Goerigk           : TD-DFT with DH, B97 family of functionals     
  Stefan Grimme          : VdW corrections, initial TS optimization, DFT functionals, gCP, sTDA/sTD-DF 
  Waldemar Hujo          : DFT-NL                                        
  H. Jonsson             : NEB                                           
  Holger Kruse           : gCP                                           
  Marcel Mueller         : wB97X-3c, vDZP basis set                      
  Hagen Neugebauer       : wr2SCAN                                       
  Tobias Risthaus        : range-separated hybrid DFT                    
  Lukas Wittmann         : regularized MP2, r2SCAN double-hybrids, wr2SCAN        
                                                                         
We gratefully acknowledge several colleagues who have allowed us to      
interface, adapt or use parts of their codes:                            
  Ed Valeev, F. Pavosevic, A. Kumar             : LibInt (2-el integral package), F12 methods 
  Garnet Chan, S. Sharma, J. Yang, R. Olivares  : DMRG                   
  Ulf Ekstrom                                   : XCFun DFT Library      
  Mihaly Kallay                                 : mrcc  (arbitrary order and MRCC methods)
  Frank Weinhold                                : gennbo (NPA and NBO analysis)           
  Simon Mueller                                 : openCOSMO-RS                            
  Christopher J. Cramer and Donald G. Truhlar   : smd solvation model                     
  S Lehtola, MJT Oliveira, MAL Marques          : LibXC Library                           
  Liviu Ungur et al                             : ANISO software                          


 Your calculation uses the libint2 library for the computation of 2-el integrals
 For citations please refer to: http://libint.valeyev.net

 Your ORCA version has been built with support for libXC version: 6.2.2
 For citations please refer to: https://libxc.gitlab.io

 This ORCA versions uses:
   CBLAS   interface :  Fast vector & matrix operations
   LAPACKE interface :  Fast linear algebra routines
   SCALAPACK package :  Parallel linear algebra routines
   Shared memory     :  Shared parallel matrices
   BLAS/LAPACK       :  OpenBLAS 0.3.27  USE64BITINT DYNAMIC_ARCH NO_AFFINITY SkylakeX SINGLE_THREADED
        Core in use  :  SkylakeX
   Copyright (c) 2011-2014, The OpenBLAS Project


Your calculation utilizes the atom-pairwise dispersion correction
based on EEQ partial charges (D4)


================================================================================

cite the ECPs for C  [vDZP-ECP], O  [vDZP-ECP] as follows:
   B-Ne (ecp-2-mwb), Al-Ar (ecp-10-mwb), Ga-Kr (ecp-28-mwb), Y-Cd (ecp-28-mwb), In-Xe (ecp-46-mwb):
     A. Bergner, M. Dolg, W. Küchle, H. Stoll, and H. Preuß, Mol. Phys. 80, 1431 (1993)., T. Leininger, A. Berning, A. Nicklass, H. Stoll, H.-J. Werner, and H.-J.Flad, Chem. Phys. 217, 19 (1997).
   Na-Mg, K-Ca, Rb-Sr, Cs-Ba (CRENBL):
     L. Fernandez Pacios and P. A. Christiansen, J. Chem. Phys. 82, 2664 (1985)., M. M. Hurley, L. F. Pacios, P. A. Christiansen, R. B. Ross, and W. C. Ermler, J. Chem. Phys. 84, 6840 (1986)., L. A. LaJohn, P. A. Christiansen, R. B. Ross, T. Atashroo, and W. C. Ermler, J. Chem. Phys. 87, 2812 (1987)., R. B. Ross, J. M. Powers, T. Atashroo, W. C. Ermler, L. A. LaJohn, and P. A. Christiansen, J. Chem. Phys. 93, 6654 (1990). 
   Sc-Zn (ecp-10-mdf):
     M. Dolg, U. Wedig, H. Stoll, and H. Preuss, J. Chem. Phys. 86, 866 (1986). 
   Y-Cd (ecp-28-mwb), Hf-Hg (ecp-60-mwb):
     D. Andrae, U. Häußermann, M. Dolg, H. Stoll, and H. Preuß, Theor. Chim. Acta 77, 123 (1990). 
   La (ecp-46-mwb):
     M. Dolg, H. Stoll, and H. Preuss, J. Chem. Phys. 90, 1730 (1989)., M. Dolg, H. Stoll, and H. Preuss, Theor. Chim. Acta 85, 441 (1993).
   Ce-Lu (SBKJC-ecp):
     T. R. Cundari and W. J. Stevens, J. Chem. Phys. 98, 5555 (1993).
   Tl-Rn (ecp-78-mwb):
     W. Küchle, M. Dolg, H. Stoll, and H. Preuss, Mol. Phys. 74, 1245 (1991).

ECP parameters for C  [vDZP-ECP], O  [vDZP-ECP] have been obtained from:
MM, AH, SG, J. Chem. Phys. 158, 014103 (2023), 10.1063/5.0133026

----- Orbital basis set information -----
Your calculation utilizes the basis: vDZP
   Marcel Mueller, Andreas Hansen, Stefan Grimme 
   J. Chem. Phys. 158, 014103 (2023). DOI: 10.1063/5.0133026

----- AuxJ basis set information -----
Your calculation utilizes the auxiliary basis: def2/J
   F. Weigend, Phys. Chem. Chem. Phys. 8, 1057 (2006).

================================================================================
                                        WARNINGS
                       Please study these warnings very carefully!
================================================================================

WARNING: Frozen-Core approximation turned on, but there are no core electrons.
  ===> : Turning off frozen-core approximation


WARNING: Geometry Optimization
  ===> : Switching off AutoStart
         For restart on a previous wavefunction, please use MOREAD

================================================================================
                                       INPUT FILE
================================================================================
NAME = ./output/1_8_cineole/1_8_cineole.inp
|  1> ! wB97X-3c OPT FREQ TightSCF
|  2> %pal
|  3>   nprocs 40
|  4> end
|  5> * xyz 0 1
|  6> C      2.032287    -0.226836    -1.422631
|  7> C      1.229405     0.119264    -0.149887
|  8> C      0.558928    -1.174145     0.455506
|  9> C     -0.271600    -0.761071     1.694335
| 10> C     -1.217816     0.401321     1.307435
| 11> C     -1.085827     0.704685    -0.212933
| 12> O      0.253331     1.113446    -0.495078
| 13> C     -1.405002    -0.589184    -1.016052
| 14> C     -0.454390    -1.728328    -0.574625
| 15> C     -2.042069     1.831753    -0.616363
| 16> C      2.216096     0.745876     0.859114
| 17> H      1.360065    -0.499132    -2.261480
| 18> H      2.621157     0.650084    -1.767915
| 19> H      2.732138    -1.068090    -1.229234
| 20> H      1.310866    -1.947999     0.724822
| 21> H     -0.866490    -1.627185     2.059923
| 22> H      0.389183    -0.467219     2.536502
| 23> H     -0.950964     1.307942     1.893688
| 24> H     -2.267227     0.128669     1.556635
| 25> H     -1.272975    -0.395979    -2.103298
| 26> H     -2.460977    -0.896580    -0.848353
| 27> H      0.067981    -2.166858    -1.450440
| 28> H     -1.042284    -2.557443    -0.122243
| 29> H     -1.938683     2.052200    -1.700350
| 30> H     -3.095693     1.545546    -0.409422
| 31> H     -1.805511     2.756616    -0.048050
| 32> H      1.680693     1.197678     1.718718
| 33> H      2.930686    -0.017279     1.235758
| 34> H      2.794689     1.568249     0.385922
| 35> *
| 36> 
| 37>                          ****END OF INPUT****
================================================================================

                       *****************************
                       * Geometry Optimization Run *
                       *****************************

Geometry optimization settings:
Update method            Update   .... BFGS
Choice of coordinates    CoordSys .... (2022) Redundant Internals
Initial Hessian          InHess   .... Almloef's Model
Max. no of cycles        MaxIter  .... 87

Convergence Tolerances:
Energy Change            TolE     ....  5.0000e-06 Eh
Max. Gradient            TolMAXG  ....  3.0000e-04 Eh/bohr
RMS Gradient             TolRMSG  ....  1.0000e-04 Eh/bohr
Max. Displacement        TolMAXD  ....  4.0000e-03 bohr
RMS Displacement         TolRMSD  ....  2.0000e-03 bohr
Strict Convergence                .... False

------------------------------------------------------------------------------
                        ORCA OPTIMIZATION COORDINATE SETUP
------------------------------------------------------------------------------

The optimization will be done in redundant internal coordinates (2022)
Making redundant internal coordinates   ...  (2022 redundants) done
Evaluating the initial hessian          ...  (Almloef) done
Evaluating the coordinates              ...  done
Calculating the B-matrix                .... done
Calculating the G-matrix                .... done
Diagonalizing the G-matrix              .... done
The first mode is                       ....   76
The number of degrees of freedom        ....   81

    -----------------------------------------------------------------
                    Redundant Internal Coordinates


    -----------------------------------------------------------------
         Definition                    Initial Value    Approx d2E/dq
    -----------------------------------------------------------------
      1. B(C   1,C   0)                  1.5441         0.354701   
      2. B(C   2,C   1)                  1.5776         0.313597   
      3. B(C   3,C   2)                  1.5476         0.350169   
      4. B(C   4,C   3)                  1.5480         0.349726   
      5. B(C   5,C   4)                  1.5559         0.339611   
      6. B(O   6,C   5)                  1.4283         0.486153   
      7. B(O   6,C   1)                  1.4354         0.473693   
      8. B(C   7,C   5)                  1.5559         0.339611   
      9. B(C   8,C   7)                  1.5480         0.349727   
     10. B(C   8,C   2)                  1.5476         0.350170   
     11. B(C   9,C   5)                  1.5321         0.370657   
     12. B(C  10,C   1)                  1.5441         0.354700   
     13. B(H  11,C   0)                  1.1089         0.335926   
     14. B(H  12,C   0)                  1.1113         0.333003   
     15. B(H  13,C   0)                  1.1113         0.333044   
     16. B(H  14,C   2)                  1.1121         0.332006   
     17. B(H  15,C   3)                  1.1125         0.331507   
     18. B(H  16,C   3)                  1.1101         0.334520   
     19. B(H  17,C   4)                  1.1121         0.331966   
     20. B(H  18,C   4)                  1.1125         0.331507   
     21. B(H  19,C   7)                  1.1121         0.331967   
     22. B(H  20,C   7)                  1.1125         0.331509   
     23. B(H  21,C   8)                  1.1101         0.334518   
     24. B(H  22,C   8)                  1.1125         0.331508   
     25. B(H  23,C   9)                  1.1110         0.333368   
     26. B(H  24,C   9)                  1.1112         0.333066   
     27. B(H  25,C   9)                  1.1110         0.333370   
     28. B(H  26,C  10)                  1.1089         0.335923   
     29. B(H  27,C  10)                  1.1113         0.333042   
     30. B(H  28,C  10)                  1.1113         0.333002   
     31. A(C   1,C   0,H  11)          111.3063         0.317944   
     32. A(C   1,C   0,H  13)          110.7135         0.317498   
     33. A(H  11,C   0,H  12)          106.2572         0.284202   
     34. A(H  12,C   0,H  13)          108.5252         0.283822   
     35. A(H  11,C   0,H  13)          109.1190         0.284208   
     36. A(C   1,C   0,H  12)          110.7785         0.317492   
     37. A(C   2,C   1,C  10)          110.7023         0.349620   
     38. A(C   0,C   1,O   6)          108.0958         0.372768   
     39. A(C   0,C   1,C   2)          110.7023         0.349620   
     40. A(O   6,C   1,C  10)          108.0957         0.372767   
     41. A(C   0,C   1,C  10)          107.2962         0.356988   
     42. A(C   2,C   1,O   6)          111.7855         0.364966   
     43. A(C   3,C   2,H  14)          110.7768         0.316673   
     44. A(C   3,C   2,C   8)          106.0823         0.355433   
     45. A(C   8,C   2,H  14)          110.7767         0.316673   
     46. A(C   1,C   2,C   3)          108.4464         0.348863   
     47. A(C   1,C   2,C   8)          108.4464         0.348863   
     48. A(C   1,C   2,H  14)          112.0896         0.311059   
     49. A(C   2,C   3,H  15)          110.0117         0.316596   
     50. A(C   2,C   3,C   4)          109.1712         0.355356   
     51. A(C   4,C   3,H  15)          109.8694         0.316531   
     52. A(H  15,C   3,H  16)          105.9669         0.283819   
     53. A(C   4,C   3,H  16)          110.7757         0.316997   
     54. A(C   2,C   3,H  16)          111.0082         0.317062   
     55. A(H  17,C   4,H  18)          107.9413         0.283481   
     56. A(C   5,C   4,H  18)          110.2840         0.315024   
     57. A(C   5,C   4,H  17)          109.6206         0.315095   
     58. A(C   3,C   4,H  18)          109.6683         0.316531   
     59. A(C   3,C   4,H  17)          109.4951         0.316602   
     60. A(C   3,C   4,C   5)          109.8026         0.353517   
     61. A(C   4,C   5,O   6)          109.1690         0.371645   
     62. A(C   4,C   5,C   9)          110.3511         0.357020   
     63. A(O   6,C   5,C   7)          109.1687         0.371645   
     64. A(C   4,C   5,C   7)          108.9551         0.351765   
     65. A(C   7,C   5,C   9)          110.3513         0.357020   
     66. A(O   6,C   5,C   9)          108.8222         0.377297   
     67. A(C   1,O   6,C   5)          113.0696         0.391247   
     68. A(C   5,C   7,C   8)          109.8028         0.353517   
     69. A(H  19,C   7,H  20)          107.9414         0.283481   
     70. A(C   8,C   7,H  20)          109.6684         0.316531   
     71. A(C   5,C   7,H  20)          110.2836         0.315024   
     72. A(C   8,C   7,H  19)          109.4949         0.316602   
     73. A(C   5,C   7,H  19)          109.6207         0.315095   
     74. A(C   2,C   8,C   7)          109.1712         0.355356   
     75. A(H  21,C   8,H  22)          105.9666         0.283819   
     76. A(C   7,C   8,H  22)          109.8695         0.316531   
     77. A(C   2,C   8,H  22)          110.0113         0.316596   
     78. A(C   7,C   8,H  21)          110.7759         0.316997   
     79. A(C   2,C   8,H  21)          111.0088         0.317062   
     80. A(H  23,C   9,H  25)          108.3068         0.283914   
     81. A(C   5,C   9,H  25)          110.1691         0.319836   
     82. A(H  23,C   9,H  24)          108.7255         0.283873   
     83. A(C   5,C   9,H  24)          110.6871         0.319789   
     84. A(H  24,C   9,H  25)          108.7252         0.283874   
     85. A(C   5,C   9,H  23)          110.1693         0.319836   
     86. A(H  27,C  10,H  28)          108.5251         0.283822   
     87. A(H  26,C  10,H  28)          106.2570         0.284202   
     88. A(C   1,C  10,H  28)          110.7785         0.317492   
     89. A(H  26,C  10,H  27)          109.1194         0.284207   
     90. A(C   1,C  10,H  27)          110.7135         0.317498   
     91. A(C   1,C  10,H  26)          111.3063         0.317944   
     92. D(C   2,C   1,C   0,H  13)    -51.4891         0.010116   
     93. D(O   6,C   1,C   0,H  12)     65.3168         0.010116   
     94. D(O   6,C   1,C   0,H  11)    -52.6770         0.010116   
     95. D(C   2,C   1,C   0,H  11)     70.0670         0.010116   
     96. D(O   6,C   1,C   0,H  13)   -174.2331         0.010116   
     97. D(C   2,C   1,C   0,H  12)   -171.9392         0.010116   
     98. D(C   8,C   2,C   1,C   0)    -63.1840         0.008100   
     99. D(C   8,C   2,C   1,C  10)    177.9611         0.008100   
    100. D(C   3,C   2,C   1,O   6)    -57.3890         0.008100   
    101. D(C   8,C   2,C   1,O   6)     57.3886         0.008100   
    102. D(C   3,C   2,C   1,C  10)     63.1835         0.008100   
    103. D(C   3,C   2,C   1,C   0)   -177.9617         0.008100   
    104. D(C   4,C   3,C   2,C   8)    -64.6429         0.009878   
    105. D(C   4,C   3,C   2,C   1)     51.6721         0.009878   
    106. D(C   4,C   3,C   2,H  14)    175.0766         0.009878   
    107. D(H  15,C   3,C   2,C   8)     55.9929         0.009878   
    108. D(H  15,C   3,C   2,H  14)    -64.2875         0.009878   
    109. D(H  15,C   3,C   2,C   1)    172.3079         0.009878   
    110. D(H  17,C   4,C   3,H  16)      5.7567         0.009855   
    111. D(H  17,C   4,C   3,H  15)    122.4966         0.009855   
    112. D(H  17,C   4,C   3,C   2)   -116.7806         0.009855   
    113. D(C   5,C   4,C   3,H  15)   -117.1007         0.009855   
    114. D(C   5,C   4,C   3,C   2)      3.6221         0.009855   
    115. D(C   5,C   4,C   3,H  16)    126.1594         0.009855   
    116. D(C   7,C   5,C   4,H  18)    -63.6118         0.009340   
    117. D(C   7,C   5,C   4,H  17)    177.6762         0.009340   
    118. D(C   7,C   5,C   4,C   3)     57.3496         0.009340   
    119. D(O   6,C   5,C   4,C   3)    -61.7907         0.009340   
    120. D(O   6,C   5,C   4,H  18)    177.2479         0.009340   
    121. D(O   6,C   5,C   4,H  17)     58.5359         0.009340   
    122. D(C   5,O   6,C   1,C   0)    122.0812         0.017692   
    123. D(C   1,O   6,C   5,C   9)    179.9997         0.018655   
    124. D(C   1,O   6,C   5,C   7)    -59.5041         0.018655   
    125. D(C   1,O   6,C   5,C   4)     59.5035         0.018655   
    126. D(C   5,O   6,C   1,C  10)   -122.0803         0.017692   
    127. D(C   5,O   6,C   1,C   2)      0.0004         0.017692   
    128. D(H  19,C   7,C   5,C   9)     61.0189         0.009340   
    129. D(H  19,C   7,C   5,O   6)    -58.5359         0.009340   
    130. D(H  19,C   7,C   5,C   4)   -177.6764         0.009340   
    131. D(C   8,C   7,C   5,C   9)   -178.6545         0.009340   
    132. D(C   8,C   7,C   5,O   6)     61.7906         0.009340   
    133. D(C   8,C   7,C   5,C   4)    -57.3499         0.009340   
    134. D(H  21,C   8,C   7,H  20)    112.5088         0.009855   
    135. D(H  21,C   8,C   7,H  19)     -5.7570         0.009855   
    136. D(H  21,C   8,C   7,C   5)   -126.1598         0.009855   
    137. D(C   2,C   8,C   7,H  20)   -124.9532         0.009855   
    138. D(C   2,C   8,C   7,H  19)    116.7811         0.009855   
    139. D(C   2,C   8,C   7,C   5)     -3.6217         0.009855   
    140. D(H  21,C   8,C   2,H  14)    -52.6785         0.009878   
    141. D(H  21,C   8,C   2,C   3)   -172.9590         0.009878   
    142. D(H  21,C   8,C   2,C   1)     70.7261         0.009878   
    143. D(C   7,C   8,C   2,H  14)   -175.0769         0.009878   
    144. D(C   7,C   8,C   2,C   3)     64.6426         0.009878   
    145. D(C   7,C   8,C   2,C   1)    -51.6723         0.009878   
    146. D(H  24,C   9,C   5,C   7)     60.2380         0.010980   
    147. D(H  24,C   9,C   5,O   6)   -179.9977         0.010980   
    148. D(H  24,C   9,C   5,C   4)    -60.2332         0.010980   
    149. D(H  23,C   9,C   5,C   7)    -60.0457         0.010980   
    150. D(H  23,C   9,C   5,O   6)     59.7186         0.010980   
    151. D(H  23,C   9,C   5,C   4)    179.4831         0.010980   
    152. D(H  26,C  10,C   1,O   6)     52.6746         0.010115   
    153. D(H  26,C  10,C   1,C   2)    -70.0693         0.010115   
    154. D(H  26,C  10,C   1,C   0)    169.0339         0.010115   
    155. D(H  27,C  10,C   1,O   6)    174.2311         0.010115   
    156. D(H  27,C  10,C   1,C   2)     51.4872         0.010115   
    157. D(H  27,C  10,C   1,C   0)    -69.4096         0.010115   
    -----------------------------------------------------------------

Number of atoms                         .... 29
Number of degrees of freedom            .... 157


         *************************************************************
         *                GEOMETRY OPTIMIZATION CYCLE   1            *
         *************************************************************
---------------------------------
CARTESIAN COORDINATES (ANGSTROEM)
---------------------------------
  C      2.032287   -0.226836   -1.422631
  C      1.229405    0.119264   -0.149887
  C      0.558928   -1.174145    0.455506
  C     -0.271600   -0.761071    1.694335
  C     -1.217816    0.401321    1.307435
  C     -1.085827    0.704685   -0.212933
  O      0.253331    1.113446   -0.495078
  C     -1.405002   -0.589184   -1.016052
  C     -0.454390   -1.728328   -0.574625
  C     -2.042069    1.831753   -0.616363
  C      2.216096    0.745876    0.859114
  H      1.360065   -0.499132   -2.261480
  H      2.621157    0.650084   -1.767915
  H      2.732138   -1.068090   -1.229234
  H      1.310866   -1.947999    0.724822
  H     -0.866490   -1.627185    2.059923
  H      0.389183   -0.467219    2.536502
  H     -0.950964    1.307942    1.893688
  H     -2.267227    0.128669    1.556635
  H     -1.272975   -0.395979   -2.103298
  H     -2.460977   -0.896580   -0.848353
  H      0.067981   -2.166858   -1.450440
  H     -1.042284   -2.557443   -0.122243
  H     -1.938683    2.052200   -1.700350
  H     -3.095693    1.545546   -0.409422
  H     -1.805511    2.756616   -0.048050
  H      1.680693    1.197678    1.718718
  H      2.930686   -0.017279    1.235758
  H      2.794689    1.568249    0.385922

----------------------------
CARTESIAN COORDINATES (A.U.)
----------------------------
  NO LB      ZA    FRAG     MASS         X           Y           Z
   0 C     4.0000*   0    12.011    3.840466   -0.428658   -2.688383
   1 C     4.0000*   0    12.011    2.323239    0.225376   -0.283245
   2 C     4.0000*   0    12.011    1.056221   -2.218812    0.860782
   3 C     4.0000*   0    12.011   -0.513250   -1.438216    3.201829
   4 C     4.0000*   0    12.011   -2.301339    0.758387    2.470694
   5 C     4.0000*   0    12.011   -2.051916    1.331662   -0.402385
   6 O     6.0000*   0    15.999    0.478726    2.104108   -0.935562
   7 C     4.0000*   0    12.011   -2.655069   -1.113396   -1.920060
   8 C     4.0000*   0    12.011   -0.858673   -3.266067   -1.085884
   9 C     4.0000*   0    12.011   -3.858951    3.461512   -1.164757
  10 C     4.0000*   0    12.011    4.187815    1.409501    1.623490
  11 H     1.0000    0     1.008    2.570150   -0.943223   -4.273578
  12 H     1.0000    0     1.008    4.953269    1.228481   -3.340875
  13 H     1.0000    0     1.008    5.162993   -2.018398   -2.322916
  14 H     1.0000    0     1.008    2.477178   -3.681185    1.369715
  15 H     1.0000    0     1.008   -1.637429   -3.074934    3.892690
  16 H     1.0000    0     1.008    0.735449   -0.882916    4.793294
  17 H     1.0000    0     1.008   -1.797062    2.471652    3.578552
  18 H     1.0000    0     1.008   -4.284438    0.243149    2.941614
  19 H     1.0000    0     1.008   -2.405574   -0.748292   -3.974657
  20 H     1.0000    0     1.008   -4.650573   -1.694291   -1.603155
  21 H     1.0000    0     1.008    0.128465   -4.094768   -2.740934
  22 H     1.0000    0     1.008   -1.969631   -4.832867   -0.231006
  23 H     1.0000    0     1.008   -3.663580    3.878096   -3.213196
  24 H     1.0000    0     1.008   -5.850012    2.920659   -0.773695
  25 H     1.0000    0     1.008   -3.411921    5.209249   -0.090801
  26 H     1.0000    0     1.008    3.176049    2.263283    3.247906
  27 H     1.0000    0     1.008    5.538194   -0.032653    2.335244
  28 H     1.0000    0     1.008    5.281197    2.963561    0.729287
* core charge reduced due to ECP

--------------------------------
INTERNAL COORDINATES (ANGSTROEM)
--------------------------------
 C      0   0   0     0.000000000000     0.00000000     0.00000000
 C      1   0   0     1.544112044335     0.00000000     0.00000000
 C      2   1   0     1.577639671553   110.70231620     0.00000000
 C      3   2   1     1.547612412557   108.44635186   182.03833162
 C      4   3   2     1.547957199124   109.17124534    51.67205033
 C      5   4   3     1.555946550509   109.80264932     3.62209506
 O      6   5   4     1.428298114929   109.16896593   298.20926111
 C      6   5   4     1.555946592254   108.95507485    57.34959706
 C      3   2   1     1.547611722550   108.44643209   296.81595174
 C      6   5   4     1.532134721259   110.35110006   178.65439328
 C      2   1   3     1.544112931759   107.29617356   120.89679921
 H      1   2   3     1.108916215817   111.30628387    70.06703266
 H      1   2   3     1.111295462042   110.77850788   188.06079339
 H      1   2   3     1.111261496825   110.71353229   308.51092251
 H      3   2   1     1.112111449908   112.08960122    59.42713702
 H      4   3   2     1.112520632995   110.01172964   172.30787266
 H      4   3   2     1.110057848439   111.00822945   289.27428430
 H      5   4   3     1.112143968897   109.49514398   243.21939515
 H      5   4   3     1.112521100935   109.66826688   124.95377354
 H      8   6   5     1.112143500305   109.62069620   182.32358294
 H      8   6   5     1.112518968846   110.28363048    63.61150006
 H      9   3   2     1.110059429385   111.00882869    70.72607431
 H      9   3   2     1.112519893029   110.01131523   187.69219366
 H     10   6   5     1.110996562089   110.16931060   179.48305456
 H     10   6   5     1.111243698613   110.68708958   299.76675597
 H     10   6   5     1.110995464483   110.16906904    60.04991943
 H     11   2   1     1.108918597747   111.30628752   169.03389023
 H     11   2   1     1.111262851382   110.71351860   290.59040150
 H     11   2   1     1.111295586080   110.77852311    51.04038463

---------------------------
INTERNAL COORDINATES (A.U.)
---------------------------
 C      0   0   0     0.000000000000     0.00000000     0.00000000
 C      1   0   0     2.917948883882     0.00000000     0.00000000
 C      2   1   0     2.981306917245   110.70231620     0.00000000
 C      3   2   1     2.924563621190   108.44635186   182.03833162
 C      4   3   2     2.925215173376   109.17124534    51.67205033
 C      5   4   3     2.940312859482   109.80264932     3.62209506
 O      6   5   4     2.699092274812   109.16896593   298.20926111
 C      6   5   4     2.940312938368   108.95507485    57.34959706
 C      3   2   1     2.924562317266   108.44643209   296.81595174
 C      6   5   4     2.895315023452   110.35110006   178.65439328
 C      2   1   3     2.917950560871   107.29617356   120.89679921
 H      1   2   3     2.095547953358   111.30628387    70.06703266
 H      1   2   3     2.100044077130   110.77850788   188.06079339
 H      1   2   3     2.099979892171   110.71353229   308.51092251
 H      3   2   1     2.101586070724   112.08960122    59.42713702
 H      4   3   2     2.102359314698   110.01172964   172.30787266
 H      4   3   2     2.097705326360   111.00822945   289.27428430
 H      5   4   3     2.101647522708   109.49514398   243.21939515
 H      5   4   3     2.102360198975   109.66826688   124.95377354
 H      8   6   5     2.101646637196   109.62069620   182.32358294
 H      8   6   5     2.102356169911   110.28363048    63.61150006
 H      9   3   2     2.097708313914   111.00882869    70.72607431
 H      9   3   2     2.102357916364   110.01131523   187.69219366
 H     10   6   5     2.099479238077   110.16931060   179.48305456
 H     10   6   5     2.099946258423   110.68708958   299.76675597
 H     10   6   5     2.099477163902   110.16906904    60.04991943
 H     11   2   1     2.095552454554   111.30628752   169.03389023
 H     11   2   1     2.099982451912   110.71351860   290.59040150
 H     11   2   1     2.100044311528   110.77852311    51.04038463

---------------------
BASIS SET INFORMATION
---------------------
There are 3 groups of distinct atoms

 Group   1 Type C   : 6s6p2d contracted to 2s2p1d pattern {42/42/2}
 Group   2 Type O   : 6s6p2d contracted to 2s2p1d pattern {42/42/2}
 Group   3 Type H   : 8s2p contracted to 2s1p pattern {53/2}

Atom   0C    basis set group =>   1
Atom   1C    basis set group =>   1
Atom   2C    basis set group =>   1
Atom   3C    basis set group =>   1
Atom   4C    basis set group =>   1
Atom   5C    basis set group =>   1
Atom   6O    basis set group =>   2
Atom   7C    basis set group =>   1
Atom   8C    basis set group =>   1
Atom   9C    basis set group =>   1
Atom  10C    basis set group =>   1
Atom  11H    basis set group =>   3
Atom  12H    basis set group =>   3
Atom  13H    basis set group =>   3
Atom  14H    basis set group =>   3
Atom  15H    basis set group =>   3
Atom  16H    basis set group =>   3
Atom  17H    basis set group =>   3
Atom  18H    basis set group =>   3
Atom  19H    basis set group =>   3
Atom  20H    basis set group =>   3
Atom  21H    basis set group =>   3
Atom  22H    basis set group =>   3
Atom  23H    basis set group =>   3
Atom  24H    basis set group =>   3
Atom  25H    basis set group =>   3
Atom  26H    basis set group =>   3
Atom  27H    basis set group =>   3
Atom  28H    basis set group =>   3
---------------------------------
AUXILIARY/J BASIS SET INFORMATION
---------------------------------
There are 3 groups of distinct atoms

 Group   1 Type C   : 12s5p4d2f1g contracted to 6s4p3d1f1g pattern {711111/2111/211/2/1}
 Group   2 Type O   : 12s5p4d2f1g contracted to 6s4p3d1f1g pattern {711111/2111/211/2/1}
 Group   3 Type H   : 5s2p1d contracted to 3s1p1d pattern {311/2/1}

Atom   0C    basis set group =>   1
Atom   1C    basis set group =>   1
Atom   2C    basis set group =>   1
Atom   3C    basis set group =>   1
Atom   4C    basis set group =>   1
Atom   5C    basis set group =>   1
Atom   6O    basis set group =>   2
Atom   7C    basis set group =>   1
Atom   8C    basis set group =>   1
Atom   9C    basis set group =>   1
Atom  10C    basis set group =>   1
Atom  11H    basis set group =>   3
Atom  12H    basis set group =>   3
Atom  13H    basis set group =>   3
Atom  14H    basis set group =>   3
Atom  15H    basis set group =>   3
Atom  16H    basis set group =>   3
Atom  17H    basis set group =>   3
Atom  18H    basis set group =>   3
Atom  19H    basis set group =>   3
Atom  20H    basis set group =>   3
Atom  21H    basis set group =>   3
Atom  22H    basis set group =>   3
Atom  23H    basis set group =>   3
Atom  24H    basis set group =>   3
Atom  25H    basis set group =>   3
Atom  26H    basis set group =>   3
Atom  27H    basis set group =>   3
Atom  28H    basis set group =>   3
-------------------------
ECP PARAMETER INFORMATION
-------------------------

 Group 1, Type C  ECP vDZP-ECP (replacing 2 core electrons, lmax=3)
 Group 2, Type O  ECP vDZP-ECP (replacing 2 core electrons, lmax=3)

Atom   0C    ECP group =>   1
Atom   1C    ECP group =>   1
Atom   2C    ECP group =>   1
Atom   3C    ECP group =>   1
Atom   4C    ECP group =>   1
Atom   5C    ECP group =>   1
Atom   6O    ECP group =>   2
Atom   7C    ECP group =>   1
Atom   8C    ECP group =>   1
Atom   9C    ECP group =>   1
Atom  10C    ECP group =>   1



           ************************************************************
           *        Program running with 40 parallel MPI-processes    *
           *              working on a common directory               *
           ************************************************************
------------------------------------------------------------------------------
                             ORCA STARTUP CALCULATIONS
                           -- RI-GTO INTEGRALS CHOSEN --
------------------------------------------------------------------------------
------------------------------------------------------------------------------
                   ___                                                        
                  /   \      - P O W E R E D   B Y -                         
                 /     \                                                     
                 |  |  |   _    _      __       _____    __    __             
                 |  |  |  | |  | |    /  \     |  _  \  |  |  /  |          
                  \  \/   | |  | |   /    \    | | | |  |  | /  /          
                 / \  \   | |__| |  /  /\  \   | |_| |  |  |/  /          
                |  |  |   |  __  | /  /__\  \  |    /   |      \           
                |  |  |   | |  | | |   __   |  |    \   |  |\   \          
                \     /   | |  | | |  |  |  |  | |\  \  |  | \   \       
                 \___/    |_|  |_| |__|  |__|  |_| \__\ |__|  \__/        
                                                                              
                      - O R C A' S   B I G   F R I E N D -                    
                                      &                                       
                       - I N T E G R A L  F E E D E R -                       
                                                                              
 v1 FN, 2020, v2 2021, v3 2022-2024                                           
------------------------------------------------------------------------------


----------------------
SHARK INTEGRAL PACKAGE
----------------------

Number of atoms                             ...     29
Number of basis functions                   ...    233
Number of shells                            ...    109
Maximum angular momentum                    ...      2
Integral batch strategy                     ... SHARK/LIBINT Hybrid
RI-J (if used) integral strategy            ... SPLIT-RIJ (Revised 2003 algorithm where possible)
Printlevel                                  ...      1
Contraction scheme used                     ... SEGMENTED contraction
Prescreening option                         ... SCHWARTZ
   Thresh                                   ... 2.500e-11
   Tcut                                     ... 2.500e-12
   Tpresel                                  ... 2.500e-12 
Coulomb Range Separation                    ... NOT USED
Exchange Range Separation                   ... Long Range
   Mu parameter                             ... 3.000e-01
   Scaling (regular/separated)              ... 1.670e-01 8.330e-01
Multipole approximations                    ... NOT USED
Finite Nucleus Model                        ... NOT USED
CABS basis                                  ... NOT available
Auxiliary Coulomb fitting basis             ... AVAILABLE
   # of basis functions in Aux-J            ...    737
   # of shells in Aux-J                     ...    255
   Maximum angular momentum in Aux-J        ...      4
Auxiliary J/K fitting basis                 ... NOT available
Auxiliary Correlation fitting basis         ... NOT available
Auxiliary 'external' fitting basis          ... NOT available

Checking pre-screening integrals            ... done (  0.0 sec) Dimension = 109
Check shell pair data                       ... done (  0.0 sec)
Shell pair information
Shell pair cut-off parameter TPreSel        ...   2.5e-12
Total number of shell pairs                 ...      5995
Shell pairs after pre-screening             ...      5995
Total number of primitive shell pairs       ...     56362
Primitive shell pairs kept                  ...     47210
          la=0 lb=0:   1711 shell pairs
          la=1 lb=0:   2320 shell pairs
          la=1 lb=1:    820 shell pairs
          la=2 lb=0:    638 shell pairs
          la=2 lb=1:    440 shell pairs
          la=2 lb=2:     66 shell pairs

Calculating one electron integrals          ... done (  0.0 sec)
Calculating ECP integrals                   ... done (  0.1 sec)
Calculating RI/J V-Matrix + Cholesky decomp.... done (  0.0 sec)
Calculating Nuclear repulsion               ... done (  0.0 sec) ENN=    389.973713216091 Eh

Diagonalization of the overlap matrix:
Smallest eigenvalue                        ... 1.281e-03
Time for diagonalization                   ...    0.008 sec
Threshold for overlap eigenvalues          ... 1.000e-07
Number of eigenvalues below threshold      ... 0
Time for construction of square roots      ...    0.005 sec
Total time needed                          ...    0.016 sec

-------------------
DFT GRID GENERATION
-------------------

General Integration Accuracy     IntAcc      ... 4.388
Radial Grid Type                 RadialGrid  ... OptM3 with GC (2021)
Angular Grid (max. ang.)         AngularGrid ... 4 (Lebedev-302)
Angular grid pruning method      GridPruning ... 4 (adaptive)
Weight generation scheme         WeightScheme... mBecke (2022)
Basis function cutoff            BFCut       ... 1.0000e-11
Integration weight cutoff        WCut        ... 1.0000e-14
Partially contracted basis set               ... off
Rotationally invariant grid construction     ... off
Angular grids for H and He will be reduced by one unit

Total number of grid points                  ...   122416
Total number of batches                      ...     1927
Average number of points per batch           ...       63
Average number of grid points per atom       ...     4221

--------------------
COSX GRID GENERATION
--------------------

GRIDX 1
-------
General Integration Accuracy     IntAcc      ... 3.816
Radial Grid Type                 RadialGrid  ... OptM3 with GC (2021)
Angular Grid (max. ang.)         AngularGrid ... 1 (Lebedev-50)
Angular grid pruning method      GridPruning ... 4 (adaptive)
Weight generation scheme         WeightScheme... mBecke (2022)
Basis function cutoff            BFCut       ... 1.0000e-11
Integration weight cutoff        WCut        ... 1.0000e-14
Partially contracted basis set               ... on
Rotationally invariant grid construction     ... off
Angular grids for H and He will be reduced by one unit

Total number of grid points                  ...    15659
Total number of batches                      ...      141
Average number of points per batch           ...      111
Average number of grid points per atom       ...      540
UseSFitting                                  ... on

GRIDX 2
-------
General Integration Accuracy     IntAcc      ... 4.020
Radial Grid Type                 RadialGrid  ... OptM3 with GC (2021)
Angular Grid (max. ang.)         AngularGrid ... 2 (Lebedev-110)
Angular grid pruning method      GridPruning ... 4 (adaptive)
Weight generation scheme         WeightScheme... mBecke (2022)
Basis function cutoff            BFCut       ... 1.0000e-11
Integration weight cutoff        WCut        ... 1.0000e-14
Partially contracted basis set               ... on
Rotationally invariant grid construction     ... off
Angular grids for H and He will be reduced by one unit

Total number of grid points                  ...    32465
Total number of batches                      ...      269
Average number of points per batch           ...      120
Average number of grid points per atom       ...     1119
UseSFitting                                  ... on

GRIDX 3
-------
General Integration Accuracy     IntAcc      ... 4.338
Radial Grid Type                 RadialGrid  ... OptM3 with GC (2021)
Angular Grid (max. ang.)         AngularGrid ... 3 (Lebedev-194)
Angular grid pruning method      GridPruning ... 4 (adaptive)
Weight generation scheme         WeightScheme... mBecke (2022)
Basis function cutoff            BFCut       ... 1.0000e-11
Integration weight cutoff        WCut        ... 1.0000e-14
Partially contracted basis set               ... on
Rotationally invariant grid construction     ... off
Angular grids for H and He will be reduced by one unit

Total number of grid points                  ...    70447
Total number of batches                      ...      564
Average number of points per batch           ...      124
Average number of grid points per atom       ...     2429
UseSFitting                                  ... on
Initializing property integral containers    ... done (  0.0 sec)

SHARK setup successfully completed in   4.0 seconds

Maximum memory used throughout the entire STARTUP-calculation: 38.2 MB


           ************************************************************
           *        Program running with 40 parallel MPI-processes    *
           *              working on a common directory               *
           ************************************************************
-------------------------------------------------------------------------------
                                 ORCA GUESS
                   Start orbitals & Density for SCF / CASSCF
-------------------------------------------------------------------------------

------------
SCF SETTINGS
------------
Hamiltonian:
 Density Functional     Method          .... DFT(GTOs)
 Exchange Functional    Exchange        .... WB97X-V
 Correlation Functional Correlation     .... WB97X-V
 Gradients option       PostSCFGGA      .... off
 Hybrid DFT is turned on
   Fraction HF Exchange ScalHFX         ....  0.167000
   Scaling of DF-GGA-X  ScalDFX         ....  0.000000
   Scaling of DF-GGA-C  ScalDFC         ....  1.000000
   Scaling of DF-LDA-C  ScalLDAC        ....  1.000000
   Perturbative correction              ....  0.000000
 Long-range corrected/Screened/Range-Separated Hybrid DFT is turned on
   Amount of maximum screened exact exchange              ....  0.833000
   Range separation parameter mu (erf(mu*r12)/r12)        ....  0.300000
   NL short-range parameter             ....  6.000000
   NL long-range parameter              ....  0.010000
 RI-approximation to the Coulomb term is turned on
   Number of AuxJ basis functions       .... 737
   RIJ-COSX (HFX calculated with COS-X)).... on


General Settings:
 Integral files         IntName         .... ./output/1_8_cineole/1_8_cineole
 Hartree-Fock type      HFTyp           .... RHF
 Total Charge           Charge          ....    0
 Multiplicity           Mult            ....    1
 Number of Electrons    NEL             ....   64
 Basis Dimension        Dim             ....  233
 Nuclear Repulsion      ENuc            ....    389.9737132161 Eh

Convergence Acceleration:
 AO-DIIS                CNVDIIS         .... on
   Start iteration      DIISMaxIt       ....    12
   Startup error        DIISStart       ....  0.200000
   # of expansion vecs  DIISMaxEq       ....     5
   Bias factor          DIISBfac        ....   1.050
   Max. coefficient     DIISMaxC        ....  10.000
 MO-DIIS                CNVKDIIS        .... off
 Trust-Rad. Augm. Hess. CNVTRAH         .... auto
   Auto Start mean grad. ratio tolernc. ....  1.125000
   Auto Start start iteration           ....    50
   Auto Start num. interpolation iter.  ....    10
   Max. Number of Micro iterations      ....    24
   Max. Number of Macro iterations      .... Maxiter - #DIIS iter
   Number of Davidson start vectors     ....     2
   Converg. threshold    (grad. norm)   ....   1.000e-05
   Grad. Scal. Fac. for Micro threshold ....   0.100
   Minimum threshold for Micro iter.    ....   1.000e-02
   NR start threshold (gradient norm)   ....   1.000e-04
   Initial trust radius                 ....   0.400
   Minimum AH scaling param. (alpha)    ....   1.000
   Maximum AH scaling param. (alpha)    .... 1000.000
   Quad. conv. algorithm                .... NR
   White noise on init. David. guess    .... on
   Maximum white noise                  ....   0.010
   Pseudo random numbers                .... off
   Inactive MOs                         .... canonical
   Orbital update algorithm             .... Taylor
   Preconditioner                       .... Diag
   Full preconditioner red. dimension   ....   250
 SOSCF                  CNVSOSCF        .... on
   Start iteration      SOSCFMaxIt      ....   150
   Startup grad/error   SOSCFStart      ....  0.003300
   Hessian update       SOSCFHessUp     .... L-BFGS
 Level Shifting         CNVShift        .... on
   Level shift para.    LevelShift      ....    0.2500
   Turn off err/grad.   ShiftErr        ....    0.0010
 Zerner damping         CNVZerner       .... off
 Static damping         CNVDamp         .... on
   Fraction old density DampFac         ....    0.7000
   Max. Damping (<1)    DampMax         ....    0.9800
   Min. Damping (>=0)   DampMin         ....    0.0000
   Turn off err/grad.   DampErr         ....    0.1000

SCF Procedure:
 Maximum # iterations   MaxIter         ....   125
 SCF integral mode      SCFMode         .... Direct
   Integral package                     .... SHARK and LIBINT hybrid scheme
 Reset frequency        DirectResetFreq ....    20
 Integral Threshold     Thresh          ....  2.500e-11 Eh
 Primitive CutOff       TCut            ....  2.500e-12 Eh

Convergence Tolerance:
 Convergence Check Mode ConvCheckMode   .... Total+1el-Energy
 Convergence forced     ConvForced      .... 0
 Energy Change          TolE            ....  1.000e-08 Eh
 1-El. energy change                    ....  1.000e-05 Eh
 Orbital Gradient       TolG            ....  1.000e-05
 Orbital Rotation angle TolX            ....  1.000e-05
 DIIS Error             TolErr          ....  5.000e-07

------------------------------
INITIAL GUESS: MODEL POTENTIAL
------------------------------
Loading Hartree-Fock densities                     ... done
Atomic calculation to generate a density for atom 0 (C  with ECP)
  Multiplicity assumed   :    1
  Atomic configuration   : 1s2 2s2 2p2 
  Number of open shells  : 1
  Command: /home/aspe232/Project/Software/ORCA/6_0_1/build/orca ./output/1_8_cineole/1_8_cineole_atom6.inp "" > ./output/1_8_cineole/1_8_cineole_atom6.out
Returned from the atomic calculation with res=0
Atomic calculation to generate a density for atom 6 (O  with ECP)
  Multiplicity assumed   :    3
  Atomic configuration   : 1s2 2s2 2p4 
  Number of open shells  : 1
  Command: /home/aspe232/Project/Software/ORCA/6_0_1/build/orca ./output/1_8_cineole/1_8_cineole_atom8.inp "" > ./output/1_8_cineole/1_8_cineole_atom8.out
Returned from the atomic calculation with res=0
Calculating cut-offs                               ... done
Initializing the effective Hamiltonian             ... done
Setting up the integral package (SHARK)            ... done
Starting the Coulomb interaction                   ... done (   0.1 sec)
Making the grid                                    ... done (   0.8 sec)
Mapping shells                                     ... done
Starting the XC term evaluation                    ... done (   0.0 sec)
  promolecular density results
     # of electrons  =     85.985122374
     EX              =    -42.904944484
     EC              =     -3.474602780
     EX+EC           =    -46.379547264
Transforming the Hamiltonian                       ... done (   0.1 sec)
Diagonalizing the Hamiltonian                      ... done (   0.0 sec)
Back transforming the eigenvectors                 ... done (   0.1 sec)
Now organizing SCF variables                       ... done
                      ------------------
                      INITIAL GUESS DONE (   2.2 sec)
                      ------------------
             **** ENERGY FILE WAS UPDATED (./output/1_8_cineole/1_8_cineole.en.tmp) ****
Finished Guess after   2.8 sec
Maximum memory used throughout the entire GUESS-calculation: 23.8 MB


           ************************************************************
           *        Program running with 40 parallel MPI-processes    *
           *              working on a common directory               *
           ************************************************************

-------------------------------------------------------------------------------------------
                                      ORCA LEAN-SCF
                              memory conserving SCF solver
-------------------------------------------------------------------------------------------

----------------------------------------D-I-I-S--------------------------------------------
Iteration    Energy (Eh)           Delta-E    RMSDP     MaxDP     DIISErr   Damp  Time(sec)
-------------------------------------------------------------------------------------------
               ***  Starting incremental Fock matrix formation  ***
    1    -83.4004014871784989     0.00e+00  3.57e-03  7.10e-02  1.79e-01  0.700   5.6
    2    -83.5947277430790905    -1.94e-01  2.60e-03  5.21e-02  1.08e-01  0.700   4.5
                               ***Turning on AO-DIIS***
    3    -83.6935477484901185    -9.88e-02  1.34e-03  2.38e-02  5.84e-02  0.700   3.8
    4    -83.7515887075973637    -5.80e-02  2.90e-03  5.01e-02  3.62e-02  0.000   4.5
    5    -83.8737465133724527    -1.22e-01  2.17e-04  4.38e-03  4.76e-03  0.000   3.8
                              *** Initializing SOSCF ***
---------------------------------------S-O-S-C-F--------------------------------------
Iteration    Energy (Eh)           Delta-E    RMSDP     MaxDP     MaxGrad    Time(sec)
--------------------------------------------------------------------------------------
    6    -83.8740692390221625    -3.23e-04  1.09e-04  1.73e-03  1.50e-03     4.6
               *** Restarting incremental Fock matrix formation ***
    7    -83.8740392316739758     3.00e-05  5.70e-05  1.45e-03  2.99e-04     5.3
    8    -83.8740457289681558    -6.50e-06  3.20e-05  6.73e-04  1.45e-04     4.8
    9    -83.8740472002659203    -1.47e-06  9.56e-06  2.26e-04  6.02e-05     5.0
   10    -83.8740473734205807    -1.73e-07  2.63e-06  6.90e-05  1.43e-05     4.5
   11    -83.8740473700436837     3.38e-09  1.22e-06  1.95e-05  7.24e-06     4.3
                 **** Energy Check signals convergence ****

               *****************************************************
               *                     SUCCESS                       *
               *           SCF CONVERGED AFTER  11 CYCLES          *
               *****************************************************

Recomputing exchange energy using gridx3       ... done (    4.947 sec)
Old exchange energy                            :    -12.299003868 Eh
New exchange energy                            :    -12.299086008 Eh
Exchange energy change after final integration :     -0.000082140 Eh
Total energy after final integration           :    -83.874129510 Eh
             **** ENERGY FILE WAS UPDATED (./output/1_8_cineole/1_8_cineole.en.tmp) ****

----------------
TOTAL SCF ENERGY
----------------

Total Energy       :        -83.87412951009549 Eh           -2282.33110 eV

Components:
Nuclear Repulsion  :        389.97371321609120 Eh           10611.72423 eV
Electronic Energy  :       -473.84776058613488 Eh          -12894.05309 eV
One Electron Energy:       -900.08131372316166 Eh          -24492.45772 eV
Two Electron Energy:        426.23355313702677 Eh           11598.40463 eV

Virial components:
Potential Energy   :       -149.49650360016469 Eh           -4068.00668 eV
Kinetic Energy     :         65.62237409006920 Eh            1785.67558 eV
Virial Ratio       :          2.27813311653393

DFT components:
N(Alpha)           :       31.999867691292 electrons
N(Beta)            :       31.999867691292 electrons
N(Total)           :       63.999735382585 electrons
E(X)               :      -12.983528704332 Eh       
E(C)               :       -2.417496375203 Eh       
E(XC)              :      -15.401025079535 Eh       

---------------
SCF CONVERGENCE
---------------

  Last Energy change         ...   -3.3769e-09  Tolerance :   1.0000e-08
  Last MAX-Density change    ...    1.9485e-05  Tolerance :   1.0000e-07
  Last RMS-Density change    ...    1.2208e-06  Tolerance :   5.0000e-09
  Last DIIS Error            ...    1.5011e-03  Tolerance :   5.0000e-07
  Last Orbital Gradient      ...    7.2356e-06  Tolerance :   1.0000e-05
  Last Orbital Rotation      ...    1.4278e-05  Tolerance :   1.0000e-05


----------------
ORBITAL ENERGIES
----------------

  NO   OCC          E(Eh)            E(eV) 
   0   2.0000      -1.156747       -31.4767 
   1   2.0000      -0.962182       -26.1823 
   2   2.0000      -0.941896       -25.6303 
   3   2.0000      -0.878235       -23.8980 
   4   2.0000      -0.862413       -23.4675 
   5   2.0000      -0.809808       -22.0360 
   6   2.0000      -0.803701       -21.8698 
   7   2.0000      -0.735590       -20.0164 
   8   2.0000      -0.727222       -19.7887 
   9   2.0000      -0.711323       -19.3561 
  10   2.0000      -0.618379       -16.8269 
  11   2.0000      -0.608588       -16.5605 
  12   2.0000      -0.585637       -15.9360 
  13   2.0000      -0.584012       -15.8918 
  14   2.0000      -0.556606       -15.1460 
  15   2.0000      -0.533872       -14.5274 
  16   2.0000      -0.521230       -14.1834 
  17   2.0000      -0.513254       -13.9664 
  18   2.0000      -0.507537       -13.8108 
  19   2.0000      -0.494443       -13.4545 
  20   2.0000      -0.488397       -13.2900 
  21   2.0000      -0.482171       -13.1205 
  22   2.0000      -0.476048       -12.9539 
  23   2.0000      -0.471955       -12.8426 
  24   2.0000      -0.455037       -12.3822 
  25   2.0000      -0.454564       -12.3693 
  26   2.0000      -0.454241       -12.3605 
  27   2.0000      -0.434999       -11.8369 
  28   2.0000      -0.408199       -11.1077 
  29   2.0000      -0.406057       -11.0494 
  30   2.0000      -0.377521       -10.2729 
  31   2.0000      -0.343092        -9.3360 
  32   0.0000       0.080611         2.1935 
  33   0.0000       0.096081         2.6145 
  34   0.0000       0.101068         2.7502 
  35   0.0000       0.107808         2.9336 
  36   0.0000       0.116478         3.1695 
  37   0.0000       0.127188         3.4609 
  38   0.0000       0.136384         3.7112 
  39   0.0000       0.140451         3.8219 
  40   0.0000       0.142658         3.8819 
  41   0.0000       0.164603         4.4791 
  42   0.0000       0.169733         4.6187 
*Only the first 10 virtual orbitals were printed.

                    ********************************
                    * MULLIKEN POPULATION ANALYSIS *
                    ********************************

-----------------------
MULLIKEN ATOMIC CHARGES
-----------------------
   0 C :   -0.025537
   1 C :   -0.032660
   2 C :   -0.074426
   3 C :   -0.047931
   4 C :   -0.026595
   5 C :   -0.026287
   6 O :   -0.327639
   7 C :   -0.026710
   8 C :   -0.047983
   9 C :   -0.046451
  10 C :   -0.025916
  11 H :    0.027618
  12 H :    0.040824
  13 H :    0.035423
  14 H :    0.053557
  15 H :    0.036528
  16 H :    0.040782
  17 H :    0.040969
  18 H :    0.043060
  19 H :    0.041025
  20 H :    0.043052
  21 H :    0.040642
  22 H :    0.036756
  23 H :    0.042063
  24 H :    0.039258
  25 H :    0.042178
  26 H :    0.027927
  27 H :    0.035262
  28 H :    0.041210
Sum of atomic charges:   -0.0000000

--------------------------------
MULLIKEN REDUCED ORBITAL CHARGES
--------------------------------
  0 C s       :     0.952146  s :     0.952146
      pz      :     0.967307  p :     3.003738
      px      :     1.002660
      py      :     1.033771
      dz2     :     0.014300  d :     0.069654
      dxz     :     0.019628
      dyz     :     0.011364
      dx2y2   :     0.003763
      dxy     :     0.020599

  1 C s       :     1.107520  s :     1.107520
      pz      :     1.004465  p :     2.740079
      px      :     0.863940
      py      :     0.871674
      dz2     :     0.030304  d :     0.185061
      dxz     :     0.045294
      dyz     :     0.034653
      dx2y2   :     0.032914
      dxy     :     0.041895

  2 C s       :     1.033887  s :     1.033887
      pz      :     0.962368  p :     2.924265
      px      :     0.983244
      py      :     0.978654
      dz2     :     0.023663  d :     0.116274
      dxz     :     0.027531
      dyz     :     0.022093
      dx2y2   :     0.012609
      dxy     :     0.030378

  3 C s       :     0.988913  s :     0.988913
      pz      :     0.976912  p :     2.963543
      px      :     0.991587
      py      :     0.995044
      dz2     :     0.016109  d :     0.095475
      dxz     :     0.024836
      dyz     :     0.017358
      dx2y2   :     0.013769
      dxy     :     0.023402

  4 C s       :     0.992790  s :     0.992790
      pz      :     0.944268  p :     2.943097
      px      :     1.005453
      py      :     0.993377
      dz2     :     0.019671  d :     0.090708
      dxz     :     0.011612
      dyz     :     0.023143
      dx2y2   :     0.021362
      dxy     :     0.014921

  5 C s       :     1.108211  s :     1.108211
      pz      :     0.959372  p :     2.726954
      px      :     0.778838
      py      :     0.988744
      dz2     :     0.039543  d :     0.191122
      dxz     :     0.038756
      dyz     :     0.031994
      dx2y2   :     0.038244
      dxy     :     0.042584

  6 O s       :     1.734090  s :     1.734090
      pz      :     1.812727  p :     4.555815
      px      :     1.190526
      py      :     1.552562
      dz2     :     0.004601  d :     0.037735
      dxz     :     0.006998
      dyz     :     0.004591
      dx2y2   :     0.008234
      dxy     :     0.013312

  7 C s       :     0.992777  s :     0.992777
      pz      :     1.009103  p :     2.943218
      px      :     0.999925
      py      :     0.934189
      dz2     :     0.025813  d :     0.090715
      dxz     :     0.006970
      dyz     :     0.016577
      dx2y2   :     0.023397
      dxy     :     0.017959

  8 C s       :     0.988827  s :     0.988827
      pz      :     1.006707  p :     2.963678
      px      :     0.978001
      py      :     0.978970
      dz2     :     0.015275  d :     0.095478
      dxz     :     0.021818
      dyz     :     0.019961
      dx2y2   :     0.013759
      dxy     :     0.024665

  9 C s       :     0.953094  s :     0.953094
      pz      :     1.045276  p :     3.023766
      px      :     0.988464
      py      :     0.990025
      dz2     :     0.019274  d :     0.069592
      dxz     :     0.005261
      dyz     :     0.015247
      dx2y2   :     0.017367
      dxy     :     0.012442

 10 C s       :     0.952197  s :     0.952197
      pz      :     0.996566  p :     3.004053
      px      :     0.988537
      py      :     1.018950
      dz2     :     0.011958  d :     0.069665
      dxz     :     0.016794
      dyz     :     0.015025
      dx2y2   :     0.003692
      dxy     :     0.022196

 11 H s       :     0.928345  s :     0.928345
      pz      :     0.018014  p :     0.044036
      px      :     0.014742
      py      :     0.011280

 12 H s       :     0.915908  s :     0.915908
      pz      :     0.011330  p :     0.043268
      px      :     0.013693
      py      :     0.018244

 13 H s       :     0.921234  s :     0.921234
      pz      :     0.009873  p :     0.043343
      px      :     0.015666
      py      :     0.017804

 14 H s       :     0.906477  s :     0.906477
      pz      :     0.009738  p :     0.039966
      px      :     0.014881
      py      :     0.015348

 15 H s       :     0.921506  s :     0.921506
      pz      :     0.010450  p :     0.041966
      px      :     0.013786
      py      :     0.017731

 16 H s       :     0.915981  s :     0.915981
      pz      :     0.017231  p :     0.043237
      px      :     0.015057
      py      :     0.010949

 17 H s       :     0.917489  s :     0.917489
      pz      :     0.012756  p :     0.041542
      px      :     0.009992
      py      :     0.018794

 18 H s       :     0.914907  s :     0.914907
      pz      :     0.010006  p :     0.042032
      px      :     0.021557
      py      :     0.010470

 19 H s       :     0.917436  s :     0.917436
      pz      :     0.022847  p :     0.041539
      px      :     0.009225
      py      :     0.009468

 20 H s       :     0.914916  s :     0.914916
      pz      :     0.009471  p :     0.042032
      px      :     0.021713
      py      :     0.010849

 21 H s       :     0.916118  s :     0.916118
      pz      :     0.018387  p :     0.043240
      px      :     0.013246
      py      :     0.011607

 22 H s       :     0.921278  s :     0.921278
      pz      :     0.011707  p :     0.041966
      px      :     0.013709
      py      :     0.016551

 23 H s       :     0.914883  s :     0.914883
      pz      :     0.023116  p :     0.043054
      px      :     0.009697
      py      :     0.010240

 24 H s       :     0.917261  s :     0.917261
      pz      :     0.010744  p :     0.043481
      px      :     0.022409
      py      :     0.010329

 25 H s       :     0.914765  s :     0.914765
      pz      :     0.013135  p :     0.043057
      px      :     0.010167
      py      :     0.019755

 26 H s       :     0.928052  s :     0.928052
      pz      :     0.018072  p :     0.044021
      px      :     0.012788
      py      :     0.013160

 27 H s       :     0.921401  s :     0.921401
      pz      :     0.011673  p :     0.043336
      px      :     0.015870
      py      :     0.015793

 28 H s       :     0.915530  s :     0.915530
      pz      :     0.011982  p :     0.043260
      px      :     0.013484
      py      :     0.017794



                     *******************************
                     * LOEWDIN POPULATION ANALYSIS *
                     *******************************

----------------------
LOEWDIN ATOMIC CHARGES
----------------------
   0 C :   -0.109344
   1 C :   -0.041940
   2 C :   -0.058406
   3 C :   -0.080013
   4 C :   -0.070870
   5 C :   -0.059768
   6 O :   -0.074786
   7 C :   -0.070879
   8 C :   -0.080021
   9 C :   -0.105128
  10 C :   -0.109368
  11 H :    0.044603
  12 H :    0.050204
  13 H :    0.048042
  14 H :    0.052885
  15 H :    0.045065
  16 H :    0.042834
  17 H :    0.047620
  18 H :    0.049073
  19 H :    0.047628
  20 H :    0.049062
  21 H :    0.042823
  22 H :    0.045083
  23 H :    0.050688
  24 H :    0.051344
  25 H :    0.050700
  26 H :    0.044623
  27 H :    0.048009
  28 H :    0.050236

-------------------------------
LOEWDIN REDUCED ORBITAL CHARGES
-------------------------------
  0 C s       :     0.781799  s :     0.781799
      pz      :     0.996441  p :     3.091771
      px      :     1.035776
      py      :     1.059554
      dz2     :     0.050557  d :     0.235773
      dxz     :     0.065006
      dyz     :     0.038356
      dx2y2   :     0.013066
      dxy     :     0.068789

  1 C s       :     0.755926  s :     0.755926
      pz      :     0.976034  p :     2.754327
      px      :     0.878713
      py      :     0.899580
      dz2     :     0.089274  d :     0.531687
      dxz     :     0.123098
      dyz     :     0.100471
      dx2y2   :     0.092474
      dxy     :     0.126371

  2 C s       :     0.764309  s :     0.764309
      pz      :     0.958683  p :     2.928662
      px      :     0.988242
      py      :     0.981737
      dz2     :     0.075515  d :     0.365435
      dxz     :     0.082361
      dyz     :     0.069073
      dx2y2   :     0.040024
      dxy     :     0.098462

  3 C s       :     0.766449  s :     0.766449
      pz      :     0.993968  p :     3.001930
      px      :     1.001847
      py      :     1.006115
      dz2     :     0.054117  d :     0.311633
      dxz     :     0.081035
      dyz     :     0.057585
      dx2y2   :     0.046048
      dxy     :     0.072848

  4 C s       :     0.771239  s :     0.771239
      pz      :     0.968577  p :     3.000551
      px      :     1.023845
      py      :     1.008128
      dz2     :     0.064546  d :     0.299081
      dxz     :     0.040734
      dyz     :     0.076860
      dx2y2   :     0.071851
      dxy     :     0.045090

  5 C s       :     0.752374  s :     0.752374
      pz      :     0.973896  p :     2.756725
      px      :     0.812463
      py      :     0.970365
      dz2     :     0.115145  d :     0.550669
      dxz     :     0.106981
      dyz     :     0.094044
      dx2y2   :     0.109828
      dxy     :     0.124671

  6 O s       :     1.408650  s :     1.408650
      pz      :     1.733734  p :     4.564486
      px      :     1.266252
      py      :     1.564500
      dz2     :     0.011497  d :     0.101649
      dxz     :     0.020580
      dyz     :     0.009269
      dx2y2   :     0.026294
      dxy     :     0.034009

  7 C s       :     0.771234  s :     0.771234
      pz      :     1.026161  p :     3.000561
      px      :     1.019246
      py      :     0.955153
      dz2     :     0.086532  d :     0.299084
      dxz     :     0.021726
      dyz     :     0.054828
      dx2y2   :     0.077498
      dxy     :     0.058500

  8 C s       :     0.766437  s :     0.766437
      pz      :     1.018738  p :     3.001952
      px      :     0.989019
      py      :     0.994195
      dz2     :     0.050595  d :     0.311632
      dxz     :     0.068323
      dyz     :     0.067227
      dx2y2   :     0.045499
      dxy     :     0.079988

  9 C s       :     0.780337  s :     0.780337
      pz      :     1.058921  p :     3.092172
      px      :     1.023771
      py      :     1.009479
      dz2     :     0.063001  d :     0.232619
      dxz     :     0.017175
      dyz     :     0.050536
      dx2y2   :     0.062450
      dxy     :     0.039457

 10 C s       :     0.781809  s :     0.781809
      pz      :     1.023490  p :     3.091787
      px      :     1.022677
      py      :     1.045620
      dz2     :     0.040867  d :     0.235771
      dxz     :     0.055816
      dyz     :     0.051448
      dx2y2   :     0.013807
      dxy     :     0.073834

 11 H s       :     0.807281  s :     0.807281
      pz      :     0.055330  p :     0.148116
      px      :     0.049345
      py      :     0.043442

 12 H s       :     0.804900  s :     0.804900
      pz      :     0.040815  p :     0.144896
      px      :     0.047694
      py      :     0.056387

 13 H s       :     0.807296  s :     0.807296
      pz      :     0.038340  p :     0.144662
      px      :     0.050734
      py      :     0.055588

 14 H s       :     0.802357  s :     0.802357
      pz      :     0.040574  p :     0.144758
      px      :     0.052263
      py      :     0.051921

 15 H s       :     0.807678  s :     0.807678
      pz      :     0.041904  p :     0.147257
      px      :     0.047794
      py      :     0.057559

 16 H s       :     0.807247  s :     0.807247
      pz      :     0.056002  p :     0.149919
      px      :     0.051314
      py      :     0.042603

 17 H s       :     0.806212  s :     0.806212
      pz      :     0.046067  p :     0.146168
      px      :     0.040623
      py      :     0.059479

 18 H s       :     0.805323  s :     0.805323
      pz      :     0.039569  p :     0.145604
      px      :     0.065372
      py      :     0.040662

 19 H s       :     0.806205  s :     0.806205
      pz      :     0.068083  p :     0.146167
      px      :     0.039410
      py      :     0.038674

 20 H s       :     0.805327  s :     0.805327
      pz      :     0.039665  p :     0.145611
      px      :     0.065794
      py      :     0.040152

 21 H s       :     0.807256  s :     0.807256
      pz      :     0.058266  p :     0.149921
      px      :     0.047310
      py      :     0.044345

 22 H s       :     0.807655  s :     0.807655
      pz      :     0.044698  p :     0.147262
      px      :     0.047294
      py      :     0.055271

 23 H s       :     0.804864  s :     0.804864
      pz      :     0.066199  p :     0.144448
      px      :     0.038609
      py      :     0.039640

 24 H s       :     0.804989  s :     0.804989
      pz      :     0.041371  p :     0.143667
      px      :     0.062523
      py      :     0.039773

 25 H s       :     0.804851  s :     0.804851
      pz      :     0.046590  p :     0.144449
      px      :     0.039436
      py      :     0.058424

 26 H s       :     0.807258  s :     0.807258
      pz      :     0.056828  p :     0.148119
      px      :     0.045266
      py      :     0.046025

 27 H s       :     0.807327  s :     0.807327
      pz      :     0.042724  p :     0.144665
      px      :     0.050919
      py      :     0.051022

 28 H s       :     0.804858  s :     0.804858
      pz      :     0.043606  p :     0.144906
      px      :     0.046885
      py      :     0.054415



                      *****************************
                      * MAYER POPULATION ANALYSIS *
                      *****************************

  NA   - Mulliken gross atomic population
  ZA   - Total nuclear charge
  QA   - Mulliken gross atomic charge
  VA   - Mayer's total valence
  BVA  - Mayer's bonded valence
  FA   - Mayer's free valence

  ATOM       NA         ZA         QA         VA         BVA        FA
  0 C      4.0255     4.0000    -0.0255     3.9372     3.9372     0.0000
  1 C      4.0327     4.0000    -0.0327     4.0775     4.0775     0.0000
  2 C      4.0744     4.0000    -0.0744     3.9588     3.9588     0.0000
  3 C      4.0479     4.0000    -0.0479     3.9596     3.9596    -0.0000
  4 C      4.0266     4.0000    -0.0266     3.9134     3.9134    -0.0000
  5 C      4.0263     4.0000    -0.0263     4.0921     4.0921    -0.0000
  6 O      6.3276     6.0000    -0.3276     1.8728     1.8728    -0.0000
  7 C      4.0267     4.0000    -0.0267     3.9135     3.9135    -0.0000
  8 C      4.0480     4.0000    -0.0480     3.9597     3.9597     0.0000
  9 C      4.0465     4.0000    -0.0465     3.9742     3.9742    -0.0000
 10 C      4.0259     4.0000    -0.0259     3.9373     3.9373     0.0000
 11 H      0.9724     1.0000     0.0276     1.0314     1.0314     0.0000
 12 H      0.9592     1.0000     0.0408     1.0296     1.0296    -0.0000
 13 H      0.9646     1.0000     0.0354     1.0212     1.0212    -0.0000
 14 H      0.9464     1.0000     0.0536     1.0171     1.0171     0.0000
 15 H      0.9635     1.0000     0.0365     1.0171     1.0171    -0.0000
 16 H      0.9592     1.0000     0.0408     1.0154     1.0154     0.0000
 17 H      0.9590     1.0000     0.0410     1.0206     1.0206    -0.0000
 18 H      0.9569     1.0000     0.0431     1.0136     1.0136    -0.0000
 19 H      0.9590     1.0000     0.0410     1.0206     1.0206    -0.0000
 20 H      0.9569     1.0000     0.0431     1.0137     1.0137    -0.0000
 21 H      0.9594     1.0000     0.0406     1.0153     1.0153     0.0000
 22 H      0.9632     1.0000     0.0368     1.0171     1.0171    -0.0000
 23 H      0.9579     1.0000     0.0421     1.0343     1.0343    -0.0000
 24 H      0.9607     1.0000     0.0393     1.0231     1.0231     0.0000
 25 H      0.9578     1.0000     0.0422     1.0342     1.0342     0.0000
 26 H      0.9721     1.0000     0.0279     1.0312     1.0312     0.0000
 27 H      0.9647     1.0000     0.0353     1.0214     1.0214     0.0000
 28 H      0.9588     1.0000     0.0412     1.0294     1.0294    -0.0000

  Mayer bond orders larger than 0.100000
B(  0-C ,  1-C ) :   1.0131 B(  0-C , 11-H ) :   0.9935 B(  0-C , 12-H ) :   0.9948 
B(  0-C , 13-H ) :   0.9882 B(  1-C ,  2-C ) :   0.9699 B(  1-C ,  6-O ) :   0.9549 
B(  1-C , 10-C ) :   1.0132 B(  2-C ,  3-C ) :   0.9934 B(  2-C ,  8-C ) :   0.9935 
B(  2-C , 14-H ) :   0.9991 B(  3-C ,  4-C ) :   0.9738 B(  3-C , 15-H ) :   1.0033 
B(  3-C , 16-H ) :   1.0049 B(  4-C ,  5-C ) :   0.9765 B(  4-C , 17-H ) :   1.0014 
[...]
 34:   1020.73   0.000068    0.34  0.000021  ( 0.000089  0.001852  0.004169)
 35:   1039.42   0.000152    0.77  0.000046  ( 0.000530  0.002702  0.006174)
 36:   1056.49   0.009360   47.30  0.002765  (-0.049766  0.016691 -0.003097)
 37:   1068.74   0.002921   14.76  0.000853  (-0.028556 -0.004453  0.004192)
 38:   1110.85   0.002167   10.95  0.000609  (-0.022902 -0.007612  0.005137)
 39:   1121.62   0.000002    0.01  0.000000  ( 0.000113 -0.000274 -0.000618)
 40:   1141.80   0.014136   71.44  0.003864  ( 0.060746 -0.013147  0.000808)
 41:   1158.69   0.000014    0.07  0.000004  (-0.000352  0.000694  0.001759)
 42:   1221.57   0.001957    9.89  0.000500  ( 0.021891 -0.004525  0.000376)
 43:   1239.77   0.000681    3.44  0.000171  (-0.004536  0.012137 -0.001861)
 44:   1241.60   0.002940   14.86  0.000739  (-0.001916 -0.009676 -0.025333)
 45:   1272.43   0.001003    5.07  0.000246  (-0.001782 -0.005977 -0.014390)
 46:   1280.71   0.011989   60.59  0.002921  ( 0.052897 -0.011087  0.000508)
 47:   1297.96   0.003838   19.40  0.000923  ( 0.023430  0.017049 -0.009119)
 48:   1322.98   0.000724    3.66  0.000171  (-0.000621 -0.005109 -0.012013)
 49:   1329.82   0.000039    0.20  0.000009  ( 0.000731 -0.000521 -0.002908)
 50:   1341.21   0.002895   14.63  0.000674  ( 0.023830  0.008712 -0.005471)
 51:   1385.59   0.000474    2.39  0.000107  (-0.000225 -0.004262 -0.009407)
 52:   1388.71   0.001086    5.49  0.000244  (-0.001308 -0.006092 -0.014326)
 53:   1391.41   0.000868    4.38  0.000195  (-0.012864  0.005234 -0.001312)
 54:   1410.38   0.000167    0.84  0.000037  ( 0.005860 -0.001597  0.000076)
 55:   1433.17   0.002026   10.24  0.000441  ( 0.020011  0.004739 -0.004285)
 56:   1434.22   0.004875   24.63  0.001061  (-0.002905 -0.012703 -0.029847)
 57:   1447.17   0.005699   28.80  0.001229  ( 0.034542 -0.005973 -0.000354)
 58:   1454.05   0.004960   25.06  0.001064  ( 0.001430  0.029948 -0.012863)
 59:   1497.69   0.000002    0.01  0.000001  ( 0.000087  0.000297  0.000642)
 60:   1504.01   0.000209    1.06  0.000043  ( 0.000336  0.002591  0.006049)
 61:   1513.02   0.000597    3.02  0.000123  (-0.000891 -0.004004 -0.010308)
 62:   1515.32   0.001145    5.79  0.000236  (-0.005921  0.013424 -0.004541)
 63:   1519.34   0.001307    6.60  0.000268  (-0.001180 -0.005982 -0.015205)
 64:   1526.99   0.000145    0.73  0.000030  ( 0.004247 -0.003066  0.001492)
 65:   1529.66   0.000619    3.13  0.000126  (-0.010901 -0.002180  0.001634)
 66:   1538.37   0.003554   17.96  0.000721  (-0.011573 -0.021830  0.010511)
 67:   1545.43   0.003388   17.12  0.000684  ( 0.002115  0.010498  0.023863)
 68:   1565.80   0.000788    3.98  0.000157  ( 0.011101  0.004933 -0.003089)
 69:   3106.27   0.004218   21.32  0.000424  (-0.001035 -0.007950 -0.018959)
 70:   3107.01   0.000006    0.03  0.000001  ( 0.000685  0.000413 -0.000095)
 71:   3107.77   0.000215    1.09  0.000022  (-0.000211  0.001824  0.004270)
 72:   3111.24   0.009054   45.76  0.000908  ( 0.004950 -0.027566  0.011124)
 73:   3111.73   0.007637   38.59  0.000766  ( 0.026247 -0.008555  0.001954)
 74:   3119.43   0.010123   51.16  0.001013  (-0.031709  0.002560  0.000837)
 75:   3120.82   0.009226   46.62  0.000923  ( 0.001816  0.011926  0.027875)
 76:   3133.94   0.008718   44.06  0.000868  (-0.005912  0.026666 -0.011047)
 77:   3161.34   0.000053    0.27  0.000005  ( 0.000208  0.000754  0.002157)
 78:   3163.48   0.001137    5.74  0.000112  ( 0.003776  0.009052 -0.003992)
 79:   3178.77   0.004696   23.73  0.000461  ( 0.001222  0.008308  0.019762)
 80:   3182.19   0.007890   39.87  0.000774  (-0.025749 -0.008974  0.005496)
 81:   3195.62   0.000009    0.04  0.000001  ( 0.000180 -0.000252  0.000874)
 82:   3201.91   0.005192   26.24  0.000506  ( 0.004374 -0.020343  0.008549)
 83:   3206.80   0.002525   12.76  0.000246  ( 0.001701  0.006510  0.014158)
 84:   3208.56   0.003519   17.78  0.000342  (-0.014311 -0.010052  0.006031)
 85:   3219.06   0.004107   20.76  0.000398  (-0.003947 -0.007983 -0.017857)
 86:   3220.49   0.002859   14.45  0.000277  (-0.016024  0.000241  0.004493)

* The epsilon (eps) is given for a Dirac delta lineshape.
** The dipole moment derivative (T) already includes vibrational overlap.

The first frequency considered to be a vibration is 6
The total number of vibrations considered is 81


--------------------------
THERMOCHEMISTRY AT 298.15K
--------------------------

Temperature         ...   298.15 K
Pressure            ...     1.00 atm
Total Mass          ...   154.25 AMU
Quasi RRHO          ...     True
Cut-Off Frequency   ...     1.00 cm^-1

Throughout the following assumptions are being made:
  (1) The electronic state is orbitally nondegenerate
  (2) There are no thermally accessible electronically excited states
  (3) Hindered rotations indicated by low frequency modes are not
      treated as such but are treated as vibrations and this may
      cause some error
  (4) All equations used are the standard statistical mechanics
      equations for an ideal gas
  (5) All vibrations are strictly harmonic

freq.      51.46  E(vib)   ...       0.52 
freq.     175.35  E(vib)   ...       0.38 
freq.     209.48  E(vib)   ...       0.34 
freq.     228.35  E(vib)   ...       0.32 
freq.     239.89  E(vib)   ...       0.31 
freq.     262.39  E(vib)   ...       0.29 
freq.     299.48  E(vib)   ...       0.26 
freq.     309.27  E(vib)   ...       0.26 
freq.     344.61  E(vib)   ...       0.23 
freq.     403.28  E(vib)   ...       0.19 
freq.     421.15  E(vib)   ...       0.18 
freq.     441.94  E(vib)   ...       0.17 
freq.     456.19  E(vib)   ...       0.16 
freq.     475.69  E(vib)   ...       0.15 
freq.     524.23  E(vib)   ...       0.13 
freq.     567.95  E(vib)   ...       0.11 
freq.     599.78  E(vib)   ...       0.10 
freq.     677.94  E(vib)   ...       0.08 
freq.     798.81  E(vib)   ...       0.05 
freq.     823.23  E(vib)   ...       0.05 
freq.     849.11  E(vib)   ...       0.04 
freq.     890.48  E(vib)   ...       0.04 
freq.     908.78  E(vib)   ...       0.03 
freq.     932.32  E(vib)   ...       0.03 
freq.     956.08  E(vib)   ...       0.03 
freq.     962.51  E(vib)   ...       0.03 
freq.     965.77  E(vib)   ...       0.03 
freq.     976.92  E(vib)   ...       0.03 
freq.    1020.73  E(vib)   ...       0.02 
freq.    1039.42  E(vib)   ...       0.02 
freq.    1056.49  E(vib)   ...       0.02 
freq.    1068.74  E(vib)   ...       0.02 
freq.    1110.85  E(vib)   ...       0.01 
freq.    1121.62  E(vib)   ...       0.01 
freq.    1141.80  E(vib)   ...       0.01 
freq.    1158.69  E(vib)   ...       0.01 
freq.    1221.57  E(vib)   ...       0.01 
freq.    1239.77  E(vib)   ...       0.01 
freq.    1241.60  E(vib)   ...       0.01 
freq.    1272.43  E(vib)   ...       0.01 
freq.    1280.71  E(vib)   ...       0.01 
freq.    1297.96  E(vib)   ...       0.01 
freq.    1322.98  E(vib)   ...       0.01 
freq.    1329.82  E(vib)   ...       0.01 
freq.    1341.21  E(vib)   ...       0.01 
freq.    1385.59  E(vib)   ...       0.00 
freq.    1388.71  E(vib)   ...       0.00 
freq.    1391.41  E(vib)   ...       0.00 
freq.    1410.38  E(vib)   ...       0.00 
freq.    1433.17  E(vib)   ...       0.00 
freq.    1434.22  E(vib)   ...       0.00 
freq.    1447.17  E(vib)   ...       0.00 
freq.    1454.05  E(vib)   ...       0.00 
freq.    1497.69  E(vib)   ...       0.00 
freq.    1504.01  E(vib)   ...       0.00 
freq.    1513.02  E(vib)   ...       0.00 
freq.    1515.32  E(vib)   ...       0.00 
freq.    1519.34  E(vib)   ...       0.00 
freq.    1526.99  E(vib)   ...       0.00 
freq.    1529.66  E(vib)   ...       0.00 
freq.    1538.37  E(vib)   ...       0.00 
freq.    1545.43  E(vib)   ...       0.00 
freq.    1565.80  E(vib)   ...       0.00 
freq.    3106.27  E(vib)   ...       0.00 
freq.    3107.01  E(vib)   ...       0.00 
freq.    3107.77  E(vib)   ...       0.00 
freq.    3111.24  E(vib)   ...       0.00 
freq.    3111.73  E(vib)   ...       0.00 
freq.    3119.43  E(vib)   ...       0.00 
freq.    3120.82  E(vib)   ...       0.00 
freq.    3133.94  E(vib)   ...       0.00 
freq.    3161.34  E(vib)   ...       0.00 
freq.    3163.48  E(vib)   ...       0.00 
freq.    3178.77  E(vib)   ...       0.00 
freq.    3182.19  E(vib)   ...       0.00 
freq.    3195.62  E(vib)   ...       0.00 
freq.    3201.91  E(vib)   ...       0.00 
freq.    3206.80  E(vib)   ...       0.00 
freq.    3208.56  E(vib)   ...       0.00 
freq.    3219.06  E(vib)   ...       0.00 
freq.    3220.49  E(vib)   ...       0.00 

------------
INNER ENERGY
------------

The inner energy is: U= E(el) + E(ZPE) + E(vib) + E(rot) + E(trans)
    E(el)   - is the total energy from the electronic structure calculation
              = E(kin-el) + E(nuc-el) + E(el-el) + E(nuc-nuc)
    E(ZPE)  - the the zero temperature vibrational energy from the frequency calculation
    E(vib)  - the the finite temperature correction to E(ZPE) due to population
              of excited vibrational states
    E(rot)  - is the rotational thermal energy
    E(trans)- is the translational thermal energy

Summary of contributions to the inner energy U:
Electronic energy                ...    -83.92343619 Eh
Zero point energy                ...      0.27218552 Eh     170.80 kcal/mol
Thermal vibrational correction   ...      0.00765875 Eh       4.81 kcal/mol
Thermal rotational correction    ...      0.00141627 Eh       0.89 kcal/mol
Thermal translational correction ...      0.00141627 Eh       0.89 kcal/mol
-----------------------------------------------------------------------
Total thermal energy                    -83.64075937 Eh


Summary of corrections to the electronic energy:
(perhaps to be used in another calculation)
Total thermal correction                  0.01049129 Eh       6.58 kcal/mol
Non-thermal (ZPE) correction              0.27218552 Eh     170.80 kcal/mol
-----------------------------------------------------------------------
Total correction                          0.28267681 Eh     177.38 kcal/mol


--------
ENTHALPY
--------

The enthalpy is H = U + kB*T
                kB is Boltzmann's constant
Total thermal energy              ...    -83.64075937 Eh 
Thermal Enthalpy correction       ...      0.00094421 Eh       0.59 kcal/mol
-----------------------------------------------------------------------
Total Enthalpy                    ...    -83.63981516 Eh


Note: Only C1 symmetry has been detected, increase convergence thresholds 
      if your molecule has a higher symmetry. Symmetry factor of 1.0 is   
      used for the rotational entropy correction. 
 

Note: Rotational entropy computed according to Herzberg 
Infrared and Raman Spectra, Chapter V,1, Van Nostrand Reinhold, 1945 
Point Group:  C1, Symmetry Number:   1  
Rotational constants in cm-1:     0.052378     0.036495     0.035120 

Vibrational entropy computed according to the QRRHO of S. Grimme
Chem.Eur.J. 2012 18 9955 using a reference frequency of 100.0 cm-1


-------
ENTROPY
-------

The entropy contributions are T*S = T*(S(el)+S(vib)+S(rot)+S(trans))
     S(el)   - electronic entropy
     S(vib)  - vibrational entropy
     S(rot)  - rotational entropy
     S(trans)- translational entropy
The entropies will be listed as multiplied by the temperature to get
units of energy

Electronic entropy                ...      0.00000000 Eh      0.00 kcal/mol
Vibrational entropy               ...      0.01228808 Eh      7.71 kcal/mol
Rotational entropy                ...      0.01404704 Eh      8.81 kcal/mol
Translational entropy             ...      0.01948509 Eh     12.23 kcal/mol
-----------------------------------------------------------------------
Final entropy term                ...      0.04582021 Eh     28.75 kcal/mol

In case the symmetry of your molecule has not been determined correctly
or in case you have a reason to use a different symmetry number we print 
out the resulting rotational entropy values for sn=1,12:

 non-linear molecules -----------------------------------
|  sn= 1 | S(rot)=       0.01404704 Eh      8.81 kcal/mol|
|  sn= 2 | S(rot)=       0.01339258 Eh      8.40 kcal/mol|
|  sn= 3 | S(rot)=       0.01300975 Eh      8.16 kcal/mol|
|  sn= 4 | S(rot)=       0.01273812 Eh      7.99 kcal/mol|
|  sn= 5 | S(rot)=       0.01252744 Eh      7.86 kcal/mol|
|  sn= 6 | S(rot)=       0.01235529 Eh      7.75 kcal/mol|
|  sn= 7 | S(rot)=       0.01220974 Eh      7.66 kcal/mol|
|  sn= 8 | S(rot)=       0.01208367 Eh      7.58 kcal/mol|
|  sn= 9 | S(rot)=       0.01197246 Eh      7.51 kcal/mol|
|  sn=10 | S(rot)=       0.01187298 Eh      7.45 kcal/mol|
|  sn=11 | S(rot)=       0.01178299 Eh      7.39 kcal/mol|
|  sn=12 | S(rot)=       0.01170083 Eh      7.34 kcal/mol|
 linear molecules ---------------------------------------
|  Dinfh | S(rot)=       0.00848785 Eh      5.33 kcal/mol|
|  Cinfv | S(rot)=       0.00914230 Eh      5.74 kcal/mol|
 --------------------------------------------------------


-------------------
GIBBS FREE ENERGY
-------------------

The Gibbs free energy is G = H - T*S

Total enthalpy                    ...    -83.63981516 Eh 
Total entropy correction          ...     -0.04582021 Eh    -28.75 kcal/mol
-----------------------------------------------------------------------
Final Gibbs free energy         ...    -83.68563537 Eh

For completeness - the Gibbs free energy minus the electronic energy
G-E(el)                           ...      0.23780082 Eh    149.22 kcal/mol


Maximum memory used throughout the entire PROP-calculation: 141.1 MB

--------------------------------
SUGGESTED CITATIONS FOR THIS RUN
--------------------------------

Below you find a list of papers that are relevant to this ORCA run
We neither can nor want to force you to cite these papers, but we appreciate if you do
You receive ORCA, which is the product of decades of hard work by many enthusiastic individuals, for free
The only thing we kindly ask in return is that you cite our papers,
We deeply appreciate it, if you show your appreciation for ORCA by not just citing the generic ORCA reference.

Please note that relegating all ORCA citations to the supporting information does *not* help us.
SI sections are not indexed - citations you put there will not count into any citation statistics
But we need these citations in order to attract the funding resources that allow us to do what we are doing

Therefore, if you are a happy ORCA user, please consider citing a few of the papers listed below in the main body of your paper

In addition to the list printed below, the program has created the file ./output/1_8_cineole/1_8_cineole.bibtex that contains the list in bibtex format
You can import this file easily into all common literature databanks and citation aid programs


List of essential papers. We consider these as the minimum necessary citations

  1. Neese,F.
     Software update: the ORCA program system, version 5.0
     WIRES Comput. Molec. Sci., 2022 12(1)e1606
     doi.org/10.1002/wcms.1606
  2. Mueller,M.; Hansen,A.; Grimme,S.
     wB97X-3c: A composite range-separated hybrid DFT method with a molecule-optimized polarized valence double-zeta basis set
     J. Chem. Phys., 2023 158 014103
     doi.org/10.1063/5.0133026

List of papers to cite with high priority. The work reported in these papers was absolutely
necessary for this run to complete.
Our perspective: the developers of density functionals and basis sets usually get cited in chemistry papers
Good! But without the algorithms to do something with them, the functionals or basis sets would not do anything.
Hence, in our opinion, the algorithm design and method developments papers are equally worthy of getting cited

  1. Neese,F.
     An improvement of the resolution of the identity approximation for the formation of the Coulomb matrix
     J. Comp. Chem., 2003 24(14)1740-1747
     doi.org/10.1002/jcc.10318
  2. Neese,F.; Wennmohs,F.; Hansen,A.; Becker,U.
     Efficient, approximate and parallel Hartree-Fock and hybrid DFT calculations. A 'chain-of-spheres' algorithm for the Hartree-Fock exchange
     Chem. Phys., 2009 356(1-3)98-109
     doi.org/10.1016/j.chemphys.2008.10.036
  3. Bykov,D.; Petrenko,T.; Izsak,R.; Kossmann,S.; Becker,U.; Valeev,E.; Neese,F.
     Efficient implementation of the analytic second derivatives of Hartree-Fock and hybrid DFT energies: a detailed analysis of different approximations
     Molec. Phys., 2015 113 1961-1977
     doi.org/10.1080/00268976.2015.1025114
  4. Helmich-Paris,B.; de Souza,B.; Neese,F.; Izsák,R.
     An improved chain of spheres for exchange algorithm
     J. Chem. Phys., 2021 155 104109
     doi.org/doi: 10.1063/5.0058766.
  5. Neese,F.
     The SHARK Integral Generation and Digestion System
     J. Comp. Chem., 2022  1-16
     doi.org/10.1002/jcc.26942
  6. Caldeweyher,E.; Bannwarth,C.; Grimme,S.
     Extension of the D3 dispersion coefficient model
     J. Chem. Phys., 2017 147 034112
     doi.org/10.1063/1.4993215
  7. Caldeweyher,E.; Ehlert,S.; Hansen,A.; Neugebauer,H.; Spicher,S.; Bannwarth,C.; Grimme,S.
     A generally applicable atomic-charge dependent London dispersion correction
     J. Chem. Phys., 2019 150 154122
     doi.org/10.1063/1.5090222
  8. Caldeweyher,E.; Mewes,J.; Ehlert,S.; Grimme,S.
     Extension and evaluation of the D4 London-dispersion model for periodic systems
     Phys. Chem. Chem. Phys., 2020 22(16)8499-8512
     doi.org/10.1039/D0CP00502A
  9. Wittmann,L.; Gordiy,I.; Friede,M.; Helmich-Paris,B.; Grimme,S.; Hansen,A.; Bursch,M.
     Extension of the D3 and D4 London Dispersion Corrections to the full Actinides Series
     Phys. Chem. Chem. Phys., 2024 26(32)21379-21394
     doi.org/https://doi.org/10.1039/D4CP01514B 

List of suggested additional citations. These are papers that are important in the 'surrounding' of 
of this run, or papers that preceded the highly important papers. If you like your results we are grateful for a citation.

  1. Izsak,R.; Neese,F.
     An overlap fitted chain of spheres exchange method
     J. Chem. Phys., 2011 135 144105
     doi.org/10.1063/1.3646921
  2. Izsak,R.; Hansen,A.; Neese,F.
     The resolution of identity and chain of spheres approximations for the LPNO-CCSD singles Fock term
     Molec. Phys., 2012 110 2413-2417
     doi.org/10.1080/00268976.2012.687466
  3. Neese,F.
     The ORCA program system
     WIRES Comput. Molec. Sci., 2012 2(1)73-78
     doi.org/10.1002/wcms.81
  4. Izsak,R.; Neese,F.; Klopper,W.
     Robust fitting techniques in the chain of spheres approximation to the Fock exchange: The role of the complementary space
     J. Chem. Phys., 2013 139 
     doi.org/10.1063/1.4819264
  5. Neese,F.
     Software update: the ORCA program system, version 4.0
     WIRES Comput. Molec. Sci., 2018 8(1)1-6
     doi.org/10.1002/wcms.1327
  6. Neese,F.; Wennmohs,F.; Becker,U.; Riplinger,C.
     The ORCA quantum chemistry program package
     J. Chem. Phys., 2020 152 Art. No. L224108
     doi.org/10.1063/5.0004608

List of optional additional citations

  1. Neese,F.
     Approximate second-order SCF convergence for spin unrestricted wavefunctions
     Chem. Phys. Lett., 2000 325(1-3)93-98
     doi.org/10.1016/s0009-2614(00)00662-x

Timings for individual modules:

Sum of individual times          ...      670.708 sec (=  11.178 min)
Startup calculation              ...       28.499 sec (=   0.475 min)   4.2 %
SCF iterations                   ...      347.453 sec (=   5.791 min)  51.8 %
Property integrals               ...       64.163 sec (=   1.069 min)   9.6 %
SCF Response                     ...       42.573 sec (=   0.710 min)   6.3 %
Property calculations            ...      116.660 sec (=   1.944 min)  17.4 %
SCF Gradient evaluation          ...       71.181 sec (=   1.186 min)  10.6 %
Geometry relaxation              ...        0.179 sec (=   0.003 min)   0.0 %
                             ****ORCA TERMINATED NORMALLY****
TOTAL RUN TIME: 0 days 0 hours 11 minutes 14 seconds 484 msec
