
                                 *****************
                                 * O   R   C   A *
                                 *****************

                                            #,                                       
                                            ###                                      
                                            ####                                     
                                            #####                                    
                                            ######                                   
                                           ########,                                 
                                     ,,################,,,,,                         
                               ,,#################################,,                 
                          ,,##########################################,,             
                       ,#########################################, ''#####,          
                    ,#############################################,,   '####,        
                  ,##################################################,,,,####,       
                ,###########''''           ''''###############################       
              ,#####''   ,,,,##########,,,,          '''####'''          '####       
            ,##' ,,,,###########################,,,                        '##       
           ' ,,###''''                  '''############,,,                           
         ,,##''                                '''############,,,,        ,,,,,,###''
      ,#''                                            '''#######################'''  
     '                                                          ''''####''''         
             ,#######,   #######,   ,#######,      ##                                
            ,#'     '#,  ##    ##  ,#'     '#,    #''#        ,####,   ,####,        
            ##       ##  ##   ,#'  ##            #'  '#       #'       #'  '#        
            ##       ##  #######   ##           ,######,      #####,   #    #        
            '#,     ,#'  ##    ##  '#,     ,#' ,#      #,     #,   #   #,  ,#        
             '#######'   ##     ##  '#######'  #'      '#     '####' # '####'        



                #########################################################
                #                        -***-                          #
                #          Department of theory and spectroscopy        #
                #                                                       #
                #                      Frank Neese                      #
                #                                                       #
                #     Directorship, Architecture, Infrastructure        #
                #                    SHARK, DRIVERS                     #
                #        Core code/Algorithms in most modules           #
                #                                                       #
                #        Max Planck Institute fuer Kohlenforschung      #
                #                Kaiser Wilhelm Platz 1                 #
                #                 D-45470 Muelheim/Ruhr                 #
                #                      Germany                          #
                #                                                       #
                #                  All rights reserved                  #
                #                        -***-                          #
                #########################################################


                         Program Version 6.0.1  -  RELEASE   -


 With contributions from (in alphabetic order):
[Max-Planck-Institut fuer Kohlenforschung]                               
  Daniel Aravena         : Magnetic Suceptibility                        
  Michael Atanasov       : Ab Initio Ligand Field Theory (pilot matlab implementation)
  Alexander A. Auer      : GIAO ZORA, VPT2 properties, NMR spectrum      
  Ute Becker             : All parallelization in ORCA, NUMFREQ, NUMCALC 
  Giovanni Bistoni       : ED, misc. LED, open-shell LED, HFLD           
  Martin Brehm           : Molecular dynamics                            
  Dmytro Bykov           : pre 5.0 version of the SCF Hessian            
  Marcos Casanova-Páez   : Triplet and SCS-CIS(D). UHF-(DLPNO)-IP/EA/STEOM-CCSD. UHF-CVS-IP/STEOM-CCSD   
  Vijay G. Chilkuri      : MRCI spin determinant printing, contributions to CSF-ICE 
  Pauline Colinet        : FMM embedding                                 
  Dipayan Datta          : RHF DLPNO-CCSD density                        
  Achintya Kumar Dutta   : EOM-CC, STEOM-CC                              
  Nicolas Foglia         : Exact transition moments, OPA infrastructure, MCD improvements    
  Dmitry Ganyushin       : Spin-Orbit,Spin-Spin,Magnetic field MRCI      
  Miquel Garcia-Rates    : C-PCM and meta-GGA Hessian, CCSD/C-PCM, Gaussian charge scheme 
  Tiago L. C. Gouveia    : GS-ROHF, GS-ROCIS                             
  Yang Guo               : DLPNO-NEVPT2, F12-NEVPT2, CIM, IAO-localization        
  Andreas Hansen         : Spin unrestricted coupled pair/coupled cluster methods 
  Ingolf Harden          : AUTO-CI MPn and infrastructure                
  Benjamin Helmich-Paris : MC-RPA, TRAH-(SCF,CASSCF), AVAS, COSX integrals, SCF dyn. polar. 
  Lee Huntington         : MR-EOM, pCC                                   
  Robert Izsak           : Overlap fitted RIJCOSX, COSX-SCS-MP3, EOM     
  Riya Kayal             : Wick's Theorem for AUTO-CI, AUTO-CI UHF-CCSDT 
  Emily Kempfer          : AUTO-CI, RHF CISDT and CCSDT                  
  Christian Kollmar      : KDIIS, OOCD, Brueckner-CCSD(T), CCSD density, CASPT2, CASPT2-K, improved NEVPT2 
  Axel Koslowski         : Symmetry handling                             
  Simone Kossmann        : meta-GGA functionals, TD-DFT gradient, OOMP2, (MP2 Hessian; deprecated post 5.0) 
  Lucas Lang             : DCDCAS                                        
  Marvin Lechner         : AUTO-CI (C++ implementation), FIC-MRCC        
  Spencer Leger          : CASSCF response                               
  Dagmar Lenk            : GEPOL surface, SMD, ORCA-2-JSON               
  Dimitrios Liakos       : Extrapolation schemes; Compound Job, initial MDCI parallelization 
  Dimitrios Manganas     : Further ROCIS development; embedding schemes. LFT, Crystal Embedding 
  Dimitrios Pantazis     : SARC Basis sets                               
  Anastasios Papadopoulos: AUTO-CI, single reference methods and gradients 
  Taras Petrenko         : pre 6.0 DFT Hessian and TD-DFT gradient, (ASA, deprecated), ECA, 1-Electron XAS/XES, NRVS 
  Peter Pinski           : DLPNO-MP2, DLPNO-MP2 Gradient                 
  Christoph Reimann      : Effective Core Potentials                     
  Marius Retegan         : Local ZFS, SOC                                
  Christoph Riplinger    : Optimizer, TS searches, QM/MM, DLPNO-CCSD(T), (RO)-DLPNO pert. Triples 
  Michael Roemelt        : Original ROCIS implementation                 
  Masaaki Saitow         : Open-shell DLPNO-CCSD energy and density      
  Barbara Sandhoefer     : DKH picture change effects                    
  Kantharuban Sivalingam : CASSCF convergence/infrastructure, NEVPT2 and variants, FIC-MRCI 
  Bernardo de Souza      : ESD, SOC TD-DFT                               
  Georgi L. Stoychev     : AutoAux, RI-MP2 NMR, DLPNO-MP2 response, X2C  
  Van Anh Tran           : RI-MP2 g-tensors                              
  Willem Van den Heuvel  : Paramagnetic NMR                              
  Zikuan Wang            : NOTCH, Electric field optimization            
  Frank Wennmohs         : Technical directorship and infrastructure     
  Hang Xu                : AUTO-CI-Response properties                   
                                                                         
[FACCTs GmbH]                                                            
  Markus Bursch, Miquel Garcia-Rates, Christoph Riplinger, Bernardo de Souza, Georgi L. Stoychev 
                                                                 
  APM, Basis sets (HGBS, AHGBS, def-TZVP (Ac-Lr), def2-XVPD (La-Lu)), CI-OPT, improved COSX, DLPNO-Multilevel,           
  DOCKER, DRACO, updates on ESD, GOAT, IRC, LR-CPCM, MBIS, meta-GGA TD-DFT gradient, ML-optimized integration grids, 
  MM, NACMEs, nearIR, NEB, NEB-TS, NL-DFT gradient (VV10), 2- and 3-layer-ONIOM, interface openCOSMO-RS, QMMM,   
  Crystal-QMMM, SF, symmetry and pop. for TD-DFT, r2SCAN hybrids, SOLVATOR                                   
                                                                         
[Other institutions]                                                     
  V. Asgeirsson          : NEB                                           
  Christoph Bannwarth    : sTDA-DFT, sTD-DFT, PBEh-3c, B97-3c, D3        
  Sebastian Ehlert       : rSCAN, r2SCAN, r2SCAN-3c, D4, dhf basis sets  
  Marvin Friede          : D4 for Fr, Ra, Ac-Lr                          
  Lars Goerigk           : TD-DFT with DH, B97 family of functionals     
  Stefan Grimme          : VdW corrections, initial TS optimization, DFT functionals, gCP, sTDA/sTD-DF 
  Waldemar Hujo          : DFT-NL                                        
  H. Jonsson             : NEB                                           
  Holger Kruse           : gCP                                           
  Marcel Mueller         : wB97X-3c, vDZP basis set                      
  Hagen Neugebauer       : wr2SCAN                                       
  Tobias Risthaus        : range-separated hybrid DFT                    
  Lukas Wittmann         : regularized MP2, r2SCAN double-hybrids, wr2SCAN        
                                                                         
We gratefully acknowledge several colleagues who have allowed us to      
interface, adapt or use parts of their codes:                            
  Ed Valeev, F. Pavosevic, A. Kumar             : LibInt (2-el integral package), F12 methods 
  Garnet Chan, S. Sharma, J. Yang, R. Olivares  : DMRG                   
  Ulf Ekstrom                                   : XCFun DFT Library      
  Mihaly Kallay                                 : mrcc  (arbitrary order and MRCC methods)
  Frank Weinhold                                : gennbo (NPA and NBO analysis)           
  Simon Mueller                                 : openCOSMO-RS                            
  Christopher J. Cramer and Donald G. Truhlar   : smd solvation model                     
  S Lehtola, MJT Oliveira, MAL Marques          : LibXC Library                           
  Liviu Ungur et al                             : ANISO software                          


 Your calculation uses the libint2 library for the computation of 2-el integrals
 For citations please refer to: http://libint.valeyev.net

 Your ORCA version has been built with support for libXC version: 6.2.2
 For citations please refer to: https://libxc.gitlab.io

 This ORCA versions uses:
   CBLAS   interface :  Fast vector & matrix operations
   LAPACKE interface :  Fast linear algebra routines
   SCALAPACK package :  Parallel linear algebra routines
   Shared memory     :  Shared parallel matrices
   BLAS/LAPACK       :  OpenBLAS 0.3.27  USE64BITINT DYNAMIC_ARCH NO_AFFINITY SkylakeX SINGLE_THREADED
        Core in use  :  SkylakeX
   Copyright (c) 2011-2014, The OpenBLAS Project


Your calculation utilizes the atom-pairwise dispersion correction
based on EEQ partial charges (D4)


================================================================================

cite the ECPs for C  [vDZP-ECP] as follows:
   B-Ne (ecp-2-mwb), Al-Ar (ecp-10-mwb), Ga-Kr (ecp-28-mwb), Y-Cd (ecp-28-mwb), In-Xe (ecp-46-mwb):
     A. Bergner, M. Dolg, W. Küchle, H. Stoll, and H. Preuß, Mol. Phys. 80, 1431 (1993)., T. Leininger, A. Berning, A. Nicklass, H. Stoll, H.-J. Werner, and H.-J.Flad, Chem. Phys. 217, 19 (1997).
   Na-Mg, K-Ca, Rb-Sr, Cs-Ba (CRENBL):
     L. Fernandez Pacios and P. A. Christiansen, J. Chem. Phys. 82, 2664 (1985)., M. M. Hurley, L. F. Pacios, P. A. Christiansen, R. B. Ross, and W. C. Ermler, J. Chem. Phys. 84, 6840 (1986)., L. A. LaJohn, P. A. Christiansen, R. B. Ross, T. Atashroo, and W. C. Ermler, J. Chem. Phys. 87, 2812 (1987)., R. B. Ross, J. M. Powers, T. Atashroo, W. C. Ermler, L. A. LaJohn, and P. A. Christiansen, J. Chem. Phys. 93, 6654 (1990). 
   Sc-Zn (ecp-10-mdf):
     M. Dolg, U. Wedig, H. Stoll, and H. Preuss, J. Chem. Phys. 86, 866 (1986). 
   Y-Cd (ecp-28-mwb), Hf-Hg (ecp-60-mwb):
     D. Andrae, U. Häußermann, M. Dolg, H. Stoll, and H. Preuß, Theor. Chim. Acta 77, 123 (1990). 
   La (ecp-46-mwb):
     M. Dolg, H. Stoll, and H. Preuss, J. Chem. Phys. 90, 1730 (1989)., M. Dolg, H. Stoll, and H. Preuss, Theor. Chim. Acta 85, 441 (1993).
   Ce-Lu (SBKJC-ecp):
     T. R. Cundari and W. J. Stevens, J. Chem. Phys. 98, 5555 (1993).
   Tl-Rn (ecp-78-mwb):
     W. Küchle, M. Dolg, H. Stoll, and H. Preuss, Mol. Phys. 74, 1245 (1991).

ECP parameters for C  [vDZP-ECP] have been obtained from:
MM, AH, SG, J. Chem. Phys. 158, 014103 (2023), 10.1063/5.0133026

----- Orbital basis set information -----
Your calculation utilizes the basis: vDZP
   Marcel Mueller, Andreas Hansen, Stefan Grimme 
   J. Chem. Phys. 158, 014103 (2023). DOI: 10.1063/5.0133026

----- AuxJ basis set information -----
Your calculation utilizes the auxiliary basis: def2/J
   F. Weigend, Phys. Chem. Chem. Phys. 8, 1057 (2006).

================================================================================
                                        WARNINGS
                       Please study these warnings very carefully!
================================================================================

WARNING: Frozen-Core approximation turned on, but there are no core electrons.
  ===> : Turning off frozen-core approximation


WARNING: Geometry Optimization
  ===> : Switching off AutoStart
         For restart on a previous wavefunction, please use MOREAD

================================================================================
                                       INPUT FILE
================================================================================
NAME = ./output/_e_caryophyllene/_e_caryophyllene.inp
|  1> ! wB97X-3c OPT FREQ TightSCF
|  2> %pal
|  3>   nprocs 40
|  4> end
|  5> * xyz 0 1
|  6> C     -2.409906    -0.706526    -1.869607
|  7> C     -2.023804    -1.262219    -0.519747
|  8> C     -2.418480    -0.688854     0.636808
|  9> C     -2.779408     0.762688     0.761223
| 10> C     -1.526936     1.571164     1.146542
| 11> C     -0.582093     1.781114    -0.027149
| 12> C     -0.713213     2.905330    -0.752414
| 13> C      0.445282     0.751806    -0.509760
| 14> C      1.888204     1.195393    -0.255326
| 15> C      2.176846    -0.120082     0.482904
| 16> C      0.697396    -0.549435     0.294331
| 17> C      0.440629    -1.850620    -0.527732
| 18> C     -1.009514    -2.379151    -0.443325
| 19> C      3.244742    -0.966059    -0.240488
| 20> C      2.547356     0.102809     1.960418
| 21> H     -3.513762    -0.740131    -1.981803
| 22> H     -2.065242     0.339664    -1.988064
| 23> H     -1.958577    -1.306849    -2.687211
| 24> H     -2.154624    -1.173455     1.574155
| 25> H     -3.527082     0.857935     1.577399
| 26> H     -3.250682     1.170223    -0.157688
| 27> H     -1.864602     2.557985     1.533972
| 28> H     -0.996670     1.103879     2.001478
| 29> H     -1.450613     3.660122    -0.495911
| 30> H     -0.085260     3.085591    -1.620208
| 31> H      0.302140     0.547139    -1.594475
| 32> H      2.457507     1.319036    -1.203448
| 33> H      1.965241     2.094543     0.397168
| 34> H      0.183971    -0.599054     1.273967
| 35> H      0.705885    -1.699260    -1.596481
| 36> H      1.098181    -2.657839    -0.141801
| 37> H     -1.183696    -3.101333    -1.269886
| 38> H     -1.134513    -2.953461     0.501646
| 39> H      3.338129    -1.962965     0.239374
| 40> H      4.231134    -0.458683    -0.180269
| 41> H      2.998690    -1.101151    -1.314882
| 42> H      2.585410    -0.871926     2.491529
| 43> H      3.541867     0.591816     2.036694
| 44> H      1.800067     0.750817     2.468067
| 45> *
| 46> 
| 47>                          ****END OF INPUT****
================================================================================

                       *****************************
                       * Geometry Optimization Run *
                       *****************************

Geometry optimization settings:
Update method            Update   .... BFGS
Choice of coordinates    CoordSys .... (2022) Redundant Internals
Initial Hessian          InHess   .... Almloef's Model
Max. no of cycles        MaxIter  .... 117

Convergence Tolerances:
Energy Change            TolE     ....  5.0000e-06 Eh
Max. Gradient            TolMAXG  ....  3.0000e-04 Eh/bohr
RMS Gradient             TolRMSG  ....  1.0000e-04 Eh/bohr
Max. Displacement        TolMAXD  ....  4.0000e-03 bohr
RMS Displacement         TolRMSD  ....  2.0000e-03 bohr
Strict Convergence                .... False

------------------------------------------------------------------------------
                        ORCA OPTIMIZATION COORDINATE SETUP
------------------------------------------------------------------------------

The optimization will be done in redundant internal coordinates (2022)
Making redundant internal coordinates   ...  (2022 redundants) done
Evaluating the initial hessian          ...  (Almloef) done
Evaluating the coordinates              ...  done
Calculating the B-matrix                .... done
Calculating the G-matrix                .... done
Diagonalizing the G-matrix              .... done
Small eigenvalue found = 1.826e-02
Small eigenvalue found = 2.591e-02
Small eigenvalue found = 2.974e-02
The first mode is                       ....   94
The number of degrees of freedom        ....  111

    -----------------------------------------------------------------
                    Redundant Internal Coordinates


    -----------------------------------------------------------------
         Definition                    Initial Value    Approx d2E/dq
    -----------------------------------------------------------------
      1. B(C   1,C   0)                  1.5100         0.402109   
      2. B(C   2,C   1)                  1.3499         0.724054   
      3. B(C   3,C   2)                  1.5009         0.415713   
      4. B(C   4,C   3)                  1.5397         0.360448   
      5. B(C   5,C   4)                  1.5213         0.385705   
      6. B(C   6,C   5)                  1.3443         0.739089   
      7. B(C   7,C   5)                  1.5323         0.370456   
      8. B(C   8,C   7)                  1.5309         0.372397   
      9. B(C   9,C   8)                  1.5358         0.365660   
     10. B(C  10,C   9)                  1.5520         0.344582   
     11. B(C  10,C   7)                  1.5503         0.346761   
     12. B(C  11,C  10)                  1.5604         0.334119   
     13. B(C  12,C  11)                  1.5458         0.352556   
     14. B(C  12,C   1)                  1.5107         0.401049   
     15. B(C  13,C   9)                  1.5425         0.356779   
     16. B(C  14,C   9)                  1.5395         0.360786   
     17. B(H  15,C   0)                  1.1101         0.334527   
     18. B(H  16,C   0)                  1.1079         0.337240   
     19. B(H  17,C   0)                  1.1102         0.334336   
     20. B(H  18,C   2)                  1.0877         0.363164   
     21. B(H  19,C   3)                  1.1110         0.333413   
     22. B(H  20,C   3)                  1.1102         0.334325   
     23. B(H  21,C   4)                  1.1126         0.331379   
     24. B(H  22,C   4)                  1.1093         0.335505   
     25. B(H  23,C   6)                  1.0859         0.365512   
     26. B(H  24,C   6)                  1.0862         0.365128   
     27. B(H  25,C   7)                  1.1131         0.330806   
     28. B(H  26,C   8)                  1.1128         0.331164   
     29. B(H  27,C   8)                  1.1136         0.330169   
     30. B(H  28,C  10)                  1.1071         0.338128   
     31. B(H  29,C  11)                  1.1115         0.332718   
     32. B(H  30,C  11)                  1.1104         0.334138   
     33. B(H  31,C  12)                  1.1113         0.332941   
     34. B(H  32,C  12)                  1.1128         0.331111   
     35. B(H  33,C  13)                  1.1103         0.334198   
     36. B(H  34,C  13)                  1.1109         0.333527   
     37. B(H  35,C  13)                  1.1105         0.334030   
     38. B(H  36,C  14)                  1.1107         0.333742   
     39. B(H  37,C  14)                  1.1109         0.333542   
     40. B(H  38,C  14)                  1.1118         0.332406   
     41. A(H  16,C   0,H  17)          107.7831         0.284552   
     42. A(C   1,C   0,H  17)          110.8184         0.324285   
     43. A(H  15,C   0,H  16)          109.0962         0.284577   
     44. A(C   1,C   0,H  16)          111.3196         0.324746   
     45. A(C   1,C   0,H  15)          109.4808         0.324316   
     46. A(H  15,C   0,H  17)          108.2675         0.284195   
     47. A(C   2,C   1,C  12)          117.8405         0.412840   
     48. A(C   0,C   1,C  12)          119.2750         0.372477   
     49. A(C   0,C   1,C   2)          122.3347         0.413034   
     50. A(C   1,C   2,H  18)          118.5675         0.362866   
     51. A(C   3,C   2,H  18)          114.6943         0.330543   
     52. A(C   1,C   2,C   3)          123.5125         0.415483   
     53. A(C   2,C   3,C   4)          109.4473         0.367803   
     54. A(C   2,C   3,H  20)          112.8595         0.326062   
     55. A(C   2,C   3,H  19)          107.7973         0.325916   
     56. A(C   4,C   3,H  20)          111.0804         0.318530   
     57. A(C   4,C   3,H  19)          108.5767         0.318389   
     58. A(H  19,C   3,H  20)          106.9128         0.284046   
     59. A(C   5,C   4,H  22)          110.8462         0.322262   
     60. A(H  21,C   4,H  22)          104.4969         0.283931   
     61. A(C   3,C   4,H  22)          111.1329         0.318713   
     62. A(C   5,C   4,H  21)          109.5563         0.321610   
     63. A(C   3,C   4,H  21)          107.8171         0.318071   
     64. A(C   3,C   4,C   5)          112.6188         0.363115   
     65. A(C   6,C   5,C   7)          117.2101         0.408559   
     66. A(C   4,C   5,C   7)          124.5213         0.364819   
     67. A(C   4,C   5,C   6)          118.1044         0.411490   
     68. A(H  23,C   6,H  24)          117.7696         0.292159   
     69. A(C   5,C   6,H  24)          120.8923         0.364479   
     70. A(C   5,C   6,H  23)          121.3373         0.364544   
     71. A(C  10,C   7,H  25)          111.8408         0.315984   
     72. A(C   5,C   7,H  25)          110.1344         0.319405   
     73. A(C   8,C   7,C  10)           90.2135         0.358573   
     74. A(C   5,C   7,C  10)          120.6315         0.358254   
     75. A(C   8,C   7,H  25)          109.6611         0.319678   
     76. A(C   5,C   7,C   8)          112.6423         0.362636   
     77. A(C   7,C   8,H  27)          113.3623         0.319577   
     78. A(H  26,C   8,H  27)          111.9693         0.283197   
     79. A(C   9,C   8,H  27)          113.3864         0.318626   
     80. A(C   9,C   8,H  26)          114.1143         0.318783   
     81. A(C   7,C   8,H  26)          111.8881         0.319734   
     82. A(C   7,C   8,C   9)           90.5067         0.361830   
     83. A(C  13,C   9,C  14)          111.2769         0.358377   
     84. A(C   8,C   9,C  10)           89.9654         0.357078   
     85. A(C  10,C   9,C  14)          112.7114         0.356265   
     86. A(C   8,C   9,C  14)          112.4914         0.359881   
     87. A(C  10,C   9,C  13)          116.8234         0.355590   
     88. A(C   8,C   9,C  13)          111.9898         0.359197   
     89. A(C   9,C  10,C  11)          116.8443         0.351660   
     90. A(C  11,C  10,H  28)          110.6390         0.315202   
     91. A(C   7,C  10,C  11)          113.5729         0.352035   
     92. A(C   9,C  10,H  28)          110.3010         0.316786   
     93. A(C   7,C  10,H  28)          114.9070         0.317111   
     94. A(C   7,C  10,C   9)           89.1886         0.353877   
     95. A(H  29,C  11,H  30)          106.9698         0.283929   
     96. A(C  12,C  11,H  30)          106.7388         0.317354   
     97. A(C  10,C  11,H  30)          109.0057         0.314595   
     98. A(C  12,C  11,H  29)          108.8410         0.317134   
     99. A(C  10,C  11,H  29)          110.7160         0.314378   
    100. A(C  10,C  11,C  12)          114.2508         0.353024   
    101. A(C  11,C  12,H  31)          109.1846         0.317169   
    102. A(C   1,C  12,H  31)          109.7306         0.323922   
    103. A(C   1,C  12,C  11)          111.9819         0.364163   
    104. A(H  31,C  12,H  32)          106.1760         0.283557   
    105. A(C  11,C  12,H  32)          109.1596         0.316884   
    106. A(C   1,C  12,H  32)          110.4324         0.323629   
    107. A(H  34,C  13,H  35)          107.7438         0.284022   
    108. A(H  33,C  13,H  35)          109.1205         0.284111   
    109. A(C   9,C  13,H  35)          111.5343         0.317954   
    110. A(H  33,C  13,H  34)          108.1782         0.284044   
    111. A(C   9,C  13,H  34)          109.8047         0.317876   
    112. A(C   9,C  13,H  33)          110.3630         0.317980   
    113. A(H  37,C  14,H  38)          108.2900         0.283809   
    114. A(H  36,C  14,H  38)          108.4331         0.283835   
    115. A(C   9,C  14,H  38)          111.1522         0.318280   
    116. A(H  36,C  14,H  37)          108.8333         0.283986   
    117. A(C   9,C  14,H  37)          110.1879         0.318457   
    118. A(C   9,C  14,H  36)          109.8840         0.318488   
    119. D(C   2,C   1,C   0,H  16)     58.3519         0.011994   
    120. D(C  12,C   1,C   0,H  16)   -112.9571         0.011994   
    121. D(C   2,C   1,C   0,H  17)    178.2955         0.011994   
    122. D(C  12,C   1,C   0,H  15)    126.3412         0.011994   
    123. D(C   2,C   1,C   0,H  15)    -62.3498         0.011994   
    124. D(C   3,C   2,C   1,C   0)    -24.9744         0.037142   
    125. D(H  18,C   2,C   1,C   0)    176.4206         0.037142   
    126. D(H  18,C   2,C   1,C  12)    -12.1519         0.037142   
    127. D(C   3,C   2,C   1,C  12)    146.4531         0.037142   
    128. D(H  20,C   3,C   2,C   1)     33.0995         0.012787   
    129. D(H  19,C   3,C   2,H  18)    -49.7147         0.012787   
    130. D(H  19,C   3,C   2,C   1)    150.9337         0.012787   
    131. D(C   4,C   3,C   2,H  18)     68.2011         0.012787   
    132. D(C   4,C   3,C   2,C   1)    -91.1505         0.012787   
    133. D(C   5,C   4,C   3,C   2)     76.1824         0.010422   
    134. D(H  21,C   4,C   3,C   2)   -162.8336         0.010422   
    135. D(H  21,C   4,C   3,H  19)    -45.4061         0.010422   
    136. D(C   5,C   4,C   3,H  20)    -49.1016         0.010422   
    137. D(H  21,C   4,C   3,H  20)     71.8824         0.010422   
    138. D(C   5,C   4,C   3,H  19)   -166.3901         0.010422   
    139. D(C   7,C   5,C   4,H  21)    157.8822         0.011082   
    140. D(C   7,C   5,C   4,C   3)    -82.1331         0.011082   
    141. D(C   6,C   5,C   4,H  21)    -26.9162         0.011082   
    142. D(C   6,C   5,C   4,C   3)     93.0685         0.011082   
    143. D(C   6,C   5,C   4,H  22)   -141.7208         0.011082   
    144. D(H  24,C   6,C   5,C   4)   -177.9058         0.038848   
    145. D(H  23,C   6,C   5,C   7)    177.3433         0.038848   
    146. D(H  23,C   6,C   5,C   4)      1.7880         0.038848   
    147. D(H  24,C   6,C   5,C   7)     -2.3505         0.038848   
    148. D(C   8,C   7,C   5,C   6)     73.2350         0.010275   
    149. D(C   8,C   7,C   5,C   4)   -111.5242         0.010275   
    150. D(H  25,C   7,C   5,C   4)    125.7096         0.010275   
    151. D(C  10,C   7,C   5,C   6)    177.8126         0.010275   
    152. D(C  10,C   7,C   5,C   4)     -6.9466         0.010275   
    153. D(H  26,C   8,C   7,H  25)      5.6988         0.011078   
    154. D(H  26,C   8,C   7,C  10)    119.0518         0.011078   
    155. D(H  26,C   8,C   7,C   5)   -117.3323         0.011078   
    156. D(C   9,C   8,C   7,C  10)      2.7009         0.011078   
    157. D(C   9,C   8,C   7,H  25)   -110.6522         0.011078   
    158. D(C   9,C   8,C   7,C   5)    126.3168         0.011078   
    159. D(C  13,C   9,C   8,H  27)   -127.7525         0.010704   
    160. D(C  13,C   9,C   8,H  26)      2.0499         0.010704   
    161. D(C  13,C   9,C   8,C   7)    116.4064         0.010704   
    162. D(C  10,C   9,C   8,H  27)    113.1432         0.010704   
    163. D(C  10,C   9,C   8,H  26)   -117.0544         0.010704   
    164. D(C  10,C   9,C   8,C   7)     -2.6979         0.010704   
    165. D(C  11,C  10,C   9,C  14)   -126.6774         0.009591   
    166. D(C  11,C  10,C   9,C  13)      4.0486         0.009591   
    167. D(C  11,C  10,C   9,C   8)    118.8380         0.009591   
    168. D(C   7,C  10,C   9,C  13)   -112.1251         0.009591   
    169. D(C   7,C  10,C   9,C   8)      2.6643         0.009591   
    170. D(C  11,C  10,C   7,H  25)    -10.4428         0.009703   
    171. D(C  11,C  10,C   7,C   8)   -121.7870         0.009703   
    172. D(C   7,C  10,C   9,C  14)    117.1488         0.009591   
    173. D(C  11,C  10,C   7,C   5)    121.4939         0.009703   
    174. D(C   9,C  10,C   7,H  25)    108.6713         0.009703   
    175. D(C   9,C  10,C   7,C   8)     -2.6729         0.009703   
    176. D(C   9,C  10,C   7,C   5)   -119.3920         0.009703   
    177. D(H  29,C  11,C  10,C   9)    -68.3374         0.009069   
    178. D(H  29,C  11,C  10,C   7)     33.4050         0.009069   
    179. D(C  12,C  11,C  10,H  28)     41.0490         0.009069   
    180. D(C  12,C  11,C  10,C   9)    168.3608         0.009069   
    181. D(C  12,C  11,C  10,C   7)    -89.8968         0.009069   
    182. D(H  29,C  11,C  10,H  28)    164.3508         0.009069   
    183. D(H  31,C  12,C  11,H  29)     38.9290         0.010003   
    184. D(H  31,C  12,C  11,C  10)    163.2378         0.010003   
    185. D(C   1,C  12,C  11,H  30)    162.0696         0.010003   
    186. D(C   1,C  12,C  11,H  29)    -82.8012         0.010003   
    187. D(C   1,C  12,C  11,C  10)     41.5077         0.010003   
    188. D(H  32,C  12,C   1,C   0)   -156.4990         0.011934   
    189. D(H  31,C  12,C   1,C   2)    148.5112         0.011934   
    190. D(H  31,C  12,C   1,C   0)    -39.7906         0.011934   
    191. D(C  11,C  12,C   1,C   2)    -90.0725         0.011934   
    192. D(H  31,C  12,C  11,H  30)    -76.2002         0.010003   
    193. D(C  11,C  12,C   1,C   0)     81.6257         0.011934   
    194. D(H  34,C  13,C   9,C  14)    -58.7510         0.010225   
    195. D(H  34,C  13,C   9,C  10)    169.8578         0.010225   
    196. D(H  34,C  13,C   9,C   8)     68.1183         0.010225   
    197. D(H  33,C  13,C   9,C  14)     60.4155         0.010225   
    198. D(H  33,C  13,C   9,C  10)    -70.9757         0.010225   
    199. D(H  33,C  13,C   9,C   8)   -172.7152         0.010225   
    200. D(H  37,C  14,C   9,C  13)     57.3849         0.010440   
    201. D(H  37,C  14,C   9,C  10)   -169.1477         0.010440   
    202. D(H  37,C  14,C   9,C   8)    -69.2096         0.010440   
    203. D(H  36,C  14,C   9,C  13)    -62.5316         0.010440   
    204. D(H  36,C  14,C   9,C  10)     70.9358         0.010440   
    205. D(H  36,C  14,C   9,C   8)    170.8739         0.010440   
    -----------------------------------------------------------------

Number of atoms                         .... 39
Number of degrees of freedom            .... 205


         *************************************************************
         *                GEOMETRY OPTIMIZATION CYCLE   1            *
         *************************************************************
---------------------------------
CARTESIAN COORDINATES (ANGSTROEM)
---------------------------------
  C     -2.409906   -0.706526   -1.869607
  C     -2.023804   -1.262219   -0.519747
  C     -2.418480   -0.688854    0.636808
  C     -2.779408    0.762688    0.761223
  C     -1.526936    1.571164    1.146542
  C     -0.582093    1.781114   -0.027149
  C     -0.713213    2.905330   -0.752414
  C      0.445282    0.751806   -0.509760
  C      1.888204    1.195393   -0.255326
  C      2.176846   -0.120082    0.482904
  C      0.697396   -0.549435    0.294331
  C      0.440629   -1.850620   -0.527732
  C     -1.009514   -2.379151   -0.443325
  C      3.244742   -0.966059   -0.240488
  C      2.547356    0.102809    1.960418
  H     -3.513762   -0.740131   -1.981803
  H     -2.065242    0.339664   -1.988064
  H     -1.958577   -1.306849   -2.687211
  H     -2.154624   -1.173455    1.574155
  H     -3.527082    0.857935    1.577399
  H     -3.250682    1.170223   -0.157688
  H     -1.864602    2.557985    1.533972
  H     -0.996670    1.103879    2.001478
  H     -1.450613    3.660122   -0.495911
  H     -0.085260    3.085591   -1.620208
  H      0.302140    0.547139   -1.594475
  H      2.457507    1.319036   -1.203448
  H      1.965241    2.094543    0.397168
  H      0.183971   -0.599054    1.273967
  H      0.705885   -1.699260   -1.596481
  H      1.098181   -2.657839   -0.141801
  H     -1.183696   -3.101333   -1.269886
  H     -1.134513   -2.953461    0.501646
  H      3.338129   -1.962965    0.239374
  H      4.231134   -0.458683   -0.180269
  H      2.998690   -1.101151   -1.314882
  H      2.585410   -0.871926    2.491529
  H      3.541867    0.591816    2.036694
  H      1.800067    0.750817    2.468067

----------------------------
CARTESIAN COORDINATES (A.U.)
----------------------------
  NO LB      ZA    FRAG     MASS         X           Y           Z
   0 C     4.0000*   0    12.011   -4.554062   -1.335141   -3.533045
   1 C     4.0000*   0    12.011   -3.824435   -2.385248   -0.982179
   2 C     4.0000*   0    12.011   -4.570265   -1.301745    1.203393
   3 C     4.0000*   0    12.011   -5.252320    1.441271    1.438503
   4 C     4.0000*   0    12.011   -2.885491    2.969070    2.166650
   5 C     4.0000*   0    12.011   -1.099996    3.365818   -0.051304
   6 C     4.0000*   0    12.011   -1.347777    5.490278   -1.421856
   7 C     4.0000*   0    12.011    0.841461    1.420707   -0.963307
   8 C     4.0000*   0    12.011    3.568188    2.258965   -0.482496
   9 C     4.0000*   0    12.011    4.113643   -0.226922    0.912556
  10 C     4.0000*   0    12.011    1.317887   -1.038282    0.556205
  11 C     4.0000*   0    12.011    0.832668   -3.497165   -0.997269
  12 C     4.0000*   0    12.011   -1.907705   -4.495944   -0.837763
  13 C     4.0000*   0    12.011    6.131674   -1.825587   -0.454456
  14 C     4.0000*   0    12.011    4.813805    0.194281    3.704653
  15 H     1.0000    0     1.008   -6.640048   -1.398645   -3.745065
  16 H     1.0000    0     1.008   -3.902742    0.641872   -3.756896
  17 H     1.0000    0     1.008   -3.701174   -2.469587   -5.078093
  18 H     1.0000    0     1.008   -4.071649   -2.217509    2.974722
  19 H     1.0000    0     1.008   -6.665219    1.621262    2.980852
  20 H     1.0000    0     1.008   -6.142899    2.211401   -0.297987
  21 H     1.0000    0     1.008   -3.523587    4.833891    2.898787
  22 H     1.0000    0     1.008   -1.883433    2.086029    3.782245
  23 H     1.0000    0     1.008   -2.741261    6.916628   -0.937136
  24 H     1.0000    0     1.008   -0.161118    5.830922   -3.061749
  25 H     1.0000    0     1.008    0.570962    1.033943   -3.013121
  26 H     1.0000    0     1.008    4.644015    2.492617   -2.274187
  27 H     1.0000    0     1.008    3.713767    3.958113    0.750539
  28 H     1.0000    0     1.008    0.347655   -1.132048    2.407449
  29 H     1.0000    0     1.008    1.333929   -3.211136   -3.016912
  30 H     1.0000    0     1.008    2.075261   -5.022588   -0.267965
  31 H     1.0000    0     1.008   -2.236861   -5.860670   -2.399737
  32 H     1.0000    0     1.008   -2.143919   -5.581232    0.947974
  33 H     1.0000    0     1.008    6.308150   -3.709466    0.452351
  34 H     1.0000    0     1.008    7.995684   -0.866785   -0.340659
  35 H     1.0000    0     1.008    5.666703   -2.080874   -2.484767
  36 H     1.0000    0     1.008    4.885717   -1.647701    4.708307
  37 H     1.0000    0     1.008    6.693159    1.118370    3.848794
  38 H     1.0000    0     1.008    3.401634    1.418839    4.663971
* core charge reduced due to ECP

--------------------------------
INTERNAL COORDINATES (ANGSTROEM)
--------------------------------
 C      0   0   0     0.000000000000     0.00000000     0.00000000
 C      1   0   0     1.509964067206     0.00000000     0.00000000
 C      2   1   0     1.349865191871   122.33474788     0.00000000
 C      3   2   1     1.500907156080   123.51251949   335.02556991
 C      4   3   2     1.539737083115   109.44729213   268.84947048
 C      5   4   3     1.521301370745   112.61877396    76.18236656
 C      6   5   4     1.344270578894   118.10444287    93.06849762
 C      6   5   4     1.532281869243   124.52125892   277.86689737
 C      8   6   5     1.530859230958   112.64226281   248.47583062
 C      9   8   6     1.535829486854    90.50667257   126.31680798
 C      8   6   5     1.550274796724   120.63149495   353.05335925
 C     11   8   6     1.560384334862   113.57294415   121.49390836
 C      2   1   3     1.510682500994   119.27497312   188.69102711
 C     10   9   8     1.542522264672   111.98981082   116.40639594
 C     10   9   8     1.539482276019   112.49140868   242.61737620
 H      1   2   3     1.110051938955   109.48075614   297.65017207
 H      1   2   3     1.107853261874   111.31955678    58.35190907
 H      1   2   3     1.110208030680   110.81844464   178.29546670
 H      3   2   1     1.087693668432   118.56747129   176.42060792
 H      4   3   2     1.110959794169   107.79729933   150.93365389
 H      4   3   2     1.110216819014   112.85947000    33.09953080
 H      5   4   3     1.112625731545   107.81706431   197.16639042
 H      5   4   3     1.109257799647   111.13292637   311.12802721
 H      7   6   5     1.085939000254   121.33733564     1.78802964
 H      7   6   5     1.086225310314   120.89234885   182.09418042
 H      8   6   5     1.113096960861   110.13440718   125.70963153
 H      9   8   6     1.112802239458   111.88806855   242.66772820
 H      9   8   6     1.113621947478   113.36225663    10.45418479
 H     11   8   6     1.107137736816   114.90695062   352.69369291
 H     12  11   8     1.111528236320   110.71595999    33.40495995
 H     12  11   8     1.110369255440   109.00572584   150.81116726
 H     13   2   1     1.111345714424   109.73058404   320.20937749
 H     13   2   1     1.112846313263   110.43244023   203.50099010
 H     14  10   9     1.110319883479   110.36295115   187.28483357
 H     14  10   9     1.110867188732   109.80474855    68.11832653
 H     14  10   9     1.110456618875   111.53427849   308.75603730
 H     15  10   9     1.110691370932   109.88404236   170.87394983
 H     15  10   9     1.110854627459   110.18792614   290.79043788
 H     15  10   9     1.111783578214   111.15223331    50.84261758

---------------------------
INTERNAL COORDINATES (A.U.)
---------------------------
 C      0   0   0     0.000000000000     0.00000000     0.00000000
 C      1   0   0     2.853418559081     0.00000000     0.00000000
 C      2   1   0     2.550875530350   122.33474788     0.00000000
 C      3   2   1     2.836303477434   123.51251949   335.02556991
 C      4   3   2     2.909681405331   109.44729213   268.84947048
 C      5   4   3     2.874842957867   112.61877396    76.18236656
 C      6   5   4     2.540303243998   118.10444287    93.06849762
 C      6   5   4     2.895593092842   124.52125892   277.86689737
 C      8   6   5     2.892904696096   112.64226281   248.47583062
 C      9   8   6     2.902297118554    90.50667257   126.31680798
 C      8   6   5     2.929594798129   120.63149495   353.05335925
 C     11   8   6     2.948699056550   113.57294415   121.49390836
 C      2   1   3     2.854776202185   119.27497312   188.69102711
 C     10   9   8     2.914944635706   111.98981082   116.40639594
 C     10   9   8     2.909199889702   112.49140868   242.61737620
 H      1   2   3     2.097694159053   109.48075614   297.65017207
 H      1   2   3     2.093539261513   111.31955678    58.35190907
 H      1   2   3     2.097989129665   110.81844464   178.29546670
 H      3   2   1     2.055443150936   118.56747129   176.42060792
 H      4   3   2     2.099409756778   107.79729933   150.93365389
 H      4   3   2     2.098005737210   112.85947000    33.09953080
 H      5   4   3     2.102557922175   107.81706431   197.16639042
 H      5   4   3     2.096193453248   111.13292637   311.12802721
 H      7   6   5     2.052127308625   121.33733564     1.78802964
 H      7   6   5     2.052668356226   120.89234885   182.09418042
 H      8   6   5     2.103448416527   110.13440718   125.70963153
 H      9   8   6     2.102891473789   111.88806855   242.66772820
 H      9   8   6     2.104440497458   113.36225663    10.45418479
 H     11   8   6     2.092187115112   114.90695062   352.69369291
 H     12  11   8     2.100483956766   110.71595999    33.40495995
 H     12  11   8     2.098293800307   109.00572584   150.81116726
 H     13   2   1     2.100139040369   109.73058404   320.20937749
 H     13   2   1     2.102974761210   110.43244023   203.50099010
 H     14  10   9     2.098200500823   110.36295115   187.28483357
 H     14  10   9     2.099234757862   109.80474855    68.11832653
 H     14  10   9     2.098458893275   111.53427849   308.75603730
 H     15  10   9     2.098902510370   109.88404236   170.87394983
 H     15  10   9     2.099211020496   110.18792614   290.79043788
 H     15  10   9     2.100966483015   111.15223331    50.84261758

---------------------
BASIS SET INFORMATION
---------------------
There are 2 groups of distinct atoms

 Group   1 Type C   : 6s6p2d contracted to 2s2p1d pattern {42/42/2}
 Group   2 Type H   : 8s2p contracted to 2s1p pattern {53/2}

Atom   0C    basis set group =>   1
Atom   1C    basis set group =>   1
Atom   2C    basis set group =>   1
Atom   3C    basis set group =>   1
Atom   4C    basis set group =>   1
Atom   5C    basis set group =>   1
Atom   6C    basis set group =>   1
Atom   7C    basis set group =>   1
Atom   8C    basis set group =>   1
Atom   9C    basis set group =>   1
Atom  10C    basis set group =>   1
Atom  11C    basis set group =>   1
Atom  12C    basis set group =>   1
Atom  13C    basis set group =>   1
Atom  14C    basis set group =>   1
Atom  15H    basis set group =>   2
Atom  16H    basis set group =>   2
Atom  17H    basis set group =>   2
Atom  18H    basis set group =>   2
Atom  19H    basis set group =>   2
Atom  20H    basis set group =>   2
Atom  21H    basis set group =>   2
Atom  22H    basis set group =>   2
Atom  23H    basis set group =>   2
Atom  24H    basis set group =>   2
Atom  25H    basis set group =>   2
Atom  26H    basis set group =>   2
Atom  27H    basis set group =>   2
Atom  28H    basis set group =>   2
Atom  29H    basis set group =>   2
Atom  30H    basis set group =>   2
Atom  31H    basis set group =>   2
Atom  32H    basis set group =>   2
Atom  33H    basis set group =>   2
Atom  34H    basis set group =>   2
Atom  35H    basis set group =>   2
Atom  36H    basis set group =>   2
Atom  37H    basis set group =>   2
Atom  38H    basis set group =>   2
---------------------------------
AUXILIARY/J BASIS SET INFORMATION
---------------------------------
There are 2 groups of distinct atoms

 Group   1 Type C   : 12s5p4d2f1g contracted to 6s4p3d1f1g pattern {711111/2111/211/2/1}
 Group   2 Type H   : 5s2p1d contracted to 3s1p1d pattern {311/2/1}

Atom   0C    basis set group =>   1
Atom   1C    basis set group =>   1
Atom   2C    basis set group =>   1
Atom   3C    basis set group =>   1
Atom   4C    basis set group =>   1
Atom   5C    basis set group =>   1
Atom   6C    basis set group =>   1
Atom   7C    basis set group =>   1
Atom   8C    basis set group =>   1
Atom   9C    basis set group =>   1
Atom  10C    basis set group =>   1
Atom  11C    basis set group =>   1
Atom  12C    basis set group =>   1
Atom  13C    basis set group =>   1
Atom  14C    basis set group =>   1
Atom  15H    basis set group =>   2
Atom  16H    basis set group =>   2
Atom  17H    basis set group =>   2
Atom  18H    basis set group =>   2
Atom  19H    basis set group =>   2
Atom  20H    basis set group =>   2
Atom  21H    basis set group =>   2
Atom  22H    basis set group =>   2
Atom  23H    basis set group =>   2
Atom  24H    basis set group =>   2
Atom  25H    basis set group =>   2
Atom  26H    basis set group =>   2
Atom  27H    basis set group =>   2
Atom  28H    basis set group =>   2
Atom  29H    basis set group =>   2
Atom  30H    basis set group =>   2
Atom  31H    basis set group =>   2
Atom  32H    basis set group =>   2
Atom  33H    basis set group =>   2
Atom  34H    basis set group =>   2
Atom  35H    basis set group =>   2
Atom  36H    basis set group =>   2
Atom  37H    basis set group =>   2
Atom  38H    basis set group =>   2
-------------------------
ECP PARAMETER INFORMATION
-------------------------

 Group 1, Type C  ECP vDZP-ECP (replacing 2 core electrons, lmax=3)

Atom   0C    ECP group =>   1
Atom   1C    ECP group =>   1
Atom   2C    ECP group =>   1
Atom   3C    ECP group =>   1
Atom   4C    ECP group =>   1
Atom   5C    ECP group =>   1
Atom   6C    ECP group =>   1
Atom   7C    ECP group =>   1
Atom   8C    ECP group =>   1
Atom   9C    ECP group =>   1
Atom  10C    ECP group =>   1
Atom  11C    ECP group =>   1
Atom  12C    ECP group =>   1
Atom  13C    ECP group =>   1
Atom  14C    ECP group =>   1



           ************************************************************
           *        Program running with 40 parallel MPI-processes    *
           *              working on a common directory               *
           ************************************************************
------------------------------------------------------------------------------
                             ORCA STARTUP CALCULATIONS
                           -- RI-GTO INTEGRALS CHOSEN --
------------------------------------------------------------------------------
------------------------------------------------------------------------------
                   ___                                                        
                  /   \      - P O W E R E D   B Y -                         
                 /     \                                                     
                 |  |  |   _    _      __       _____    __    __             
                 |  |  |  | |  | |    /  \     |  _  \  |  |  /  |          
                  \  \/   | |  | |   /    \    | | | |  |  | /  /          
                 / \  \   | |__| |  /  /\  \   | |_| |  |  |/  /          
                |  |  |   |  __  | /  /__\  \  |    /   |      \           
                |  |  |   | |  | | |   __   |  |    \   |  |\   \          
                \     /   | |  | | |  |  |  |  | |\  \  |  | \   \       
                 \___/    |_|  |_| |__|  |__|  |_| \__\ |__|  \__/        
                                                                              
                      - O R C A' S   B I G   F R I E N D -                    
                                      &                                       
                       - I N T E G R A L  F E E D E R -                       
                                                                              
 v1 FN, 2020, v2 2021, v3 2022-2024                                           
------------------------------------------------------------------------------


----------------------
SHARK INTEGRAL PACKAGE
----------------------

Number of atoms                             ...     39
Number of basis functions                   ...    315
Number of shells                            ...    147
Maximum angular momentum                    ...      2
Integral batch strategy                     ... SHARK/LIBINT Hybrid
RI-J (if used) integral strategy            ... SPLIT-RIJ (Revised 2003 algorithm where possible)
Printlevel                                  ...      1
Contraction scheme used                     ... SEGMENTED contraction
Prescreening option                         ... SCHWARTZ
   Thresh                                   ... 2.500e-11
   Tcut                                     ... 2.500e-12
   Tpresel                                  ... 2.500e-12 
Coulomb Range Separation                    ... NOT USED
Exchange Range Separation                   ... Long Range
   Mu parameter                             ... 3.000e-01
   Scaling (regular/separated)              ... 1.670e-01 8.330e-01
Multipole approximations                    ... NOT USED
Finite Nucleus Model                        ... NOT USED
CABS basis                                  ... NOT available
Auxiliary Coulomb fitting basis             ... AVAILABLE
   # of basis functions in Aux-J            ...    999
   # of shells in Aux-J                     ...    345
   Maximum angular momentum in Aux-J        ...      4
Auxiliary J/K fitting basis                 ... NOT available
Auxiliary Correlation fitting basis         ... NOT available
Auxiliary 'external' fitting basis          ... NOT available

Checking pre-screening integrals            ... done (  0.0 sec) Dimension = 147
Check shell pair data                       ... done (  0.0 sec)
Shell pair information
Shell pair cut-off parameter TPreSel        ...   2.5e-12
Total number of shell pairs                 ...     10878
Shell pairs after pre-screening             ...     10861
Total number of primitive shell pairs       ...    102036
Primitive shell pairs kept                  ...     79765
          la=0 lb=0:   3078 shell pairs
          la=1 lb=0:   4206 shell pairs
          la=1 lb=1:   1477 shell pairs
          la=2 lb=0:   1170 shell pairs
          la=2 lb=1:    810 shell pairs
          la=2 lb=2:    120 shell pairs

Calculating one electron integrals          ... done (  0.0 sec)
Calculating ECP integrals                   ... done (  0.2 sec)
Calculating RI/J V-Matrix + Cholesky decomp.... done (  0.1 sec)
Calculating Nuclear repulsion               ... done (  0.0 sec) ENN=    580.209550852428 Eh

Diagonalization of the overlap matrix:
Smallest eigenvalue                        ... 1.014e-03
Time for diagonalization                   ...    0.017 sec
Threshold for overlap eigenvalues          ... 1.000e-07
Number of eigenvalues below threshold      ... 0
Time for construction of square roots      ...    0.009 sec
Total time needed                          ...    0.030 sec

-------------------
DFT GRID GENERATION
-------------------

General Integration Accuracy     IntAcc      ... 4.388
Radial Grid Type                 RadialGrid  ... OptM3 with GC (2021)
Angular Grid (max. ang.)         AngularGrid ... 4 (Lebedev-302)
Angular grid pruning method      GridPruning ... 4 (adaptive)
Weight generation scheme         WeightScheme... mBecke (2022)
Basis function cutoff            BFCut       ... 1.0000e-11
Integration weight cutoff        WCut        ... 1.0000e-14
Partially contracted basis set               ... off
Rotationally invariant grid construction     ... off
Angular grids for H and He will be reduced by one unit

Total number of grid points                  ...   164543
Total number of batches                      ...     2592
Average number of points per batch           ...       63
Average number of grid points per atom       ...     4219

--------------------
COSX GRID GENERATION
--------------------

GRIDX 1
-------
General Integration Accuracy     IntAcc      ... 3.816
Radial Grid Type                 RadialGrid  ... OptM3 with GC (2021)
Angular Grid (max. ang.)         AngularGrid ... 1 (Lebedev-50)
Angular grid pruning method      GridPruning ... 4 (adaptive)
Weight generation scheme         WeightScheme... mBecke (2022)
Basis function cutoff            BFCut       ... 1.0000e-11
Integration weight cutoff        WCut        ... 1.0000e-14
Partially contracted basis set               ... on
Rotationally invariant grid construction     ... off
Angular grids for H and He will be reduced by one unit

Total number of grid points                  ...    20991
Total number of batches                      ...      186
Average number of points per batch           ...      112
Average number of grid points per atom       ...      538
UseSFitting                                  ... on

GRIDX 2
-------
General Integration Accuracy     IntAcc      ... 4.020
Radial Grid Type                 RadialGrid  ... OptM3 with GC (2021)
Angular Grid (max. ang.)         AngularGrid ... 2 (Lebedev-110)
Angular grid pruning method      GridPruning ... 4 (adaptive)
Weight generation scheme         WeightScheme... mBecke (2022)
Basis function cutoff            BFCut       ... 1.0000e-11
Integration weight cutoff        WCut        ... 1.0000e-14
Partially contracted basis set               ... on
Rotationally invariant grid construction     ... off
Angular grids for H and He will be reduced by one unit

Total number of grid points                  ...    43349
Total number of batches                      ...      363
Average number of points per batch           ...      119
Average number of grid points per atom       ...     1112
UseSFitting                                  ... on

GRIDX 3
-------
General Integration Accuracy     IntAcc      ... 4.338
Radial Grid Type                 RadialGrid  ... OptM3 with GC (2021)
Angular Grid (max. ang.)         AngularGrid ... 3 (Lebedev-194)
Angular grid pruning method      GridPruning ... 4 (adaptive)
Weight generation scheme         WeightScheme... mBecke (2022)
Basis function cutoff            BFCut       ... 1.0000e-11
Integration weight cutoff        WCut        ... 1.0000e-14
Partially contracted basis set               ... on
Rotationally invariant grid construction     ... off
Angular grids for H and He will be reduced by one unit

Total number of grid points                  ...    93925
Total number of batches                      ...      754
Average number of points per batch           ...      124
Average number of grid points per atom       ...     2408
UseSFitting                                  ... on
Initializing property integral containers    ... done (  0.0 sec)

SHARK setup successfully completed in   5.3 seconds

Maximum memory used throughout the entire STARTUP-calculation: 52.4 MB


           ************************************************************
           *        Program running with 40 parallel MPI-processes    *
           *              working on a common directory               *
           ************************************************************
-------------------------------------------------------------------------------
                                 ORCA GUESS
                   Start orbitals & Density for SCF / CASSCF
-------------------------------------------------------------------------------

------------
SCF SETTINGS
------------
Hamiltonian:
 Density Functional     Method          .... DFT(GTOs)
 Exchange Functional    Exchange        .... WB97X-V
 Correlation Functional Correlation     .... WB97X-V
 Gradients option       PostSCFGGA      .... off
 Hybrid DFT is turned on
   Fraction HF Exchange ScalHFX         ....  0.167000
   Scaling of DF-GGA-X  ScalDFX         ....  0.000000
   Scaling of DF-GGA-C  ScalDFC         ....  1.000000
   Scaling of DF-LDA-C  ScalLDAC        ....  1.000000
   Perturbative correction              ....  0.000000
 Long-range corrected/Screened/Range-Separated Hybrid DFT is turned on
   Amount of maximum screened exact exchange              ....  0.833000
   Range separation parameter mu (erf(mu*r12)/r12)        ....  0.300000
   NL short-range parameter             ....  6.000000
   NL long-range parameter              ....  0.010000
 RI-approximation to the Coulomb term is turned on
   Number of AuxJ basis functions       .... 999
   RIJ-COSX (HFX calculated with COS-X)).... on


General Settings:
 Integral files         IntName         .... ./output/_e_caryophyllene/_e_caryophyllene
 Hartree-Fock type      HFTyp           .... RHF
 Total Charge           Charge          ....    0
 Multiplicity           Mult            ....    1
 Number of Electrons    NEL             ....   84
 Basis Dimension        Dim             ....  315
 Nuclear Repulsion      ENuc            ....    580.2095508524 Eh

Convergence Acceleration:
 AO-DIIS                CNVDIIS         .... on
   Start iteration      DIISMaxIt       ....    12
   Startup error        DIISStart       ....  0.200000
   # of expansion vecs  DIISMaxEq       ....     5
   Bias factor          DIISBfac        ....   1.050
   Max. coefficient     DIISMaxC        ....  10.000
 MO-DIIS                CNVKDIIS        .... off
 Trust-Rad. Augm. Hess. CNVTRAH         .... auto
   Auto Start mean grad. ratio tolernc. ....  1.125000
   Auto Start start iteration           ....    50
   Auto Start num. interpolation iter.  ....    10
   Max. Number of Micro iterations      ....    24
   Max. Number of Macro iterations      .... Maxiter - #DIIS iter
   Number of Davidson start vectors     ....     2
   Converg. threshold    (grad. norm)   ....   1.000e-05
   Grad. Scal. Fac. for Micro threshold ....   0.100
   Minimum threshold for Micro iter.    ....   1.000e-02
   NR start threshold (gradient norm)   ....   1.000e-04
   Initial trust radius                 ....   0.400
   Minimum AH scaling param. (alpha)    ....   1.000
   Maximum AH scaling param. (alpha)    .... 1000.000
   Quad. conv. algorithm                .... NR
   White noise on init. David. guess    .... on
   Maximum white noise                  ....   0.010
   Pseudo random numbers                .... off
   Inactive MOs                         .... canonical
   Orbital update algorithm             .... Taylor
   Preconditioner                       .... Diag
   Full preconditioner red. dimension   ....   250
 SOSCF                  CNVSOSCF        .... on
   Start iteration      SOSCFMaxIt      ....   150
   Startup grad/error   SOSCFStart      ....  0.003300
   Hessian update       SOSCFHessUp     .... L-BFGS
 Level Shifting         CNVShift        .... on
   Level shift para.    LevelShift      ....    0.2500
   Turn off err/grad.   ShiftErr        ....    0.0010
 Zerner damping         CNVZerner       .... off
 Static damping         CNVDamp         .... on
   Fraction old density DampFac         ....    0.7000
   Max. Damping (<1)    DampMax         ....    0.9800
   Min. Damping (>=0)   DampMin         ....    0.0000
   Turn off err/grad.   DampErr         ....    0.1000

SCF Procedure:
 Maximum # iterations   MaxIter         ....   125
 SCF integral mode      SCFMode         .... Direct
   Integral package                     .... SHARK and LIBINT hybrid scheme
 Reset frequency        DirectResetFreq ....    20
 Integral Threshold     Thresh          ....  2.500e-11 Eh
 Primitive CutOff       TCut            ....  2.500e-12 Eh

Convergence Tolerance:
 Convergence Check Mode ConvCheckMode   .... Total+1el-Energy
 Convergence forced     ConvForced      .... 0
 Energy Change          TolE            ....  1.000e-08 Eh
 1-El. energy change                    ....  1.000e-05 Eh
 Orbital Gradient       TolG            ....  1.000e-05
 Orbital Rotation angle TolX            ....  1.000e-05
 DIIS Error             TolErr          ....  5.000e-07

------------------------------
INITIAL GUESS: MODEL POTENTIAL
------------------------------
Loading Hartree-Fock densities                     ... done
Atomic calculation to generate a density for atom 0 (C  with ECP)
  Multiplicity assumed   :    1
  Atomic configuration   : 1s2 2s2 2p2 
  Number of open shells  : 1
  Command: /home/aspe232/Project/Software/ORCA/6_0_1/build/orca ./output/_e_caryophyllene/_e_caryophyllene_atom6.inp "" > ./output/_e_caryophyllene/_e_caryophyllene_atom6.out
Returned from the atomic calculation with res=0
Calculating cut-offs                               ... done
Initializing the effective Hamiltonian             ... done
Setting up the integral package (SHARK)            ... done
Starting the Coulomb interaction                   ... done (   0.1 sec)
Making the grid                                    ... done (   0.9 sec)
Mapping shells                                     ... done
Starting the XC term evaluation                    ... done (   0.1 sec)
  promolecular density results
     # of electrons  =    113.975622368
     EX              =    -55.376477023
     EC              =     -4.562981615
     EX+EC           =    -59.939458638
Transforming the Hamiltonian                       ... done (   0.0 sec)
Diagonalizing the Hamiltonian                      ... done (   0.0 sec)
Back transforming the eigenvectors                 ... done (   0.0 sec)
Now organizing SCF variables                       ... done
                      ------------------
                      INITIAL GUESS DONE (   1.8 sec)
                      ------------------
             **** ENERGY FILE WAS UPDATED (./output/_e_caryophyllene/_e_caryophyllene.en.tmp) ****
Finished Guess after   2.8 sec
Maximum memory used throughout the entire GUESS-calculation: 35.1 MB


           ************************************************************
           *        Program running with 40 parallel MPI-processes    *
           *              working on a common directory               *
           ************************************************************

-------------------------------------------------------------------------------------------
                                      ORCA LEAN-SCF
                              memory conserving SCF solver
-------------------------------------------------------------------------------------------

----------------------------------------D-I-I-S--------------------------------------------
Iteration    Energy (Eh)           Delta-E    RMSDP     MaxDP     DIISErr   Damp  Time(sec)
-------------------------------------------------------------------------------------------
               ***  Starting incremental Fock matrix formation  ***
    1    -99.1445389853149663     0.00e+00  3.46e-03  7.26e-02  1.82e-01  0.700   8.7
    2    -99.4182456864194819    -2.74e-01  2.53e-03  5.31e-02  1.10e-01  0.700   6.4
                               ***Turning on AO-DIIS***
    3    -99.5599353700766869    -1.42e-01  1.33e-03  2.78e-02  5.81e-02  0.700   6.2
    4    -99.6434106873687142    -8.35e-02  2.89e-03  5.95e-02  3.65e-02  0.000   5.8
    5    -99.8187941227587316    -1.75e-01  2.26e-04  6.76e-03  6.11e-03  0.000   6.3
                              *** Initializing SOSCF ***
---------------------------------------S-O-S-C-F--------------------------------------
Iteration    Energy (Eh)           Delta-E    RMSDP     MaxDP     MaxGrad    Time(sec)
--------------------------------------------------------------------------------------
    6    -99.8193153863931002    -5.21e-04  1.09e-04  1.67e-03  1.50e-03     5.8
               *** Restarting incremental Fock matrix formation ***
    7    -99.8193474518182029    -3.21e-05  6.16e-05  1.26e-03  2.65e-04     8.6
    8    -99.8193625494795924    -1.51e-05  4.01e-05  8.03e-04  2.84e-04     7.6
    9    -99.8193661520388105    -3.60e-06  1.36e-05  2.16e-04  7.61e-05     7.5
   10    -99.8193667188558038    -5.67e-07  2.61e-06  5.47e-05  1.94e-05     7.2
   11    -99.8193667291388920    -1.03e-08  8.27e-07  2.51e-05  1.26e-05     6.5
   12    -99.8193667436007672    -1.45e-08  2.95e-07  7.22e-06  3.54e-06     5.9
   13    -99.8193667434231884     1.78e-10  1.07e-07  4.62e-06  1.10e-06     5.8
                 **** Energy Check signals convergence ****

               *****************************************************
               *                     SUCCESS                       *
               *           SCF CONVERGED AFTER  13 CYCLES          *
               *****************************************************

Recomputing exchange energy using gridx3       ... done (    9.905 sec)
Old exchange energy                            :    -15.883944205 Eh
New exchange energy                            :    -15.883982139 Eh
Exchange energy change after final integration :     -0.000037934 Eh
Total energy after final integration           :    -99.819404677 Eh
             **** ENERGY FILE WAS UPDATED (./output/_e_caryophyllene/_e_caryophyllene.en.tmp) ****

----------------
TOTAL SCF ENERGY
----------------

Total Energy       :        -99.81940467723948 Eh           -2716.22409 eV

Components:
Nuclear Repulsion  :        580.20955085242792 Eh           15788.30454 eV
Electronic Energy  :       -680.02891759585111 Eh          -18504.52760 eV
One Electron Energy:      -1299.23397822207608 Eh          -35353.95391 eV
Two Electron Energy:        619.20506062622496 Eh           16849.42631 eV

Virial components:
Potential Energy   :       -177.73933162404262 Eh           -4836.53310 eV
Kinetic Energy     :         77.91992694680313 Eh            2120.30901 eV
Virial Ratio       :          2.28105105572529

DFT components:
N(Alpha)           :       42.000080982149 electrons
N(Beta)            :       42.000080982149 electrons
N(Total)           :       84.000161964298 electrons
E(X)               :      -16.079424943502 Eh       
E(C)               :       -3.137811820432 Eh       
E(XC)              :      -19.217236763934 Eh       

---------------
SCF CONVERGENCE
---------------

  Last Energy change         ...   -1.7758e-10  Tolerance :   1.0000e-08
  Last MAX-Density change    ...    4.6150e-06  Tolerance :   1.0000e-07
  Last RMS-Density change    ...    1.0716e-07  Tolerance :   5.0000e-09
  Last DIIS Error            ...    1.4989e-03  Tolerance :   5.0000e-07
  Last Orbital Gradient      ...    1.0977e-06  Tolerance :   1.0000e-05
  Last Orbital Rotation      ...    4.3003e-06  Tolerance :   1.0000e-05


----------------
ORBITAL ENERGIES
----------------

  NO   OCC          E(Eh)            E(eV) 
   0   2.0000      -1.008765       -27.4499 
   1   2.0000      -0.962416       -26.1887 
   2   2.0000      -0.939458       -25.5640 
   3   2.0000      -0.896397       -24.3922 
   4   2.0000      -0.867146       -23.5962 
   5   2.0000      -0.856436       -23.3048 
   6   2.0000      -0.815853       -22.2005 
   7   2.0000      -0.809582       -22.0298 
   8   2.0000      -0.788474       -21.4555 
   9   2.0000      -0.756409       -20.5829 
  10   2.0000      -0.735926       -20.0256 
  11   2.0000      -0.703612       -19.1463 
  12   2.0000      -0.648359       -17.6428 
  13   2.0000      -0.638922       -17.3860 
  14   2.0000      -0.626809       -17.0564 
  15   2.0000      -0.587362       -15.9829 
  16   2.0000      -0.583772       -15.8852 
  17   2.0000      -0.578629       -15.7453 
  18   2.0000      -0.572910       -15.5897 
  19   2.0000      -0.552821       -15.0430 
  20   2.0000      -0.538085       -14.6420 
  21   2.0000      -0.533700       -14.5227 
  22   2.0000      -0.521315       -14.1857 
  23   2.0000      -0.512057       -13.9338 
  24   2.0000      -0.507368       -13.8062 
  25   2.0000      -0.502921       -13.6852 
  26   2.0000      -0.500758       -13.6263 
  27   2.0000      -0.493387       -13.4258 
  28   2.0000      -0.480779       -13.0827 
  29   2.0000      -0.473594       -12.8872 
  30   2.0000      -0.470641       -12.8068 
  31   2.0000      -0.462321       -12.5804 
  32   2.0000      -0.451468       -12.2851 
  33   2.0000      -0.446844       -12.1593 
  34   2.0000      -0.429835       -11.6964 
  35   2.0000      -0.427748       -11.6396 
  36   2.0000      -0.410643       -11.1742 
  37   2.0000      -0.400452       -10.8968 
  38   2.0000      -0.386328       -10.5125 
  39   2.0000      -0.382388       -10.4053 
  40   2.0000      -0.338899        -9.2219 
  41   2.0000      -0.313874        -8.5409 
  42   0.0000       0.070628         1.9219 
  43   0.0000       0.078845         2.1455 
  44   0.0000       0.087459         2.3799 
  45   0.0000       0.093916         2.5556 
  46   0.0000       0.106317         2.8930 
  47   0.0000       0.110312         3.0017 
  48   0.0000       0.114546         3.1170 
  49   0.0000       0.121490         3.3059 
  50   0.0000       0.124568         3.3897 
  51   0.0000       0.126835         3.4513 
  52   0.0000       0.136640         3.7182 
*Only the first 10 virtual orbitals were printed.

                    ********************************
                    * MULLIKEN POPULATION ANALYSIS *
                    ********************************

-----------------------
MULLIKEN ATOMIC CHARGES
-----------------------
   0 C :   -0.083407
   1 C :   -0.068957
   2 C :   -0.038925
   3 C :   -0.056438
   4 C :   -0.059464
   5 C :   -0.061312
   6 C :   -0.020497
   7 C :   -0.067875
   8 C :    0.003130
   9 C :   -0.164380
  10 C :   -0.031215
  11 C :   -0.048421
  12 C :   -0.053695
  13 C :   -0.044130
  14 C :   -0.044829
  15 H :    0.063698
  16 H :    0.051291
  17 H :    0.032110
  18 H :    0.019119
  19 H :    0.041385
  20 H :    0.039956
  21 H :    0.041172
  22 H :    0.030091
  23 H :    0.021762
  24 H :    0.023450
  25 H :    0.032562
  26 H :    0.036690
  27 H :    0.040632
  28 H :    0.015948
  29 H :    0.031506
  30 H :    0.042445
  31 H :    0.036261
  32 H :    0.039251
  33 H :    0.030554
  34 H :    0.036462
  35 H :    0.031290
  36 H :    0.036292
  37 H :    0.037308
  38 H :    0.029180
Sum of atomic charges:   -0.0000000

--------------------------------
MULLIKEN REDUCED ORBITAL CHARGES
--------------------------------
  0 C s       :     0.947143  s :     0.947143
      pz      :     0.979643  p :     3.063637
      px      :     1.052389
      py      :     1.031605
      dz2     :     0.018683  d :     0.072627
      dxz     :     0.013879
      dyz     :     0.017049
      dx2y2   :     0.016637
      dxy     :     0.006378

  1 C s       :     1.091217  s :     1.091217
      pz      :     0.966503  p :     2.858796
      px      :     0.931164
      py      :     0.961130
      dz2     :     0.031004  d :     0.118944
      dxz     :     0.027675
      dyz     :     0.029937
      dx2y2   :     0.016812
      dxy     :     0.013516

  2 C s       :     1.044000  s :     1.044000
      pz      :     0.976175  p :     2.900926
      px      :     1.001536
      py      :     0.923214
      dz2     :     0.021879  d :     0.093999
      dxz     :     0.015914
      dyz     :     0.028669
      dx2y2   :     0.014532
      dxy     :     0.013006

  3 C s       :     0.995263  s :     0.995263
      pz      :     1.054768  p :     2.958661
      px      :     0.971073
      py      :     0.932820
      dz2     :     0.013321  d :     0.102515
      dxz     :     0.026137
      dyz     :     0.015826
      dx2y2   :     0.023767
      dxy     :     0.023463

  4 C s       :     0.997525  s :     0.997525
      pz      :     0.987380  p :     2.961582
      px      :     0.940261
      py      :     1.033941
      dz2     :     0.017646  d :     0.100356
      dxz     :     0.026724
      dyz     :     0.017552
      dx2y2   :     0.019443
      dxy     :     0.018991

  5 C s       :     1.078764  s :     1.078764
      pz      :     0.961312  p :     2.864895
      px      :     0.927399
      py      :     0.976184
      dz2     :     0.024751  d :     0.117652
      dxz     :     0.019728
      dyz     :     0.024229
      dx2y2   :     0.023336
      dxy     :     0.025608

  6 C s       :     0.983417  s :     0.983417
      pz      :     0.990583  p :     2.972551
      px      :     0.994426
      py      :     0.987542
      dz2     :     0.014879  d :     0.064529
      dxz     :     0.011984
      dyz     :     0.010542
      dx2y2   :     0.008369
      dxy     :     0.018755

  7 C s       :     1.038980  s :     1.038980
      pz      :     1.025394  p :     2.909875
      px      :     0.945367
      py      :     0.939114
      dz2     :     0.025849  d :     0.119020
      dxz     :     0.016872
      dyz     :     0.019675
      dx2y2   :     0.027719
      dxy     :     0.028904

  8 C s       :     1.002951  s :     1.002951
      pz      :     1.005058  p :     2.900148
      px      :     0.926963
      py      :     0.968126
      dz2     :     0.013586  d :     0.093771
      dxz     :     0.019337
      dyz     :     0.019987
      dx2y2   :     0.023461
      dxy     :     0.017400

  9 C s       :     1.097306  s :     1.097306
      pz      :     0.981482  p :     2.922082
      px      :     0.957687
      py      :     0.982913
      dz2     :     0.030511  d :     0.144992
      dxz     :     0.027177
      dyz     :     0.027890
      dx2y2   :     0.030812
      dxy     :     0.028601

 10 C s       :     1.051844  s :     1.051844
      pz      :     1.005836  p :     2.864681
      px      :     0.959780
      py      :     0.899064
      dz2     :     0.021302  d :     0.114690
      dxz     :     0.020267
      dyz     :     0.021353
      dx2y2   :     0.028993
      dxy     :     0.022776

 11 C s       :     1.005629  s :     1.005629
      pz      :     1.011116  p :     2.945502
      px      :     0.961341
      py      :     0.973044
      dz2     :     0.023927  d :     0.097290
      dxz     :     0.014534
      dyz     :     0.015392
      dx2y2   :     0.018025
      dxy     :     0.025412

 12 C s       :     0.991338  s :     0.991338
      pz      :     1.058861  p :     2.960861
      px      :     0.915938
      py      :     0.986061
      dz2     :     0.015127  d :     0.101497
      dxz     :     0.012668
      dyz     :     0.026499
      dx2y2   :     0.024581
      dxy     :     0.022622

 13 C s       :     0.950959  s :     0.950959
      pz      :     1.007596  p :     3.018817
      px      :     1.001070
      py      :     1.010150
      dz2     :     0.022032  d :     0.074354
      dxz     :     0.007750
      dyz     :     0.011608
      dx2y2   :     0.018289
      dxy     :     0.014676

 14 C s       :     0.954233  s :     0.954233
      pz      :     0.955485  p :     3.016199
      px      :     1.028485
      py      :     1.032230
      dz2     :     0.015870  d :     0.074396
      dxz     :     0.013090
      dyz     :     0.020674
      dx2y2   :     0.010899
      dxy     :     0.013863

 15 H s       :     0.892280  s :     0.892280
      pz      :     0.009945  p :     0.044022
      px      :     0.023567
      py      :     0.010510

 16 H s       :     0.901970  s :     0.901970
      pz      :     0.010808  p :     0.046739
      px      :     0.011925
      py      :     0.024006

 17 H s       :     0.923924  s :     0.923924
      pz      :     0.017704  p :     0.043966
      px      :     0.012047
      py      :     0.014215

 18 H s       :     0.932594  s :     0.932594
      pz      :     0.020319  p :     0.048287
      px      :     0.014643
      py      :     0.013325

 19 H s       :     0.915562  s :     0.915562
      pz      :     0.016466  p :     0.043053
      px      :     0.015734
      py      :     0.010852

 20 H s       :     0.916301  s :     0.916301
      pz      :     0.020382  p :     0.043742
      px      :     0.011511
      py      :     0.011850

 21 H s       :     0.916213  s :     0.916213
      pz      :     0.010860  p :     0.042615
      px      :     0.011165
      py      :     0.020590

 22 H s       :     0.925943  s :     0.925943
      pz      :     0.017744  p :     0.043966
      px      :     0.013094
      py      :     0.013128

 23 H s       :     0.927753  s :     0.927753
      pz      :     0.012400  p :     0.050486
      px      :     0.019566
      py      :     0.018520

 24 H s       :     0.926936  s :     0.926936
      pz      :     0.021188  p :     0.049614
      px      :     0.017371
      py      :     0.011055

 25 H s       :     0.925684  s :     0.925684
      pz      :     0.022758  p :     0.041754
      px      :     0.009818
      py      :     0.009178

 26 H s       :     0.919650  s :     0.919650
      pz      :     0.019858  p :     0.043660
      px      :     0.014166
      py      :     0.009637

 27 H s       :     0.916092  s :     0.916092
      pz      :     0.014242  p :     0.043275
      px      :     0.009575
      py      :     0.019458

 28 H s       :     0.940051  s :     0.940051
      pz      :     0.020000  p :     0.044000
      px      :     0.014153
      py      :     0.009847

 29 H s       :     0.926644  s :     0.926644
      pz      :     0.022055  p :     0.041850
      px      :     0.010272
      py      :     0.009523

 30 H s       :     0.914924  s :     0.914924
      pz      :     0.010969  p :     0.042631
      px      :     0.014915
      py      :     0.016747

 31 H s       :     0.920917  s :     0.920917
      pz      :     0.016896  p :     0.042823
      px      :     0.010650
      py      :     0.015276

 32 H s       :     0.918359  s :     0.918359
      pz      :     0.019500  p :     0.042390
      px      :     0.010172
      py      :     0.012718

 33 H s       :     0.925970  s :     0.925970
      pz      :     0.012173  p :     0.043476
      px      :     0.010216
      py      :     0.021087

 34 H s       :     0.920512  s :     0.920512
      pz      :     0.009991  p :     0.043027
      px      :     0.020815
      py      :     0.012220

 35 H s       :     0.924881  s :     0.924881
      pz      :     0.022897  p :     0.043829
      px      :     0.010767
      py      :     0.010165

 36 H s       :     0.920799  s :     0.920799
      pz      :     0.013172  p :     0.042910
      px      :     0.009833
      py      :     0.019904

 37 H s       :     0.919718  s :     0.919718
      pz      :     0.009571  p :     0.042973
      px      :     0.020888
      py      :     0.012514

 38 H s       :     0.927392  s :     0.927392
      pz      :     0.012893  p :     0.043428
      px      :     0.015747
      py      :     0.014788



                     *******************************
                     * LOEWDIN POPULATION ANALYSIS *
                     *******************************

----------------------
LOEWDIN ATOMIC CHARGES
----------------------
   0 C :   -0.115545
   1 C :   -0.040894
   2 C :   -0.059285
   3 C :   -0.090242
   4 C :   -0.079914
   5 C :   -0.026936
   6 C :   -0.081999
   7 C :   -0.049132
   8 C :   -0.052656
   9 C :   -0.069052
  10 C :   -0.030865
  11 C :   -0.075435
  12 C :   -0.090095
  13 C :   -0.114873
  14 C :   -0.115204
  15 H :    0.057248
  16 H :    0.047933
  17 H :    0.049220
  18 H :    0.032297
  19 H :    0.049011
  20 H :    0.052767
[...]
 81:   1509.24   0.001156    5.84  0.000239  ( 0.000854 -0.013997 -0.006516)
 82:   1511.20   0.000203    1.03  0.000042  (-0.006122 -0.001411  0.001578)
 83:   1512.81   0.000077    0.39  0.000016  ( 0.003572 -0.001714  0.000346)
 84:   1519.43   0.003007   15.20  0.000618  (-0.020152 -0.008564  0.011757)
 85:   1523.91   0.001880    9.50  0.000385  (-0.012274 -0.005288 -0.014364)
 86:   1524.73   0.000446    2.25  0.000091  ( 0.001584  0.000290 -0.009418)
 87:   1530.20   0.004231   21.38  0.000863  (-0.010433  0.026411  0.007519)
 88:   1533.07   0.001609    8.13  0.000328  ( 0.016477 -0.005658 -0.004904)
 89:   1536.82   0.000654    3.31  0.000133  ( 0.006058 -0.007337  0.006502)
 90:   1537.21   0.002281   11.53  0.000463  ( 0.014597  0.015488  0.003186)
 91:   1756.91   0.004680   23.65  0.000831  ( 0.006463 -0.019581  0.020149)
 92:   1803.16   0.001003    5.07  0.000174  (-0.007753 -0.001718  0.010509)
 93:   3084.63   0.006719   33.96  0.000680  ( 0.009617 -0.007947  0.022894)
 94:   3088.90   0.001396    7.06  0.000141  ( 0.010069  0.000251 -0.006296)
 95:   3095.00   0.007759   39.21  0.000782  ( 0.025862 -0.006281 -0.008602)
 96:   3098.15   0.004075   20.59  0.000410  (-0.005425  0.007324 -0.018093)
 97:   3100.92   0.004024   20.33  0.000405  (-0.008833 -0.007529 -0.016437)
 98:   3102.75   0.016077   81.25  0.001617  (-0.002601  0.036314  0.017074)
 99:   3111.60   0.004307   21.76  0.000432  ( 0.006670  0.017109  0.009732)
100:   3113.36   0.006046   30.56  0.000606  (-0.023574 -0.005148  0.004880)
101:   3114.97   0.006660   33.66  0.000667  (-0.015859  0.013510  0.015271)
102:   3124.80   0.004835   24.43  0.000483  (-0.008275  0.011094  0.017068)
103:   3139.77   0.002511   12.69  0.000250  (-0.002690  0.011612 -0.010368)
104:   3156.48   0.004332   21.89  0.000428  ( 0.011215 -0.017153 -0.002867)
105:   3160.74   0.004883   24.68  0.000482  (-0.004518 -0.001784 -0.021412)
106:   3170.68   0.002233   11.29  0.000220  ( 0.012032  0.008202 -0.002784)
107:   3171.26   0.002864   14.48  0.000282  (-0.008647 -0.014384 -0.000419)
108:   3177.14   0.000155    0.78  0.000015  ( 0.003001  0.000107  0.002492)
109:   3177.67   0.000958    4.84  0.000094  (-0.000214 -0.001519  0.009580)
110:   3178.73   0.005332   26.95  0.000523  ( 0.009508  0.020091  0.005425)
111:   3181.70   0.008025   40.56  0.000787  ( 0.024885 -0.001342 -0.012886)
112:   3191.65   0.003419   17.28  0.000334  (-0.009010  0.009965 -0.012401)
113:   3193.24   0.008343   42.16  0.000815  (-0.004446  0.011300 -0.025843)
114:   3197.11   0.002122   10.72  0.000207  ( 0.003519 -0.009744  0.009990)
115:   3230.03   0.002287   11.56  0.000221  ( 0.010213 -0.010756  0.001003)
116:   3289.35   0.001562    7.90  0.000148  ( 0.009569 -0.004884 -0.005728)

* The epsilon (eps) is given for a Dirac delta lineshape.
** The dipole moment derivative (T) already includes vibrational overlap.

The first frequency considered to be a vibration is 6
The total number of vibrations considered is 111


--------------------------
THERMOCHEMISTRY AT 298.15K
--------------------------

Temperature         ...   298.15 K
Pressure            ...     1.00 atm
Total Mass          ...   204.36 AMU
Quasi RRHO          ...     True
Cut-Off Frequency   ...     1.00 cm^-1

Throughout the following assumptions are being made:
  (1) The electronic state is orbitally nondegenerate
  (2) There are no thermally accessible electronically excited states
  (3) Hindered rotations indicated by low frequency modes are not
      treated as such but are treated as vibrations and this may
      cause some error
  (4) All equations used are the standard statistical mechanics
      equations for an ideal gas
  (5) All vibrations are strictly harmonic

freq.      71.10  E(vib)   ...       0.50 
freq.      86.74  E(vib)   ...       0.48 
freq.     108.79  E(vib)   ...       0.45 
freq.     140.11  E(vib)   ...       0.41 
freq.     166.42  E(vib)   ...       0.39 
freq.     176.70  E(vib)   ...       0.38 
freq.     198.12  E(vib)   ...       0.35 
freq.     214.60  E(vib)   ...       0.34 
freq.     228.76  E(vib)   ...       0.32 
freq.     248.47  E(vib)   ...       0.31 
freq.     256.11  E(vib)   ...       0.30 
freq.     284.07  E(vib)   ...       0.28 
freq.     320.16  E(vib)   ...       0.25 
freq.     328.27  E(vib)   ...       0.24 
freq.     341.17  E(vib)   ...       0.23 
freq.     374.49  E(vib)   ...       0.21 
freq.     403.67  E(vib)   ...       0.19 
freq.     413.77  E(vib)   ...       0.19 
freq.     469.50  E(vib)   ...       0.16 
freq.     484.91  E(vib)   ...       0.15 
freq.     490.11  E(vib)   ...       0.15 
freq.     526.52  E(vib)   ...       0.13 
freq.     551.46  E(vib)   ...       0.12 
freq.     574.96  E(vib)   ...       0.11 
freq.     600.66  E(vib)   ...       0.10 
freq.     676.37  E(vib)   ...       0.08 
freq.     740.04  E(vib)   ...       0.06 
freq.     746.72  E(vib)   ...       0.06 
freq.     805.39  E(vib)   ...       0.05 
freq.     832.85  E(vib)   ...       0.04 
freq.     863.66  E(vib)   ...       0.04 
freq.     884.55  E(vib)   ...       0.04 
freq.     909.29  E(vib)   ...       0.03 
freq.     937.26  E(vib)   ...       0.03 
freq.     940.71  E(vib)   ...       0.03 
freq.     950.04  E(vib)   ...       0.03 
freq.     962.99  E(vib)   ...       0.03 
freq.     977.48  E(vib)   ...       0.03 
freq.     978.96  E(vib)   ...       0.03 
freq.     997.68  E(vib)   ...       0.02 
freq.    1013.28  E(vib)   ...       0.02 
freq.    1028.02  E(vib)   ...       0.02 
freq.    1037.80  E(vib)   ...       0.02 
freq.    1043.34  E(vib)   ...       0.02 
freq.    1058.48  E(vib)   ...       0.02 
freq.    1074.45  E(vib)   ...       0.02 
freq.    1079.63  E(vib)   ...       0.02 
freq.    1088.45  E(vib)   ...       0.02 
freq.    1118.67  E(vib)   ...       0.01 
freq.    1155.34  E(vib)   ...       0.01 
freq.    1167.19  E(vib)   ...       0.01 
freq.    1185.31  E(vib)   ...       0.01 
freq.    1204.42  E(vib)   ...       0.01 
freq.    1224.18  E(vib)   ...       0.01 
freq.    1250.32  E(vib)   ...       0.01 
freq.    1255.83  E(vib)   ...       0.01 
freq.    1257.08  E(vib)   ...       0.01 
freq.    1280.90  E(vib)   ...       0.01 
freq.    1292.07  E(vib)   ...       0.01 
freq.    1298.48  E(vib)   ...       0.01 
freq.    1328.80  E(vib)   ...       0.01 
freq.    1337.54  E(vib)   ...       0.01 
freq.    1352.91  E(vib)   ...       0.01 
freq.    1364.63  E(vib)   ...       0.01 
freq.    1370.88  E(vib)   ...       0.01 
freq.    1394.22  E(vib)   ...       0.00 
freq.    1402.94  E(vib)   ...       0.00 
freq.    1408.48  E(vib)   ...       0.00 
freq.    1423.99  E(vib)   ...       0.00 
freq.    1437.28  E(vib)   ...       0.00 
freq.    1450.79  E(vib)   ...       0.00 
freq.    1452.24  E(vib)   ...       0.00 
freq.    1466.04  E(vib)   ...       0.00 
freq.    1488.39  E(vib)   ...       0.00 
freq.    1502.85  E(vib)   ...       0.00 
freq.    1509.24  E(vib)   ...       0.00 
freq.    1511.20  E(vib)   ...       0.00 
freq.    1512.81  E(vib)   ...       0.00 
freq.    1519.43  E(vib)   ...       0.00 
freq.    1523.91  E(vib)   ...       0.00 
freq.    1524.73  E(vib)   ...       0.00 
freq.    1530.20  E(vib)   ...       0.00 
freq.    1533.07  E(vib)   ...       0.00 
freq.    1536.82  E(vib)   ...       0.00 
freq.    1537.21  E(vib)   ...       0.00 
freq.    1756.91  E(vib)   ...       0.00 
freq.    1803.16  E(vib)   ...       0.00 
freq.    3084.63  E(vib)   ...       0.00 
freq.    3088.90  E(vib)   ...       0.00 
freq.    3095.00  E(vib)   ...       0.00 
freq.    3098.15  E(vib)   ...       0.00 
freq.    3100.92  E(vib)   ...       0.00 
freq.    3102.75  E(vib)   ...       0.00 
freq.    3111.60  E(vib)   ...       0.00 
freq.    3113.36  E(vib)   ...       0.00 
freq.    3114.97  E(vib)   ...       0.00 
freq.    3124.80  E(vib)   ...       0.00 
freq.    3139.77  E(vib)   ...       0.00 
freq.    3156.48  E(vib)   ...       0.00 
freq.    3160.74  E(vib)   ...       0.00 
freq.    3170.68  E(vib)   ...       0.00 
freq.    3171.26  E(vib)   ...       0.00 
freq.    3177.14  E(vib)   ...       0.00 
freq.    3177.67  E(vib)   ...       0.00 
freq.    3178.73  E(vib)   ...       0.00 
freq.    3181.70  E(vib)   ...       0.00 
freq.    3191.65  E(vib)   ...       0.00 
freq.    3193.24  E(vib)   ...       0.00 
freq.    3197.11  E(vib)   ...       0.00 
freq.    3230.03  E(vib)   ...       0.00 
freq.    3289.35  E(vib)   ...       0.00 

------------
INNER ENERGY
------------

The inner energy is: U= E(el) + E(ZPE) + E(vib) + E(rot) + E(trans)
    E(el)   - is the total energy from the electronic structure calculation
              = E(kin-el) + E(nuc-el) + E(el-el) + E(nuc-nuc)
    E(ZPE)  - the the zero temperature vibrational energy from the frequency calculation
    E(vib)  - the the finite temperature correction to E(ZPE) due to population
              of excited vibrational states
    E(rot)  - is the rotational thermal energy
    E(trans)- is the translational thermal energy

Summary of contributions to the inner energy U:
Electronic energy                ...    -99.89737705 Eh
Zero point energy                ...      0.36452544 Eh     228.74 kcal/mol
Thermal vibrational correction   ...      0.01221733 Eh       7.67 kcal/mol
Thermal rotational correction    ...      0.00141627 Eh       0.89 kcal/mol
Thermal translational correction ...      0.00141627 Eh       0.89 kcal/mol
-----------------------------------------------------------------------
Total thermal energy                    -99.51780173 Eh


Summary of corrections to the electronic energy:
(perhaps to be used in another calculation)
Total thermal correction                  0.01504987 Eh       9.44 kcal/mol
Non-thermal (ZPE) correction              0.36452544 Eh     228.74 kcal/mol
-----------------------------------------------------------------------
Total correction                          0.37957532 Eh     238.19 kcal/mol


--------
ENTHALPY
--------

The enthalpy is H = U + kB*T
                kB is Boltzmann's constant
Total thermal energy              ...    -99.51780173 Eh 
Thermal Enthalpy correction       ...      0.00094421 Eh       0.59 kcal/mol
-----------------------------------------------------------------------
Total Enthalpy                    ...    -99.51685753 Eh


Note: Only C1 symmetry has been detected, increase convergence thresholds 
      if your molecule has a higher symmetry. Symmetry factor of 1.0 is   
      used for the rotational entropy correction. 
 

Note: Rotational entropy computed according to Herzberg 
Infrared and Raman Spectra, Chapter V,1, Van Nostrand Reinhold, 1945 
Point Group:  C1, Symmetry Number:   1  
Rotational constants in cm-1:     0.028679     0.016984     0.014000 

Vibrational entropy computed according to the QRRHO of S. Grimme
Chem.Eur.J. 2012 18 9955 using a reference frequency of 100.0 cm-1


-------
ENTROPY
-------

The entropy contributions are T*S = T*(S(el)+S(vib)+S(rot)+S(trans))
     S(el)   - electronic entropy
     S(vib)  - vibrational entropy
     S(rot)  - rotational entropy
     S(trans)- translational entropy
The entropies will be listed as multiplied by the temperature to get
units of energy

Electronic entropy                ...      0.00000000 Eh      0.00 kcal/mol
Vibrational entropy               ...      0.02048217 Eh     12.85 kcal/mol
Rotational entropy                ...      0.01512668 Eh      9.49 kcal/mol
Translational entropy             ...      0.01988345 Eh     12.48 kcal/mol
-----------------------------------------------------------------------
Final entropy term                ...      0.05549230 Eh     34.82 kcal/mol

In case the symmetry of your molecule has not been determined correctly
or in case you have a reason to use a different symmetry number we print 
out the resulting rotational entropy values for sn=1,12:

 non-linear molecules -----------------------------------
|  sn= 1 | S(rot)=       0.01512668 Eh      9.49 kcal/mol|
|  sn= 2 | S(rot)=       0.01447222 Eh      9.08 kcal/mol|
|  sn= 3 | S(rot)=       0.01408939 Eh      8.84 kcal/mol|
|  sn= 4 | S(rot)=       0.01381777 Eh      8.67 kcal/mol|
|  sn= 5 | S(rot)=       0.01360708 Eh      8.54 kcal/mol|
|  sn= 6 | S(rot)=       0.01343494 Eh      8.43 kcal/mol|
|  sn= 7 | S(rot)=       0.01328939 Eh      8.34 kcal/mol|
|  sn= 8 | S(rot)=       0.01316331 Eh      8.26 kcal/mol|
|  sn= 9 | S(rot)=       0.01305210 Eh      8.19 kcal/mol|
|  sn=10 | S(rot)=       0.01295262 Eh      8.13 kcal/mol|
|  sn=11 | S(rot)=       0.01286263 Eh      8.07 kcal/mol|
|  sn=12 | S(rot)=       0.01278048 Eh      8.02 kcal/mol|
 linear molecules ---------------------------------------
|  Dinfh | S(rot)=       0.00935620 Eh      5.87 kcal/mol|
|  Cinfv | S(rot)=       0.01001066 Eh      6.28 kcal/mol|
 --------------------------------------------------------


-------------------
GIBBS FREE ENERGY
-------------------

The Gibbs free energy is G = H - T*S

Total enthalpy                    ...    -99.51685753 Eh 
Total entropy correction          ...     -0.05549230 Eh    -34.82 kcal/mol
-----------------------------------------------------------------------
Final Gibbs free energy         ...    -99.57234982 Eh

For completeness - the Gibbs free energy minus the electronic energy
G-E(el)                           ...      0.32502723 Eh    203.96 kcal/mol


Maximum memory used throughout the entire PROP-calculation: 242.1 MB

--------------------------------
SUGGESTED CITATIONS FOR THIS RUN
--------------------------------

Below you find a list of papers that are relevant to this ORCA run
We neither can nor want to force you to cite these papers, but we appreciate if you do
You receive ORCA, which is the product of decades of hard work by many enthusiastic individuals, for free
The only thing we kindly ask in return is that you cite our papers,
We deeply appreciate it, if you show your appreciation for ORCA by not just citing the generic ORCA reference.

Please note that relegating all ORCA citations to the supporting information does *not* help us.
SI sections are not indexed - citations you put there will not count into any citation statistics
But we need these citations in order to attract the funding resources that allow us to do what we are doing

Therefore, if you are a happy ORCA user, please consider citing a few of the papers listed below in the main body of your paper

In addition to the list printed below, the program has created the file ./output/_e_caryophyllene/_e_caryophyllene.bibtex that contains the list in bibtex format
You can import this file easily into all common literature databanks and citation aid programs


List of essential papers. We consider these as the minimum necessary citations

  1. Neese,F.
     Software update: the ORCA program system, version 5.0
     WIRES Comput. Molec. Sci., 2022 12(1)e1606
     doi.org/10.1002/wcms.1606
  2. Mueller,M.; Hansen,A.; Grimme,S.
     wB97X-3c: A composite range-separated hybrid DFT method with a molecule-optimized polarized valence double-zeta basis set
     J. Chem. Phys., 2023 158 014103
     doi.org/10.1063/5.0133026

List of papers to cite with high priority. The work reported in these papers was absolutely
necessary for this run to complete.
Our perspective: the developers of density functionals and basis sets usually get cited in chemistry papers
Good! But without the algorithms to do something with them, the functionals or basis sets would not do anything.
Hence, in our opinion, the algorithm design and method developments papers are equally worthy of getting cited

  1. Neese,F.
     An improvement of the resolution of the identity approximation for the formation of the Coulomb matrix
     J. Comp. Chem., 2003 24(14)1740-1747
     doi.org/10.1002/jcc.10318
  2. Neese,F.; Wennmohs,F.; Hansen,A.; Becker,U.
     Efficient, approximate and parallel Hartree-Fock and hybrid DFT calculations. A 'chain-of-spheres' algorithm for the Hartree-Fock exchange
     Chem. Phys., 2009 356(1-3)98-109
     doi.org/10.1016/j.chemphys.2008.10.036
  3. Bykov,D.; Petrenko,T.; Izsak,R.; Kossmann,S.; Becker,U.; Valeev,E.; Neese,F.
     Efficient implementation of the analytic second derivatives of Hartree-Fock and hybrid DFT energies: a detailed analysis of different approximations
     Molec. Phys., 2015 113 1961-1977
     doi.org/10.1080/00268976.2015.1025114
  4. Helmich-Paris,B.; de Souza,B.; Neese,F.; Izsák,R.
     An improved chain of spheres for exchange algorithm
     J. Chem. Phys., 2021 155 104109
     doi.org/doi: 10.1063/5.0058766.
  5. Neese,F.
     The SHARK Integral Generation and Digestion System
     J. Comp. Chem., 2022  1-16
     doi.org/10.1002/jcc.26942
  6. Caldeweyher,E.; Bannwarth,C.; Grimme,S.
     Extension of the D3 dispersion coefficient model
     J. Chem. Phys., 2017 147 034112
     doi.org/10.1063/1.4993215
  7. Caldeweyher,E.; Ehlert,S.; Hansen,A.; Neugebauer,H.; Spicher,S.; Bannwarth,C.; Grimme,S.
     A generally applicable atomic-charge dependent London dispersion correction
     J. Chem. Phys., 2019 150 154122
     doi.org/10.1063/1.5090222
  8. Caldeweyher,E.; Mewes,J.; Ehlert,S.; Grimme,S.
     Extension and evaluation of the D4 London-dispersion model for periodic systems
     Phys. Chem. Chem. Phys., 2020 22(16)8499-8512
     doi.org/10.1039/D0CP00502A
  9. Wittmann,L.; Gordiy,I.; Friede,M.; Helmich-Paris,B.; Grimme,S.; Hansen,A.; Bursch,M.
     Extension of the D3 and D4 London Dispersion Corrections to the full Actinides Series
     Phys. Chem. Chem. Phys., 2024 26(32)21379-21394
     doi.org/https://doi.org/10.1039/D4CP01514B 

List of suggested additional citations. These are papers that are important in the 'surrounding' of 
of this run, or papers that preceded the highly important papers. If you like your results we are grateful for a citation.

  1. Izsak,R.; Neese,F.
     An overlap fitted chain of spheres exchange method
     J. Chem. Phys., 2011 135 144105
     doi.org/10.1063/1.3646921
  2. Izsak,R.; Hansen,A.; Neese,F.
     The resolution of identity and chain of spheres approximations for the LPNO-CCSD singles Fock term
     Molec. Phys., 2012 110 2413-2417
     doi.org/10.1080/00268976.2012.687466
  3. Neese,F.
     The ORCA program system
     WIRES Comput. Molec. Sci., 2012 2(1)73-78
     doi.org/10.1002/wcms.81
  4. Izsak,R.; Neese,F.; Klopper,W.
     Robust fitting techniques in the chain of spheres approximation to the Fock exchange: The role of the complementary space
     J. Chem. Phys., 2013 139 
     doi.org/10.1063/1.4819264
  5. Neese,F.
     Software update: the ORCA program system, version 4.0
     WIRES Comput. Molec. Sci., 2018 8(1)1-6
     doi.org/10.1002/wcms.1327
  6. Neese,F.; Wennmohs,F.; Becker,U.; Riplinger,C.
     The ORCA quantum chemistry program package
     J. Chem. Phys., 2020 152 Art. No. L224108
     doi.org/10.1063/5.0004608

List of optional additional citations

  1. Neese,F.
     Approximate second-order SCF convergence for spin unrestricted wavefunctions
     Chem. Phys. Lett., 2000 325(1-3)93-98
     doi.org/10.1016/s0009-2614(00)00662-x

Timings for individual modules:

Sum of individual times          ...     2973.766 sec (=  49.563 min)
Startup calculation              ...      133.524 sec (=   2.225 min)   4.5 %
SCF iterations                   ...     1954.072 sec (=  32.568 min)  65.7 %
Property integrals               ...      155.600 sec (=   2.593 min)   5.2 %
SCF Response                     ...       89.048 sec (=   1.484 min)   3.0 %
Property calculations            ...      218.065 sec (=   3.634 min)   7.3 %
SCF Gradient evaluation          ...      422.700 sec (=   7.045 min)  14.2 %
Geometry relaxation              ...        0.757 sec (=   0.013 min)   0.0 %
                             ****ORCA TERMINATED NORMALLY****
TOTAL RUN TIME: 0 days 0 hours 49 minutes 45 seconds 967 msec
