
                                 *****************
                                 * O   R   C   A *
                                 *****************

                                            #,                                       
                                            ###                                      
                                            ####                                     
                                            #####                                    
                                            ######                                   
                                           ########,                                 
                                     ,,################,,,,,                         
                               ,,#################################,,                 
                          ,,##########################################,,             
                       ,#########################################, ''#####,          
                    ,#############################################,,   '####,        
                  ,##################################################,,,,####,       
                ,###########''''           ''''###############################       
              ,#####''   ,,,,##########,,,,          '''####'''          '####       
            ,##' ,,,,###########################,,,                        '##       
           ' ,,###''''                  '''############,,,                           
         ,,##''                                '''############,,,,        ,,,,,,###''
      ,#''                                            '''#######################'''  
     '                                                          ''''####''''         
             ,#######,   #######,   ,#######,      ##                                
            ,#'     '#,  ##    ##  ,#'     '#,    #''#        ,####,   ,####,        
            ##       ##  ##   ,#'  ##            #'  '#       #'       #'  '#        
            ##       ##  #######   ##           ,######,      #####,   #    #        
            '#,     ,#'  ##    ##  '#,     ,#' ,#      #,     #,   #   #,  ,#        
             '#######'   ##     ##  '#######'  #'      '#     '####' # '####'        



                #########################################################
                #                        -***-                          #
                #          Department of theory and spectroscopy        #
                #                                                       #
                #                      Frank Neese                      #
                #                                                       #
                #     Directorship, Architecture, Infrastructure        #
                #                    SHARK, DRIVERS                     #
                #        Core code/Algorithms in most modules           #
                #                                                       #
                #        Max Planck Institute fuer Kohlenforschung      #
                #                Kaiser Wilhelm Platz 1                 #
                #                 D-45470 Muelheim/Ruhr                 #
                #                      Germany                          #
                #                                                       #
                #                  All rights reserved                  #
                #                        -***-                          #
                #########################################################


                         Program Version 6.0.1  -  RELEASE   -


 With contributions from (in alphabetic order):
[Max-Planck-Institut fuer Kohlenforschung]                               
  Daniel Aravena         : Magnetic Suceptibility                        
  Michael Atanasov       : Ab Initio Ligand Field Theory (pilot matlab implementation)
  Alexander A. Auer      : GIAO ZORA, VPT2 properties, NMR spectrum      
  Ute Becker             : All parallelization in ORCA, NUMFREQ, NUMCALC 
  Giovanni Bistoni       : ED, misc. LED, open-shell LED, HFLD           
  Martin Brehm           : Molecular dynamics                            
  Dmytro Bykov           : pre 5.0 version of the SCF Hessian            
  Marcos Casanova-Páez   : Triplet and SCS-CIS(D). UHF-(DLPNO)-IP/EA/STEOM-CCSD. UHF-CVS-IP/STEOM-CCSD   
  Vijay G. Chilkuri      : MRCI spin determinant printing, contributions to CSF-ICE 
  Pauline Colinet        : FMM embedding                                 
  Dipayan Datta          : RHF DLPNO-CCSD density                        
  Achintya Kumar Dutta   : EOM-CC, STEOM-CC                              
  Nicolas Foglia         : Exact transition moments, OPA infrastructure, MCD improvements    
  Dmitry Ganyushin       : Spin-Orbit,Spin-Spin,Magnetic field MRCI      
  Miquel Garcia-Rates    : C-PCM and meta-GGA Hessian, CCSD/C-PCM, Gaussian charge scheme 
  Tiago L. C. Gouveia    : GS-ROHF, GS-ROCIS                             
  Yang Guo               : DLPNO-NEVPT2, F12-NEVPT2, CIM, IAO-localization        
  Andreas Hansen         : Spin unrestricted coupled pair/coupled cluster methods 
  Ingolf Harden          : AUTO-CI MPn and infrastructure                
  Benjamin Helmich-Paris : MC-RPA, TRAH-(SCF,CASSCF), AVAS, COSX integrals, SCF dyn. polar. 
  Lee Huntington         : MR-EOM, pCC                                   
  Robert Izsak           : Overlap fitted RIJCOSX, COSX-SCS-MP3, EOM     
  Riya Kayal             : Wick's Theorem for AUTO-CI, AUTO-CI UHF-CCSDT 
  Emily Kempfer          : AUTO-CI, RHF CISDT and CCSDT                  
  Christian Kollmar      : KDIIS, OOCD, Brueckner-CCSD(T), CCSD density, CASPT2, CASPT2-K, improved NEVPT2 
  Axel Koslowski         : Symmetry handling                             
  Simone Kossmann        : meta-GGA functionals, TD-DFT gradient, OOMP2, (MP2 Hessian; deprecated post 5.0) 
  Lucas Lang             : DCDCAS                                        
  Marvin Lechner         : AUTO-CI (C++ implementation), FIC-MRCC        
  Spencer Leger          : CASSCF response                               
  Dagmar Lenk            : GEPOL surface, SMD, ORCA-2-JSON               
  Dimitrios Liakos       : Extrapolation schemes; Compound Job, initial MDCI parallelization 
  Dimitrios Manganas     : Further ROCIS development; embedding schemes. LFT, Crystal Embedding 
  Dimitrios Pantazis     : SARC Basis sets                               
  Anastasios Papadopoulos: AUTO-CI, single reference methods and gradients 
  Taras Petrenko         : pre 6.0 DFT Hessian and TD-DFT gradient, (ASA, deprecated), ECA, 1-Electron XAS/XES, NRVS 
  Peter Pinski           : DLPNO-MP2, DLPNO-MP2 Gradient                 
  Christoph Reimann      : Effective Core Potentials                     
  Marius Retegan         : Local ZFS, SOC                                
  Christoph Riplinger    : Optimizer, TS searches, QM/MM, DLPNO-CCSD(T), (RO)-DLPNO pert. Triples 
  Michael Roemelt        : Original ROCIS implementation                 
  Masaaki Saitow         : Open-shell DLPNO-CCSD energy and density      
  Barbara Sandhoefer     : DKH picture change effects                    
  Kantharuban Sivalingam : CASSCF convergence/infrastructure, NEVPT2 and variants, FIC-MRCI 
  Bernardo de Souza      : ESD, SOC TD-DFT                               
  Georgi L. Stoychev     : AutoAux, RI-MP2 NMR, DLPNO-MP2 response, X2C  
  Van Anh Tran           : RI-MP2 g-tensors                              
  Willem Van den Heuvel  : Paramagnetic NMR                              
  Zikuan Wang            : NOTCH, Electric field optimization            
  Frank Wennmohs         : Technical directorship and infrastructure     
  Hang Xu                : AUTO-CI-Response properties                   
                                                                         
[FACCTs GmbH]                                                            
  Markus Bursch, Miquel Garcia-Rates, Christoph Riplinger, Bernardo de Souza, Georgi L. Stoychev 
                                                                 
  APM, Basis sets (HGBS, AHGBS, def-TZVP (Ac-Lr), def2-XVPD (La-Lu)), CI-OPT, improved COSX, DLPNO-Multilevel,           
  DOCKER, DRACO, updates on ESD, GOAT, IRC, LR-CPCM, MBIS, meta-GGA TD-DFT gradient, ML-optimized integration grids, 
  MM, NACMEs, nearIR, NEB, NEB-TS, NL-DFT gradient (VV10), 2- and 3-layer-ONIOM, interface openCOSMO-RS, QMMM,   
  Crystal-QMMM, SF, symmetry and pop. for TD-DFT, r2SCAN hybrids, SOLVATOR                                   
                                                                         
[Other institutions]                                                     
  V. Asgeirsson          : NEB                                           
  Christoph Bannwarth    : sTDA-DFT, sTD-DFT, PBEh-3c, B97-3c, D3        
  Sebastian Ehlert       : rSCAN, r2SCAN, r2SCAN-3c, D4, dhf basis sets  
  Marvin Friede          : D4 for Fr, Ra, Ac-Lr                          
  Lars Goerigk           : TD-DFT with DH, B97 family of functionals     
  Stefan Grimme          : VdW corrections, initial TS optimization, DFT functionals, gCP, sTDA/sTD-DF 
  Waldemar Hujo          : DFT-NL                                        
  H. Jonsson             : NEB                                           
  Holger Kruse           : gCP                                           
  Marcel Mueller         : wB97X-3c, vDZP basis set                      
  Hagen Neugebauer       : wr2SCAN                                       
  Tobias Risthaus        : range-separated hybrid DFT                    
  Lukas Wittmann         : regularized MP2, r2SCAN double-hybrids, wr2SCAN        
                                                                         
We gratefully acknowledge several colleagues who have allowed us to      
interface, adapt or use parts of their codes:                            
  Ed Valeev, F. Pavosevic, A. Kumar             : LibInt (2-el integral package), F12 methods 
  Garnet Chan, S. Sharma, J. Yang, R. Olivares  : DMRG                   
  Ulf Ekstrom                                   : XCFun DFT Library      
  Mihaly Kallay                                 : mrcc  (arbitrary order and MRCC methods)
  Frank Weinhold                                : gennbo (NPA and NBO analysis)           
  Simon Mueller                                 : openCOSMO-RS                            
  Christopher J. Cramer and Donald G. Truhlar   : smd solvation model                     
  S Lehtola, MJT Oliveira, MAL Marques          : LibXC Library                           
  Liviu Ungur et al                             : ANISO software                          


 Your calculation uses the libint2 library for the computation of 2-el integrals
 For citations please refer to: http://libint.valeyev.net

 Your ORCA version has been built with support for libXC version: 6.2.2
 For citations please refer to: https://libxc.gitlab.io

 This ORCA versions uses:
   CBLAS   interface :  Fast vector & matrix operations
   LAPACKE interface :  Fast linear algebra routines
   SCALAPACK package :  Parallel linear algebra routines
   Shared memory     :  Shared parallel matrices
   BLAS/LAPACK       :  OpenBLAS 0.3.27  USE64BITINT DYNAMIC_ARCH NO_AFFINITY SkylakeX SINGLE_THREADED
        Core in use  :  SkylakeX
   Copyright (c) 2011-2014, The OpenBLAS Project


Your calculation utilizes the atom-pairwise dispersion correction
based on EEQ partial charges (D4)


================================================================================

cite the ECPs for C  [vDZP-ECP], O  [vDZP-ECP] as follows:
   B-Ne (ecp-2-mwb), Al-Ar (ecp-10-mwb), Ga-Kr (ecp-28-mwb), Y-Cd (ecp-28-mwb), In-Xe (ecp-46-mwb):
     A. Bergner, M. Dolg, W. Küchle, H. Stoll, and H. Preuß, Mol. Phys. 80, 1431 (1993)., T. Leininger, A. Berning, A. Nicklass, H. Stoll, H.-J. Werner, and H.-J.Flad, Chem. Phys. 217, 19 (1997).
   Na-Mg, K-Ca, Rb-Sr, Cs-Ba (CRENBL):
     L. Fernandez Pacios and P. A. Christiansen, J. Chem. Phys. 82, 2664 (1985)., M. M. Hurley, L. F. Pacios, P. A. Christiansen, R. B. Ross, and W. C. Ermler, J. Chem. Phys. 84, 6840 (1986)., L. A. LaJohn, P. A. Christiansen, R. B. Ross, T. Atashroo, and W. C. Ermler, J. Chem. Phys. 87, 2812 (1987)., R. B. Ross, J. M. Powers, T. Atashroo, W. C. Ermler, L. A. LaJohn, and P. A. Christiansen, J. Chem. Phys. 93, 6654 (1990). 
   Sc-Zn (ecp-10-mdf):
     M. Dolg, U. Wedig, H. Stoll, and H. Preuss, J. Chem. Phys. 86, 866 (1986). 
   Y-Cd (ecp-28-mwb), Hf-Hg (ecp-60-mwb):
     D. Andrae, U. Häußermann, M. Dolg, H. Stoll, and H. Preuß, Theor. Chim. Acta 77, 123 (1990). 
   La (ecp-46-mwb):
     M. Dolg, H. Stoll, and H. Preuss, J. Chem. Phys. 90, 1730 (1989)., M. Dolg, H. Stoll, and H. Preuss, Theor. Chim. Acta 85, 441 (1993).
   Ce-Lu (SBKJC-ecp):
     T. R. Cundari and W. J. Stevens, J. Chem. Phys. 98, 5555 (1993).
   Tl-Rn (ecp-78-mwb):
     W. Küchle, M. Dolg, H. Stoll, and H. Preuss, Mol. Phys. 74, 1245 (1991).

ECP parameters for C  [vDZP-ECP], O  [vDZP-ECP] have been obtained from:
MM, AH, SG, J. Chem. Phys. 158, 014103 (2023), 10.1063/5.0133026

----- Orbital basis set information -----
Your calculation utilizes the basis: vDZP
   Marcel Mueller, Andreas Hansen, Stefan Grimme 
   J. Chem. Phys. 158, 014103 (2023). DOI: 10.1063/5.0133026

----- AuxJ basis set information -----
Your calculation utilizes the auxiliary basis: def2/J
   F. Weigend, Phys. Chem. Chem. Phys. 8, 1057 (2006).

================================================================================
                                        WARNINGS
                       Please study these warnings very carefully!
================================================================================

WARNING: Frozen-Core approximation turned on, but there are no core electrons.
  ===> : Turning off frozen-core approximation


WARNING: Geometry Optimization
  ===> : Switching off AutoStart
         For restart on a previous wavefunction, please use MOREAD

================================================================================
                                       INPUT FILE
================================================================================
NAME = ./output/citronellol/citronellol.inp
|  1> ! wB97X-3c OPT FREQ TightSCF
|  2> %pal
|  3>   nprocs 40
|  4> end
|  5> * xyz 0 1
|  6> C      1.896611    -1.026251    -1.463889
|  7> C      1.694392     0.026359    -0.357698
|  8> C      0.405053    -0.256275     0.452817
|  9> C     -0.880844    -0.032508    -0.359752
| 10> C     -2.106858    -0.152013     0.514214
| 11> C     -3.362932     0.014683     0.048453
| 12> C     -3.631278     0.338834    -1.402202
| 13> C     -4.516027    -0.128730     1.007710
| 14> C      2.909735     0.066668     0.601312
| 15> C      4.183008     0.615685    -0.058038
| 16> O      5.188104     0.787918     0.903990
| 17> H      1.047419    -1.021226    -2.176044
| 18> H      1.994871    -2.042384    -1.025535
| 19> H      2.802488    -0.803040    -2.062238
| 20> H      1.594069     1.026454    -0.835598
| 21> H      0.423912    -1.298783     0.841550
| 22> H      0.374787     0.429285     1.329095
| 23> H     -0.855723     0.981661    -0.813663
| 24> H     -0.952625    -0.791210    -1.165862
| 25> H     -1.970020    -0.385807     1.568188
| 26> H     -3.144959     1.299511    -1.672449
| 27> H     -4.718206     0.437789    -1.603175
| 28> H     -3.236074    -0.470514    -2.051241
| 29> H     -4.419702     0.617781     1.824416
| 30> H     -5.491909     0.031362     0.503931
| 31> H     -4.514385    -1.149052     1.446462
| 32> H      3.111396    -0.950394     1.004161
| 33> H      2.669187     0.725945     1.464334
| 34> H      3.971756     1.582264    -0.570296
| 35> H      4.557758    -0.101654    -0.816048
| 36> H      4.976991     1.627641     1.389995
| 37> *
| 38> 
| 39>                          ****END OF INPUT****
================================================================================

                       *****************************
                       * Geometry Optimization Run *
                       *****************************

Geometry optimization settings:
Update method            Update   .... BFGS
Choice of coordinates    CoordSys .... (2022) Redundant Internals
Initial Hessian          InHess   .... Almloef's Model
Max. no of cycles        MaxIter  .... 93

Convergence Tolerances:
Energy Change            TolE     ....  5.0000e-06 Eh
Max. Gradient            TolMAXG  ....  3.0000e-04 Eh/bohr
RMS Gradient             TolRMSG  ....  1.0000e-04 Eh/bohr
Max. Displacement        TolMAXD  ....  4.0000e-03 bohr
RMS Displacement         TolRMSD  ....  2.0000e-03 bohr
Strict Convergence                .... False

------------------------------------------------------------------------------
                        ORCA OPTIMIZATION COORDINATE SETUP
------------------------------------------------------------------------------

The optimization will be done in redundant internal coordinates (2022)
Making redundant internal coordinates   ...  (2022 redundants) done
Evaluating the initial hessian          ...  (Almloef) done
Evaluating the coordinates              ...  done
Calculating the B-matrix                .... done
Calculating the G-matrix                .... done
Diagonalizing the G-matrix              .... done
Small eigenvalue found = 3.972e-03
Small eigenvalue found = 1.587e-02
Small eigenvalue found = 1.875e-02
Small eigenvalue found = 2.505e-02
Small eigenvalue found = 2.838e-02
The first mode is                       ....   50
The number of degrees of freedom        ....   87

    -----------------------------------------------------------------
                    Redundant Internal Coordinates


    -----------------------------------------------------------------
         Definition                    Initial Value    Approx d2E/dq
    -----------------------------------------------------------------
      1. B(C   1,C   0)                  1.5403         0.359697   
      2. B(C   2,C   1)                  1.5489         0.348467   
      3. B(C   3,C   2)                  1.5375         0.363438   
      4. B(C   4,C   3)                  1.5104         0.401514   
      5. B(C   5,C   4)                  1.3500         0.723752   
      6. B(C   6,C   5)                  1.5105         0.401380   
      7. B(C   7,C   5)                  1.5068         0.406848   
      8. B(C   8,C   1)                  1.5487         0.348809   
      9. B(C   9,C   8)                  1.5354         0.366266   
     10. B(O  10,C   9)                  1.4019         0.535621   
     11. B(H  11,C   0)                  1.1083         0.336694   
     12. B(H  12,C   0)                  1.1110         0.333356   
     13. B(H  13,C   0)                  1.1084         0.336615   
     14. B(H  14,C   1)                  1.1129         0.330993   
     15. B(H  15,C   2)                  1.1128         0.331185   
     16. B(H  16,C   2)                  1.1130         0.330922   
     17. B(H  17,C   3)                  1.1114         0.332877   
     18. B(H  18,C   3)                  1.1093         0.335426   
     19. B(H  19,C   4)                  1.0882         0.362449   
     20. B(H  20,C   6)                  1.1102         0.334403   
     21. B(H  21,C   6)                  1.1098         0.334871   
     22. B(H  22,C   6)                  1.1102         0.334380   
     23. B(H  23,C   7)                  1.1107         0.333781   
     24. B(H  24,C   7)                  1.1099         0.334775   
     25. B(H  25,C   7)                  1.1107         0.333782   
     26. B(H  26,C   8)                  1.1124         0.331689   
     27. B(H  27,C   8)                  1.1123         0.331718   
     28. B(H  28,C   9)                  1.1141         0.329539   
     29. B(H  29,C   9)                  1.1089         0.335983   
     30. B(H  30,O  10)                  0.9929         0.460716   
     31. A(H  12,C   0,H  13)          108.9600         0.284340   
     32. A(H  11,C   0,H  12)          108.9923         0.284350   
     33. A(C   1,C   0,H  11)          110.9638         0.318789   
     34. A(C   1,C   0,H  13)          110.9393         0.318777   
     35. A(C   1,C   0,H  12)          110.6879         0.318271   
     36. A(H  11,C   0,H  13)          106.1668         0.284781   
     37. A(C   2,C   1,H  14)          108.2779         0.316265   
     38. A(C   0,C   1,C   2)          111.1236         0.356761   
     39. A(C   8,C   1,H  14)          108.2556         0.316316   
     40. A(C   0,C   1,H  14)          108.5142         0.317902   
     41. A(C   0,C   1,C   8)          111.0682         0.356820   
     42. A(C   2,C   1,C   8)          109.5090         0.354905   
     43. A(C   3,C   2,H  15)          109.5815         0.318469   
     44. A(C   3,C   2,H  16)          107.6804         0.318428   
     45. A(C   1,C   2,H  15)          109.8546         0.316295   
     46. A(C   1,C   2,C   3)          113.1464         0.357389   
     47. A(C   1,C   2,H  16)          108.7972         0.316254   
     48. A(H  15,C   2,H  16)          107.6068         0.283300   
     49. A(H  17,C   3,H  18)          109.1948         0.284120   
     50. A(C   2,C   3,H  18)          109.7932         0.319131   
     51. A(C   4,C   3,H  18)          108.2910         0.324380   
     52. A(C   2,C   3,H  17)          109.2538         0.318734   
     53. A(C   2,C   3,C   4)          111.1967         0.366136   
     54. A(C   4,C   3,H  17)          109.0793         0.323974   
     55. A(C   3,C   4,H  19)          118.3827         0.328544   
     56. A(C   5,C   4,H  19)          118.5339         0.362717   
     57. A(C   3,C   4,C   5)          123.0833         0.412895   
     58. A(C   6,C   5,C   7)          119.7286         0.373283   
     59. A(C   4,C   5,C   7)          118.7274         0.413864   
     60. A(C   4,C   5,C   6)          121.5440         0.412870   
     61. A(H  21,C   6,H  22)          107.9260         0.284246   
     62. A(H  20,C   6,H  22)          109.4271         0.284184   
     63. A(C   5,C   6,H  22)          109.9857         0.324196   
     64. A(H  20,C   6,H  21)          107.9268         0.284249   
     65. A(C   5,C   6,H  21)          111.5345         0.324274   
     66. A(C   5,C   6,H  20)          109.9791         0.324199   
     67. A(H  24,C   7,H  25)          108.2478         0.284154   
     68. A(C   5,C   7,H  25)          109.7428         0.324822   
     69. A(H  23,C   7,H  24)          108.2453         0.284154   
     70. A(C   5,C   7,H  24)          111.7275         0.324980   
     71. A(C   5,C   7,H  23)          109.7424         0.324821   
     72. A(H  23,C   7,H  25)          109.0778         0.284023   
     73. A(H  26,C   8,H  27)          107.4656         0.283472   
     74. A(C   9,C   8,H  27)          107.4928         0.318956   
     75. A(C   1,C   8,H  27)          109.0362         0.316428   
     76. A(C   9,C   8,H  26)          109.3976         0.318951   
     77. A(C   1,C   8,H  26)          110.0435         0.316424   
     78. A(C   1,C   8,C   9)          113.2146         0.357920   
     79. A(H  28,C   9,H  29)          108.1202         0.283749   
     80. A(O  10,C   9,H  29)          107.8348         0.338271   
     81. A(C   8,C   9,H  29)          110.0294         0.319622   
     82. A(O  10,C   9,H  28)          110.1736         0.337181   
     83. A(C   8,C   9,H  28)          110.5132         0.318613   
     84. A(C   8,C   9,O  10)          110.1081         0.382896   
     85. A(C   9,O  10,H  30)          106.6992         0.353616   
     86. D(C   2,C   1,C   0,H  11)     60.4441         0.010381   
     87. D(C   2,C   1,C   0,H  12)    -60.7016         0.010381   
     88. D(C   2,C   1,C   0,H  13)    178.2101         0.010381   
     89. D(C   8,C   1,C   0,H  13)    -59.6162         0.010381   
     90. D(C   8,C   1,C   0,H  12)     61.4721         0.010381   
     91. D(C   8,C   1,C   0,H  11)   -177.3822         0.010381   
     92. D(C   3,C   2,C   1,C   0)    -68.6725         0.009790   
     93. D(H  15,C   2,C   1,H  14)    173.2248         0.009790   
     94. D(H  15,C   2,C   1,C   8)    -68.9344         0.009790   
     95. D(H  15,C   2,C   1,C   0)     54.1399         0.009790   
     96. D(C   3,C   2,C   1,H  14)     50.4124         0.009790   
     97. D(C   3,C   2,C   1,C   8)    168.2532         0.009790   
     98. D(C   4,C   3,C   2,H  16)    -52.6660         0.010583   
     99. D(C   4,C   3,C   2,H  15)     64.1006         0.010583   
    100. D(C   4,C   3,C   2,C   1)   -172.9356         0.010583   
    101. D(H  17,C   3,C   2,H  16)     67.7865         0.010583   
    102. D(H  17,C   3,C   2,H  15)   -175.4469         0.010583   
    103. D(H  17,C   3,C   2,C   1)    -52.4831         0.010583   
    104. D(H  19,C   4,C   3,C   2)     -0.8588         0.011960   
    105. D(C   5,C   4,C   3,H  18)    -59.9995         0.011960   
    106. D(C   5,C   4,C   3,H  17)     58.7337         0.011960   
    107. D(H  19,C   4,C   3,H  17)   -121.4142         0.011960   
    108. D(C   5,C   4,C   3,C   2)    179.2892         0.011960   
    109. D(C   7,C   5,C   4,H  19)      0.0695         0.037108   
    110. D(C   7,C   5,C   4,C   3)    179.9213         0.037108   
    111. D(C   6,C   5,C   4,H  19)   -179.9184         0.037108   
    112. D(C   6,C   5,C   4,C   3)     -0.0666         0.037108   
    113. D(H  21,C   6,C   5,C   7)     -0.1039         0.011953   
    114. D(H  21,C   6,C   5,C   4)    179.8839         0.011953   
    115. D(H  20,C   6,C   5,C   7)    119.6022         0.011953   
    116. D(H  20,C   6,C   5,C   4)    -60.4100         0.011953   
    117. D(H  22,C   6,C   5,C   4)     60.1744         0.011953   
    118. D(H  25,C   7,C   5,C   4)    -59.9374         0.012267   
    119. D(H  24,C   7,C   5,C   6)     -0.0251         0.012267   
    120. D(H  24,C   7,C   5,C   4)    179.9867         0.012267   
    121. D(H  23,C   7,C   5,C   6)   -120.0977         0.012267   
    122. D(H  23,C   7,C   5,C   4)     59.9141         0.012267   
    123. D(H  26,C   8,C   1,C   2)     68.8226         0.009808   
    124. D(H  26,C   8,C   1,C   0)    -54.2844         0.009808   
    125. D(C   9,C   8,C   1,H  14)    -50.5603         0.009808   
    126. D(C   9,C   8,C   1,C   2)   -168.4150         0.009808   
    127. D(H  26,C   8,C   1,H  14)   -173.3226         0.009808   
    128. D(C   9,C   8,C   1,C   0)     68.4780         0.009808   
    129. D(H  28,C   9,C   8,H  27)    -70.1170         0.010738   
    130. D(H  28,C   9,C   8,H  26)    173.4857         0.010738   
    131. D(H  28,C   9,C   8,C   1)     50.3660         0.010738   
    132. D(O  10,C   9,C   8,H  27)     51.8273         0.010738   
    133. D(O  10,C   9,C   8,H  26)    -64.5701         0.010738   
    134. D(O  10,C   9,C   8,C   1)    172.3102         0.010738   
    135. D(H  30,O  10,C   9,H  29)    161.6708         0.022805   
    136. D(H  30,O  10,C   9,H  28)     43.8782         0.022805   
    137. D(H  30,O  10,C   9,C   8)    -78.2672         0.022805   
    -----------------------------------------------------------------

Number of atoms                         .... 31
Number of degrees of freedom            .... 137


         *************************************************************
         *                GEOMETRY OPTIMIZATION CYCLE   1            *
         *************************************************************
---------------------------------
CARTESIAN COORDINATES (ANGSTROEM)
---------------------------------
  C      1.896611   -1.026251   -1.463889
  C      1.694392    0.026359   -0.357698
  C      0.405053   -0.256275    0.452817
  C     -0.880844   -0.032508   -0.359752
  C     -2.106858   -0.152013    0.514214
  C     -3.362932    0.014683    0.048453
  C     -3.631278    0.338834   -1.402202
  C     -4.516027   -0.128730    1.007710
  C      2.909735    0.066668    0.601312
  C      4.183008    0.615685   -0.058038
  O      5.188104    0.787918    0.903990
  H      1.047419   -1.021226   -2.176044
  H      1.994871   -2.042384   -1.025535
  H      2.802488   -0.803040   -2.062238
  H      1.594069    1.026454   -0.835598
  H      0.423912   -1.298783    0.841550
  H      0.374787    0.429285    1.329095
  H     -0.855723    0.981661   -0.813663
  H     -0.952625   -0.791210   -1.165862
  H     -1.970020   -0.385807    1.568188
  H     -3.144959    1.299511   -1.672449
  H     -4.718206    0.437789   -1.603175
  H     -3.236074   -0.470514   -2.051241
  H     -4.419702    0.617781    1.824416
  H     -5.491909    0.031362    0.503931
  H     -4.514385   -1.149052    1.446462
  H      3.111396   -0.950394    1.004161
  H      2.669187    0.725945    1.464334
  H      3.971756    1.582264   -0.570296
  H      4.557758   -0.101654   -0.816048
  H      4.976991    1.627641    1.389995

----------------------------
CARTESIAN COORDINATES (A.U.)
----------------------------
  NO LB      ZA    FRAG     MASS         X           Y           Z
   0 C     4.0000*   0    12.011    3.584075   -1.939333   -2.766349
   1 C     4.0000*   0    12.011    3.201937    0.049811   -0.675951
   2 C     4.0000*   0    12.011    0.765439   -0.484290    0.855700
   3 C     4.0000*   0    12.011   -1.664554   -0.061431   -0.679833
   4 C     4.0000*   0    12.011   -3.981385   -0.287263    0.971724
   5 C     4.0000*   0    12.011   -6.355020    0.027747    0.091563
   6 C     4.0000*   0    12.011   -6.862121    0.640303   -2.649778
   7 C     4.0000*   0    12.011   -8.534054   -0.243264    1.904296
   8 C     4.0000*   0    12.011    5.498602    0.125984    1.136315
   9 C     4.0000*   0    12.011    7.904740    1.163476   -0.109676
  10 O     6.0000*   0    15.999    9.804096    1.488949    1.708294
  11 H     1.0000    0     1.008    1.979335   -1.929837   -4.112127
  12 H     1.0000    0     1.008    3.769760   -3.859546   -1.937980
  13 H     1.0000    0     1.008    5.295935   -1.517526   -3.897065
  14 H     1.0000    0     1.008    3.012354    1.939717   -1.579051
  15 H     1.0000    0     1.008    0.801078   -2.454344    1.590299
  16 H     1.0000    0     1.008    0.708245    0.811231    2.511626
  17 H     1.0000    0     1.008   -1.617082    1.855070   -1.537600
  18 H     1.0000    0     1.008   -1.800200   -1.495170   -2.203160
  19 H     1.0000    0     1.008   -3.722798   -0.729070    2.963446
  20 H     1.0000    0     1.008   -5.943111    2.455720   -3.160471
  21 H     1.0000    0     1.008   -8.916117    0.827301   -3.029562
  22 H     1.0000    0     1.008   -6.115294   -0.889143   -3.876284
  23 H     1.0000    0     1.008   -8.352026    1.167437    3.447647
  24 H     1.0000    0     1.008  -10.378204    0.059266    0.952292
  25 H     1.0000    0     1.008   -8.530951   -2.171394    2.733417
  26 H     1.0000    0     1.008    5.879686   -1.795984    1.897589
  27 H     1.0000    0     1.008    5.044032    1.371837    2.767190
  28 H     1.0000    0     1.008    7.505531    2.990046   -1.077703
  29 H     1.0000    0     1.008    8.612914   -0.192098   -1.542107
  30 H     1.0000    0     1.008    9.405150    3.075796    2.626710
* core charge reduced due to ECP

--------------------------------
INTERNAL COORDINATES (ANGSTROEM)
--------------------------------
 C      0   0   0     0.000000000000     0.00000000     0.00000000
 C      1   0   0     1.540304795987     0.00000000     0.00000000
 C      2   1   0     1.548938862609   111.12357572     0.00000000
 C      3   2   1     1.537488583587   113.14636370   291.32747862
 C      4   3   2     1.510366956199   111.19667444   187.06435909
 C      5   4   3     1.349978799468   123.08330105   179.28918197
 C      6   5   4     1.510458001913   121.54403751   359.93337478
 C      6   5   4     1.506774488649   118.72738348   179.92133812
 C      2   1   3     1.548671560800   111.06824954   122.17372372
 C      9   2   1     1.535378201395   113.21459780    68.47799603
 O     10   9   2     1.401920129069   110.10814896   172.31020210
 H      1   2   3     1.108294657352   110.96381103    60.44407775
 H      1   2   3     1.111006539407   110.68786856   299.29840515
 H      1   2   3     1.108358162081   110.93927902   178.21011702
 H      2   1   3     1.112943450205   108.51416890   241.05670432
 H      3   2   1     1.112785665451   109.85460427    54.13985730
 H      3   2   1     1.113001202892   108.79720468   171.69659117
 H      4   3   2     1.111397778081   109.25376109   307.51686671
 H      4   3   2     1.109321670601   109.79319729    67.24147086
 H      5   4   3     1.088230428428   118.38267432   359.14121733
 H      7   6   5     1.110153101648   109.97908903   299.59002782
 H      7   6   5     1.109772371227   111.53448582   179.88390554
 H      7   6   5     1.110172063349   109.98569493    60.17439533
 H      8   6   5     1.110660105155   109.74240568    59.91411487
 H      8   6   5     1.109850623836   111.72752395   179.98666322
 H      8   6   5     1.110658812306   109.74280408   300.06264485
 H      9   2   1     1.112371155490   110.04352208   305.71561840
 H      9   2   1     1.112347281885   109.03622746   188.08012783
 H     10   9   2     1.114141207078   110.51321521    50.36596906
 H     10   9   2     1.108869678331   110.02939120   291.03587638
 H     11  10   9     0.992927124981   106.69924601   281.73281348

---------------------------
INTERNAL COORDINATES (A.U.)
---------------------------
 C      0   0   0     0.000000000000     0.00000000     0.00000000
 C      1   0   0     2.910754227182     0.00000000     0.00000000
 C      2   1   0     2.927070248519   111.12357572     0.00000000
 C      3   2   1     2.905432357009   113.14636370   291.32747862
 C      4   3   2     2.854179908940   111.19667444   187.06435909
 C      5   4   3     2.551090217594   123.08330105   179.28918197
 C      6   5   4     2.854351960405   121.54403751   359.93337478
 C      6   5   4     2.847391129126   118.72738348   179.92133812
 C      2   1   3     2.926565121304   111.06824954   122.17372372
 C      9   2   1     2.901444312629   113.21459780    68.47799603
 O     10   9   2     2.649245105572   110.10814896   172.31020210
 H      1   2   3     2.094373378083   110.96381103    60.44407775
 H      1   2   3     2.099498092475   110.68786856   299.29840515
 H      1   2   3     2.094493384629   110.93927902   178.21011702
 H      2   1   3     2.103158323429   108.51416890   241.05670432
 H      3   2   1     2.102860153456   109.85460427    54.13985730
 H      3   2   1     2.103267460192   108.79720468   171.69659117
 H      4   3   2     2.100237426421   109.25376109   307.51686671
 H      4   3   2     2.096314151860   109.79319729    67.24147086
 H      5   4   3     2.056457480328   118.38267432   359.14121733
 H      7   6   5     2.097885328838   109.97908903   299.59002782
 H      7   6   5     2.097165852611   111.53448582   179.88390554
 H      7   6   5     2.097921161260   109.98569493    60.17439533
 H      8   6   5     2.098843426614   109.74240568    59.91411487
 H      8   6   5     2.097313728612   111.72752395   179.98666322
 H      8   6   5     2.098840983484   109.74280408   300.06264485
 H      9   2   1     2.102076843149   110.04352208   305.71561840
 H      9   2   1     2.102031728574   109.03622746   188.08012783
 H     10   9   2     2.105421755894   110.51321521    50.36596906
 H     10   9   2     2.095460010254   110.02939120   291.03587638
 H     11  10   9     1.876360337156   106.69924601   281.73281348

---------------------
BASIS SET INFORMATION
---------------------
There are 3 groups of distinct atoms

 Group   1 Type C   : 6s6p2d contracted to 2s2p1d pattern {42/42/2}
 Group   2 Type O   : 6s6p2d contracted to 2s2p1d pattern {42/42/2}
 Group   3 Type H   : 8s2p contracted to 2s1p pattern {53/2}

Atom   0C    basis set group =>   1
Atom   1C    basis set group =>   1
Atom   2C    basis set group =>   1
Atom   3C    basis set group =>   1
Atom   4C    basis set group =>   1
Atom   5C    basis set group =>   1
Atom   6C    basis set group =>   1
Atom   7C    basis set group =>   1
Atom   8C    basis set group =>   1
Atom   9C    basis set group =>   1
Atom  10O    basis set group =>   2
Atom  11H    basis set group =>   3
Atom  12H    basis set group =>   3
Atom  13H    basis set group =>   3
Atom  14H    basis set group =>   3
Atom  15H    basis set group =>   3
Atom  16H    basis set group =>   3
Atom  17H    basis set group =>   3
Atom  18H    basis set group =>   3
Atom  19H    basis set group =>   3
Atom  20H    basis set group =>   3
Atom  21H    basis set group =>   3
Atom  22H    basis set group =>   3
Atom  23H    basis set group =>   3
Atom  24H    basis set group =>   3
Atom  25H    basis set group =>   3
Atom  26H    basis set group =>   3
Atom  27H    basis set group =>   3
Atom  28H    basis set group =>   3
Atom  29H    basis set group =>   3
Atom  30H    basis set group =>   3
---------------------------------
AUXILIARY/J BASIS SET INFORMATION
---------------------------------
There are 3 groups of distinct atoms

 Group   1 Type C   : 12s5p4d2f1g contracted to 6s4p3d1f1g pattern {711111/2111/211/2/1}
 Group   2 Type O   : 12s5p4d2f1g contracted to 6s4p3d1f1g pattern {711111/2111/211/2/1}
 Group   3 Type H   : 5s2p1d contracted to 3s1p1d pattern {311/2/1}

Atom   0C    basis set group =>   1
Atom   1C    basis set group =>   1
Atom   2C    basis set group =>   1
Atom   3C    basis set group =>   1
Atom   4C    basis set group =>   1
Atom   5C    basis set group =>   1
Atom   6C    basis set group =>   1
Atom   7C    basis set group =>   1
Atom   8C    basis set group =>   1
Atom   9C    basis set group =>   1
Atom  10O    basis set group =>   2
Atom  11H    basis set group =>   3
Atom  12H    basis set group =>   3
Atom  13H    basis set group =>   3
Atom  14H    basis set group =>   3
Atom  15H    basis set group =>   3
Atom  16H    basis set group =>   3
Atom  17H    basis set group =>   3
Atom  18H    basis set group =>   3
Atom  19H    basis set group =>   3
Atom  20H    basis set group =>   3
Atom  21H    basis set group =>   3
Atom  22H    basis set group =>   3
Atom  23H    basis set group =>   3
Atom  24H    basis set group =>   3
Atom  25H    basis set group =>   3
Atom  26H    basis set group =>   3
Atom  27H    basis set group =>   3
Atom  28H    basis set group =>   3
Atom  29H    basis set group =>   3
Atom  30H    basis set group =>   3
-------------------------
ECP PARAMETER INFORMATION
-------------------------

 Group 1, Type C  ECP vDZP-ECP (replacing 2 core electrons, lmax=3)
 Group 2, Type O  ECP vDZP-ECP (replacing 2 core electrons, lmax=3)

Atom   0C    ECP group =>   1
Atom   1C    ECP group =>   1
Atom   2C    ECP group =>   1
Atom   3C    ECP group =>   1
Atom   4C    ECP group =>   1
Atom   5C    ECP group =>   1
Atom   6C    ECP group =>   1
Atom   7C    ECP group =>   1
Atom   8C    ECP group =>   1
Atom   9C    ECP group =>   1
Atom  10O    ECP group =>   2



           ************************************************************
           *        Program running with 40 parallel MPI-processes    *
           *              working on a common directory               *
           ************************************************************
------------------------------------------------------------------------------
                             ORCA STARTUP CALCULATIONS
                           -- RI-GTO INTEGRALS CHOSEN --
------------------------------------------------------------------------------
------------------------------------------------------------------------------
                   ___                                                        
                  /   \      - P O W E R E D   B Y -                         
                 /     \                                                     
                 |  |  |   _    _      __       _____    __    __             
                 |  |  |  | |  | |    /  \     |  _  \  |  |  /  |          
                  \  \/   | |  | |   /    \    | | | |  |  | /  /          
                 / \  \   | |__| |  /  /\  \   | |_| |  |  |/  /          
                |  |  |   |  __  | /  /__\  \  |    /   |      \           
                |  |  |   | |  | | |   __   |  |    \   |  |\   \          
                \     /   | |  | | |  |  |  |  | |\  \  |  | \   \       
                 \___/    |_|  |_| |__|  |__|  |_| \__\ |__|  \__/        
                                                                              
                      - O R C A' S   B I G   F R I E N D -                    
                                      &                                       
                       - I N T E G R A L  F E E D E R -                       
                                                                              
 v1 FN, 2020, v2 2021, v3 2022-2024                                           
------------------------------------------------------------------------------


----------------------
SHARK INTEGRAL PACKAGE
----------------------

Number of atoms                             ...     31
Number of basis functions                   ...    243
Number of shells                            ...    115
Maximum angular momentum                    ...      2
Integral batch strategy                     ... SHARK/LIBINT Hybrid
RI-J (if used) integral strategy            ... SPLIT-RIJ (Revised 2003 algorithm where possible)
Printlevel                                  ...      1
Contraction scheme used                     ... SEGMENTED contraction
Prescreening option                         ... SCHWARTZ
   Thresh                                   ... 2.500e-11
   Tcut                                     ... 2.500e-12
   Tpresel                                  ... 2.500e-12 
Coulomb Range Separation                    ... NOT USED
Exchange Range Separation                   ... Long Range
   Mu parameter                             ... 3.000e-01
   Scaling (regular/separated)              ... 1.670e-01 8.330e-01
Multipole approximations                    ... NOT USED
Finite Nucleus Model                        ... NOT USED
CABS basis                                  ... NOT available
Auxiliary Coulomb fitting basis             ... AVAILABLE
   # of basis functions in Aux-J            ...    759
   # of shells in Aux-J                     ...    265
   Maximum angular momentum in Aux-J        ...      4
Auxiliary J/K fitting basis                 ... NOT available
Auxiliary Correlation fitting basis         ... NOT available
Auxiliary 'external' fitting basis          ... NOT available

Checking pre-screening integrals            ... done (  0.0 sec) Dimension = 115
Check shell pair data                       ... done (  0.0 sec)
Shell pair information
Shell pair cut-off parameter TPreSel        ...   2.5e-12
Total number of shell pairs                 ...      6670
Shell pairs after pre-screening             ...      6387
Total number of primitive shell pairs       ...     63280
Primitive shell pairs kept                  ...     45685
          la=0 lb=0:   1910 shell pairs
          la=1 lb=0:   2497 shell pairs
          la=1 lb=1:    829 shell pairs
          la=2 lb=0:    657 shell pairs
          la=2 lb=1:    432 shell pairs
          la=2 lb=2:     62 shell pairs

Calculating one electron integrals          ... done (  0.0 sec)
Calculating ECP integrals                   ... done (  0.1 sec)
Calculating RI/J V-Matrix + Cholesky decomp.... done (  0.0 sec)
Calculating Nuclear repulsion               ... done (  0.0 sec) ENN=    341.105150100463 Eh

Diagonalization of the overlap matrix:
Smallest eigenvalue                        ... 1.006e-03
Time for diagonalization                   ...    0.011 sec
Threshold for overlap eigenvalues          ... 1.000e-07
Number of eigenvalues below threshold      ... 0
Time for construction of square roots      ...    0.008 sec
Total time needed                          ...    0.023 sec

-------------------
DFT GRID GENERATION
-------------------

General Integration Accuracy     IntAcc      ... 4.388
Radial Grid Type                 RadialGrid  ... OptM3 with GC (2021)
Angular Grid (max. ang.)         AngularGrid ... 4 (Lebedev-302)
Angular grid pruning method      GridPruning ... 4 (adaptive)
Weight generation scheme         WeightScheme... mBecke (2022)
Basis function cutoff            BFCut       ... 1.0000e-11
Integration weight cutoff        WCut        ... 1.0000e-14
Partially contracted basis set               ... off
Rotationally invariant grid construction     ... off
Angular grids for H and He will be reduced by one unit

Total number of grid points                  ...   129755
Total number of batches                      ...     2042
Average number of points per batch           ...       63
Average number of grid points per atom       ...     4186

--------------------
COSX GRID GENERATION
--------------------

GRIDX 1
-------
General Integration Accuracy     IntAcc      ... 3.816
Radial Grid Type                 RadialGrid  ... OptM3 with GC (2021)
Angular Grid (max. ang.)         AngularGrid ... 1 (Lebedev-50)
Angular grid pruning method      GridPruning ... 4 (adaptive)
Weight generation scheme         WeightScheme... mBecke (2022)
Basis function cutoff            BFCut       ... 1.0000e-11
Integration weight cutoff        WCut        ... 1.0000e-14
Partially contracted basis set               ... on
Rotationally invariant grid construction     ... off
Angular grids for H and He will be reduced by one unit

Total number of grid points                  ...    16606
Total number of batches                      ...      151
Average number of points per batch           ...      109
Average number of grid points per atom       ...      536
UseSFitting                                  ... on

GRIDX 2
-------
General Integration Accuracy     IntAcc      ... 4.020
Radial Grid Type                 RadialGrid  ... OptM3 with GC (2021)
Angular Grid (max. ang.)         AngularGrid ... 2 (Lebedev-110)
Angular grid pruning method      GridPruning ... 4 (adaptive)
Weight generation scheme         WeightScheme... mBecke (2022)
Basis function cutoff            BFCut       ... 1.0000e-11
Integration weight cutoff        WCut        ... 1.0000e-14
Partially contracted basis set               ... on
Rotationally invariant grid construction     ... off
Angular grids for H and He will be reduced by one unit

Total number of grid points                  ...    34451
Total number of batches                      ...      286
Average number of points per batch           ...      120
Average number of grid points per atom       ...     1111
UseSFitting                                  ... on

GRIDX 3
-------
General Integration Accuracy     IntAcc      ... 4.338
Radial Grid Type                 RadialGrid  ... OptM3 with GC (2021)
Angular Grid (max. ang.)         AngularGrid ... 3 (Lebedev-194)
Angular grid pruning method      GridPruning ... 4 (adaptive)
Weight generation scheme         WeightScheme... mBecke (2022)
Basis function cutoff            BFCut       ... 1.0000e-11
Integration weight cutoff        WCut        ... 1.0000e-14
Partially contracted basis set               ... on
Rotationally invariant grid construction     ... off
Angular grids for H and He will be reduced by one unit

Total number of grid points                  ...    74901
Total number of batches                      ...      601
Average number of points per batch           ...      124
Average number of grid points per atom       ...     2416
UseSFitting                                  ... on
Initializing property integral containers    ... done (  0.0 sec)

SHARK setup successfully completed in   3.7 seconds

Maximum memory used throughout the entire STARTUP-calculation: 38.4 MB


           ************************************************************
           *        Program running with 40 parallel MPI-processes    *
           *              working on a common directory               *
           ************************************************************
-------------------------------------------------------------------------------
                                 ORCA GUESS
                   Start orbitals & Density for SCF / CASSCF
-------------------------------------------------------------------------------

------------
SCF SETTINGS
------------
Hamiltonian:
 Density Functional     Method          .... DFT(GTOs)
 Exchange Functional    Exchange        .... WB97X-V
 Correlation Functional Correlation     .... WB97X-V
 Gradients option       PostSCFGGA      .... off
 Hybrid DFT is turned on
   Fraction HF Exchange ScalHFX         ....  0.167000
   Scaling of DF-GGA-X  ScalDFX         ....  0.000000
   Scaling of DF-GGA-C  ScalDFC         ....  1.000000
   Scaling of DF-LDA-C  ScalLDAC        ....  1.000000
   Perturbative correction              ....  0.000000
 Long-range corrected/Screened/Range-Separated Hybrid DFT is turned on
   Amount of maximum screened exact exchange              ....  0.833000
   Range separation parameter mu (erf(mu*r12)/r12)        ....  0.300000
   NL short-range parameter             ....  6.000000
   NL long-range parameter              ....  0.010000
 RI-approximation to the Coulomb term is turned on
   Number of AuxJ basis functions       .... 759
   RIJ-COSX (HFX calculated with COS-X)).... on


General Settings:
 Integral files         IntName         .... ./output/citronellol/citronellol
 Hartree-Fock type      HFTyp           .... RHF
 Total Charge           Charge          ....    0
 Multiplicity           Mult            ....    1
 Number of Electrons    NEL             ....   66
 Basis Dimension        Dim             ....  243
 Nuclear Repulsion      ENuc            ....    341.1051501005 Eh

Convergence Acceleration:
 AO-DIIS                CNVDIIS         .... on
   Start iteration      DIISMaxIt       ....    12
   Startup error        DIISStart       ....  0.200000
   # of expansion vecs  DIISMaxEq       ....     5
   Bias factor          DIISBfac        ....   1.050
   Max. coefficient     DIISMaxC        ....  10.000
 MO-DIIS                CNVKDIIS        .... off
 Trust-Rad. Augm. Hess. CNVTRAH         .... auto
   Auto Start mean grad. ratio tolernc. ....  1.125000
   Auto Start start iteration           ....    50
   Auto Start num. interpolation iter.  ....    10
   Max. Number of Micro iterations      ....    24
   Max. Number of Macro iterations      .... Maxiter - #DIIS iter
   Number of Davidson start vectors     ....     2
   Converg. threshold    (grad. norm)   ....   1.000e-05
   Grad. Scal. Fac. for Micro threshold ....   0.100
   Minimum threshold for Micro iter.    ....   1.000e-02
   NR start threshold (gradient norm)   ....   1.000e-04
   Initial trust radius                 ....   0.400
   Minimum AH scaling param. (alpha)    ....   1.000
   Maximum AH scaling param. (alpha)    .... 1000.000
   Quad. conv. algorithm                .... NR
   White noise on init. David. guess    .... on
   Maximum white noise                  ....   0.010
   Pseudo random numbers                .... off
   Inactive MOs                         .... canonical
   Orbital update algorithm             .... Taylor
   Preconditioner                       .... Diag
   Full preconditioner red. dimension   ....   250
 SOSCF                  CNVSOSCF        .... on
   Start iteration      SOSCFMaxIt      ....   150
   Startup grad/error   SOSCFStart      ....  0.003300
   Hessian update       SOSCFHessUp     .... L-BFGS
 Level Shifting         CNVShift        .... on
   Level shift para.    LevelShift      ....    0.2500
   Turn off err/grad.   ShiftErr        ....    0.0010
 Zerner damping         CNVZerner       .... off
 Static damping         CNVDamp         .... on
   Fraction old density DampFac         ....    0.7000
   Max. Damping (<1)    DampMax         ....    0.9800
   Min. Damping (>=0)   DampMin         ....    0.0000
   Turn off err/grad.   DampErr         ....    0.1000

SCF Procedure:
 Maximum # iterations   MaxIter         ....   125
 SCF integral mode      SCFMode         .... Direct
   Integral package                     .... SHARK and LIBINT hybrid scheme
 Reset frequency        DirectResetFreq ....    20
 Integral Threshold     Thresh          ....  2.500e-11 Eh
 Primitive CutOff       TCut            ....  2.500e-12 Eh

Convergence Tolerance:
 Convergence Check Mode ConvCheckMode   .... Total+1el-Energy
 Convergence forced     ConvForced      .... 0
 Energy Change          TolE            ....  1.000e-08 Eh
 1-El. energy change                    ....  1.000e-05 Eh
 Orbital Gradient       TolG            ....  1.000e-05
 Orbital Rotation angle TolX            ....  1.000e-05
 DIIS Error             TolErr          ....  5.000e-07

------------------------------
INITIAL GUESS: MODEL POTENTIAL
------------------------------
Loading Hartree-Fock densities                     ... done
Atomic calculation to generate a density for atom 0 (C  with ECP)
  Multiplicity assumed   :    1
  Atomic configuration   : 1s2 2s2 2p2 
  Number of open shells  : 1
  Command: /home/aspe232/Project/Software/ORCA/6_0_1/build/orca ./output/citronellol/citronellol_atom6.inp "" > ./output/citronellol/citronellol_atom6.out
Returned from the atomic calculation with res=0
Atomic calculation to generate a density for atom 10 (O  with ECP)
  Multiplicity assumed   :    3
  Atomic configuration   : 1s2 2s2 2p4 
  Number of open shells  : 1
  Command: /home/aspe232/Project/Software/ORCA/6_0_1/build/orca ./output/citronellol/citronellol_atom8.inp "" > ./output/citronellol/citronellol_atom8.out
Returned from the atomic calculation with res=0
Calculating cut-offs                               ... done
Initializing the effective Hamiltonian             ... done
Setting up the integral package (SHARK)            ... done
Starting the Coulomb interaction                   ... done (   0.1 sec)
Making the grid                                    ... done (   0.9 sec)
Mapping shells                                     ... done
Starting the XC term evaluation                    ... done (   0.0 sec)
  promolecular density results
     # of electrons  =     87.993463443
     EX              =    -43.119949046
     EC              =     -3.501490705
     EX+EC           =    -46.621439751
Transforming the Hamiltonian                       ... done (   0.0 sec)
Diagonalizing the Hamiltonian                      ... done (   0.0 sec)
Back transforming the eigenvectors                 ... done (   0.0 sec)
Now organizing SCF variables                       ... done
                      ------------------
                      INITIAL GUESS DONE (   2.5 sec)
                      ------------------
             **** ENERGY FILE WAS UPDATED (./output/citronellol/citronellol.en.tmp) ****
Finished Guess after   3.1 sec
Maximum memory used throughout the entire GUESS-calculation: 23.8 MB


           ************************************************************
           *        Program running with 40 parallel MPI-processes    *
           *              working on a common directory               *
           ************************************************************

-------------------------------------------------------------------------------------------
                                      ORCA LEAN-SCF
                              memory conserving SCF solver
-------------------------------------------------------------------------------------------

----------------------------------------D-I-I-S--------------------------------------------
Iteration    Energy (Eh)           Delta-E    RMSDP     MaxDP     DIISErr   Damp  Time(sec)
-------------------------------------------------------------------------------------------
               ***  Starting incremental Fock matrix formation  ***
    1    -84.5279212306680847     0.00e+00  3.66e-03  7.99e-02  2.04e-01  0.700   5.7
    2    -84.7410573707386447    -2.13e-01  2.65e-03  5.38e-02  1.16e-01  0.700   4.1
                               ***Turning on AO-DIIS***
    3    -84.8524674134287693    -1.11e-01  1.30e-03  2.77e-02  5.99e-02  0.700   3.4
    4    -84.9179065198704848    -6.54e-02  2.72e-03  5.46e-02  4.02e-02  0.000   3.7
    5    -85.0549587766359991    -1.37e-01  2.20e-04  5.34e-03  3.94e-03  0.000   3.9
    6    -85.0552627102100587    -3.04e-04  1.01e-04  6.00e-03  4.13e-03  0.000   3.6
                              *** Initializing SOSCF ***
---------------------------------------S-O-S-C-F--------------------------------------
Iteration    Energy (Eh)           Delta-E    RMSDP     MaxDP     MaxGrad    Time(sec)
--------------------------------------------------------------------------------------
    7    -85.0553153151234937    -5.26e-05  4.94e-05  1.63e-03  1.80e-03     3.8
               *** Restarting incremental Fock matrix formation ***
    8    -85.0553520548795632    -3.67e-05  2.32e-05  5.04e-04  1.38e-04     5.7
    9    -85.0553534986303816    -1.44e-06  1.27e-05  3.05e-04  5.83e-05     4.4
   10    -85.0553536865551791    -1.88e-07  3.54e-06  6.65e-05  1.70e-05     4.4
   11    -85.0553537203948622    -3.38e-08  8.28e-07  2.58e-05  7.65e-06     4.1
   12    -85.0553537108240789     9.57e-09  2.85e-07  1.11e-05  2.78e-06     3.7
                 **** Energy Check signals convergence ****

               *****************************************************
               *                     SUCCESS                       *
               *           SCF CONVERGED AFTER  12 CYCLES          *
               *****************************************************

Recomputing exchange energy using gridx3       ... done (    4.396 sec)
Old exchange energy                            :    -12.651703038 Eh
New exchange energy                            :    -12.651692435 Eh
Exchange energy change after final integration :      0.000010603 Eh
Total energy after final integration           :    -85.055343107 Eh
             **** ENERGY FILE WAS UPDATED (./output/citronellol/citronellol.en.tmp) ****

----------------
TOTAL SCF ENERGY
----------------

Total Energy       :        -85.05534310747106 Eh           -2314.47355 eV

Components:
Nuclear Repulsion  :        341.10515010046345 Eh            9281.94302 eV
Electronic Energy  :       -426.16050381128753 Eh          -11596.41686 eV
One Electron Energy:       -803.35168138298809 Eh          -21860.31061 eV
Two Electron Energy:        377.19117757170056 Eh           10263.89375 eV

Virial components:
Potential Energy   :       -151.90395151971205 Eh           -4133.51666 eV
Kinetic Energy     :         66.84860841224098 Eh            1819.04311 eV
Virial Ratio       :          2.27235772183847

DFT components:
N(Alpha)           :       33.000046869561 electrons
N(Beta)            :       33.000046869561 electrons
N(Total)           :       66.000093739122 electrons
E(X)               :      -13.289116254866 Eh       
E(C)               :       -2.454068002669 Eh       
E(XC)              :      -15.743184257534 Eh       

---------------
SCF CONVERGENCE
---------------

  Last Energy change         ...   -9.5708e-09  Tolerance :   1.0000e-08
  Last MAX-Density change    ...    1.1110e-05  Tolerance :   1.0000e-07
  Last RMS-Density change    ...    2.8457e-07  Tolerance :   5.0000e-09
  Last DIIS Error            ...    1.8028e-03  Tolerance :   5.0000e-07
  Last Orbital Gradient      ...    2.7796e-06  Tolerance :   1.0000e-05
  Last Orbital Rotation      ...    2.8737e-06  Tolerance :   1.0000e-05


----------------
ORBITAL ENERGIES
----------------

  NO   OCC          E(Eh)            E(eV) 
   0   2.0000      -1.144054       -31.1313 
   1   2.0000      -0.962851       -26.2005 
   2   2.0000      -0.943952       -25.6862 
   3   2.0000      -0.888682       -24.1823 
   4   2.0000      -0.842787       -22.9334 
   5   2.0000      -0.824933       -22.4476 
   6   2.0000      -0.804458       -21.8904 
   7   2.0000      -0.762222       -20.7411 
   8   2.0000      -0.719364       -19.5749 
   9   2.0000      -0.685579       -18.6556 
  10   2.0000      -0.634112       -17.2551 
  11   2.0000      -0.624848       -17.0030 
  12   2.0000      -0.589026       -16.0282 
  13   2.0000      -0.576380       -15.6841 
  14   2.0000      -0.565819       -15.3967 
  15   2.0000      -0.551895       -15.0178 
  16   2.0000      -0.546053       -14.8589 
  17   2.0000      -0.534982       -14.5576 
  18   2.0000      -0.521275       -14.1846 
  19   2.0000      -0.512003       -13.9323 
  20   2.0000      -0.502216       -13.6660 
  21   2.0000      -0.492895       -13.4124 
  22   2.0000      -0.478892       -13.0313 
  23   2.0000      -0.470629       -12.8065 
  24   2.0000      -0.463682       -12.6174 
  25   2.0000      -0.459117       -12.4932 
  26   2.0000      -0.444220       -12.0878 
  27   2.0000      -0.433580       -11.7983 
  28   2.0000      -0.430620       -11.7178 
  29   2.0000      -0.422506       -11.4970 
  30   2.0000      -0.414298       -11.2736 
  31   2.0000      -0.373541       -10.1646 
  32   2.0000      -0.323092        -8.7918 
  33   0.0000       0.076568         2.0835 
  34   0.0000       0.083708         2.2778 
  35   0.0000       0.086786         2.3616 
  36   0.0000       0.093441         2.5427 
  37   0.0000       0.098598         2.6830 
  38   0.0000       0.107239         2.9181 
  39   0.0000       0.113183         3.0799 
  40   0.0000       0.126518         3.4427 
  41   0.0000       0.134875         3.6701 
  42   0.0000       0.140163         3.8140 
  43   0.0000       0.145082         3.9479 
*Only the first 10 virtual orbitals were printed.

                    ********************************
                    * MULLIKEN POPULATION ANALYSIS *
                    ********************************

-----------------------
MULLIKEN ATOMIC CHARGES
-----------------------
   0 C :   -0.063779
   1 C :   -0.118340
   2 C :   -0.070876
   3 C :   -0.086342
   4 C :   -0.001650
   5 C :   -0.091699
   6 C :   -0.095732
   7 C :   -0.097495
   8 C :   -0.054102
   9 C :    0.088754
  10 O :   -0.332661
  11 H :    0.034849
  12 H :    0.039848
  13 H :    0.030611
  14 H :    0.032693
  15 H :    0.041941
  16 H :    0.041754
  17 H :    0.044834
  18 H :    0.049142
  19 H :    0.004308
  20 H :    0.050846
  21 H :    0.034891
  22 H :    0.051819
  23 H :    0.054988
  24 H :    0.032946
  25 H :    0.054880
  26 H :    0.049076
  27 H :    0.022421
  28 H :    0.030430
  29 H :    0.050941
  30 H :    0.170703
Sum of atomic charges:   -0.0000000

--------------------------------
MULLIKEN REDUCED ORBITAL CHARGES
--------------------------------
  0 C s       :     0.960311  s :     0.960311
      pz      :     0.996502  p :     3.030096
      px      :     1.037861
      py      :     0.995733
      dz2     :     0.008371  d :     0.073372
      dxz     :     0.025009
      dyz     :     0.014812
      dx2y2   :     0.020523
      dxy     :     0.004657

  1 C s       :     1.058142  s :     1.058142
      pz      :     0.965119  p :     2.937687
      px      :     0.966092
      py      :     1.006476
      dz2     :     0.019341  d :     0.122510
      dxz     :     0.030197
      dyz     :     0.028115
      dx2y2   :     0.029757
      dxy     :     0.015100

  2 C s       :     1.009674  s :     1.009674
      pz      :     0.993583  p :     2.962018
      px      :     0.923011
      py      :     1.045424
      dz2     :     0.014502  d :     0.099184
      dxz     :     0.021695
      dyz     :     0.023514
      dx2y2   :     0.027417
      dxy     :     0.012056

  3 C s       :     1.002193  s :     1.002193
      pz      :     1.000882  p :     2.983834
      px      :     0.946011
      py      :     1.036940
      dz2     :     0.012639  d :     0.100315
      dxz     :     0.022723
      dyz     :     0.025317
      dx2y2   :     0.024848
      dxy     :     0.014789

  4 C s       :     1.024457  s :     1.024457
      pz      :     0.957555  p :     2.886969
      px      :     0.919809
      py      :     1.009606
      dz2     :     0.024486  d :     0.090224
      dxz     :     0.025075
      dyz     :     0.006335
      dx2y2   :     0.013657
      dxy     :     0.020671

  5 C s       :     1.108439  s :     1.108439
      pz      :     0.927851  p :     2.865141
      px      :     0.974929
      py      :     0.962361
      dz2     :     0.027778  d :     0.118118
      dxz     :     0.036555
      dyz     :     0.016467
      dx2y2   :     0.014359
      dxy     :     0.022958

  6 C s       :     0.957450  s :     0.957450
      pz      :     0.972493  p :     3.064938
      px      :     1.049465
      py      :     1.042981
      dz2     :     0.017951  d :     0.073343
      dxz     :     0.012666
      dyz     :     0.019818
      dx2y2   :     0.014356
      dxy     :     0.008552

  7 C s       :     0.959574  s :     0.959574
      pz      :     1.013683  p :     3.063968
      px      :     0.998280
      py      :     1.052006
      dz2     :     0.009250  d :     0.073953
      dxz     :     0.017322
      dyz     :     0.018619
      dx2y2   :     0.020269
      dxy     :     0.008494

  8 C s       :     1.011023  s :     1.011023
      pz      :     0.983493  p :     2.948515
      px      :     0.919983
      py      :     1.045039
      dz2     :     0.012736  d :     0.094564
      dxz     :     0.021304
      dyz     :     0.023210
      dx2y2   :     0.022718
      dxy     :     0.014596

  9 C s       :     1.023842  s :     1.023842
      pz      :     0.875977  p :     2.737876
      px      :     0.815813
      py      :     1.046086
      dz2     :     0.026277  d :     0.149528
      dxz     :     0.033345
      dyz     :     0.034472
      dx2y2   :     0.030482
      dxy     :     0.024951

 10 O s       :     1.664296  s :     1.664296
      pz      :     1.508790  p :     4.636391
      px      :     1.608864
      py      :     1.518737
      dz2     :     0.003909  d :     0.031974
      dxz     :     0.008856
      dyz     :     0.005869
      dx2y2   :     0.008228
      dxy     :     0.005112

 11 H s       :     0.920543  s :     0.920543
      pz      :     0.016124  p :     0.044608
      px      :     0.018430
      py      :     0.010054

 12 H s       :     0.917393  s :     0.917393
      pz      :     0.011216  p :     0.042760
      px      :     0.010082
      py      :     0.021462

 13 H s       :     0.924857  s :     0.924857
      pz      :     0.014732  p :     0.044533
      px      :     0.019187
      py      :     0.010614

 14 H s       :     0.927848  s :     0.927848
      pz      :     0.011746  p :     0.039458
      px      :     0.008285
      py      :     0.019428

 15 H s       :     0.917281  s :     0.917281
      pz      :     0.010561  p :     0.040777
      px      :     0.008706
      py      :     0.021509

 16 H s       :     0.916603  s :     0.916603
      pz      :     0.017848  p :     0.041643
      px      :     0.009389
      py      :     0.014406

 17 H s       :     0.913008  s :     0.913008
      pz      :     0.011582  p :     0.042158
      px      :     0.009641
      py      :     0.020934

 18 H s       :     0.907739  s :     0.907739
      pz      :     0.016338  p :     0.043119
      px      :     0.010677
      py      :     0.016104

 19 H s       :     0.946029  s :     0.946029
      pz      :     0.024587  p :     0.049663
      px      :     0.009841
      py      :     0.015235

 20 H s       :     0.904625  s :     0.904625
      pz      :     0.011291  p :     0.044529
      px      :     0.012791
      py      :     0.020447

 21 H s       :     0.920862  s :     0.920862
      pz      :     0.010707  p :     0.044247
      px      :     0.023029
      py      :     0.010511

 22 H s       :     0.903677  s :     0.903677
      pz      :     0.015232  p :     0.044503
      px      :     0.011916
      py      :     0.017355

 23 H s       :     0.901007  s :     0.901007
      pz      :     0.017689  p :     0.044004
      px      :     0.010089
      py      :     0.016227

 24 H s       :     0.922924  s :     0.922924
      pz      :     0.012470  p :     0.044130
      px      :     0.020885
      py      :     0.010775

 25 H s       :     0.901111  s :     0.901111
      pz      :     0.012497  p :     0.044010
      px      :     0.010025
      py      :     0.021488

 26 H s       :     0.910051  s :     0.910051
      pz      :     0.010671  p :     0.040873
      px      :     0.009638
      py      :     0.020564

 27 H s       :     0.935444  s :     0.935444
      pz      :     0.017789  p :     0.042135
      px      :     0.010424
      py      :     0.013923

 28 H s       :     0.929614  s :     0.929614
      pz      :     0.011241  p :     0.039955
      px      :     0.009237
      py      :     0.019477

 29 H s       :     0.909304  s :     0.909304
      pz      :     0.014172  p :     0.039756
      px      :     0.009882
      py      :     0.015702

 30 H s       :     0.730859  s :     0.730859
      pz      :     0.031616  p :     0.098438
      px      :     0.028043
      py      :     0.038779



                     *******************************
                     * LOEWDIN POPULATION ANALYSIS *
                     *******************************

----------------------
LOEWDIN ATOMIC CHARGES
----------------------
   0 C :   -0.113875
   1 C :   -0.077042
   2 C :   -0.081485
   3 C :   -0.092687
   4 C :   -0.056815
   5 C :   -0.055418
   6 C :   -0.116775
   7 C :   -0.121372
   8 C :   -0.084506
   9 C :   -0.059969
  10 O :   -0.096081
  11 H :    0.044517
  12 H :    0.047195
  13 H :    0.043546
  14 H :    0.043270
  15 H :    0.047580
  16 H :    0.047055
  17 H :    0.048436
  18 H :    0.045501
  19 H :    0.035227
  20 H :    0.053078
  21 H :    0.049714
  22 H :    0.053240
  23 H :    0.054111
  24 H :    0.047224
  25 H :    0.054225
  26 H :    0.050562
  27 H :    0.042977
  28 H :    0.039453
  29 H :    0.051550
  30 H :    0.057562

-------------------------------
LOEWDIN REDUCED ORBITAL CHARGES
-------------------------------
  0 C s       :     0.778624  s :     0.778624
      pz      :     1.018088  p :     3.093486
      px      :     1.058012
      py      :     1.017387
      dz2     :     0.029725  d :     0.241765
      dxz     :     0.082854
      dyz     :     0.047509
      dx2y2   :     0.066411
      dxy     :     0.015265

  1 C s       :     0.760757  s :     0.760757
      pz      :     0.967923  p :     2.937193
      px      :     0.953757
      py      :     1.015513
      dz2     :     0.060875  d :     0.379091
      dxz     :     0.090746
      dyz     :     0.085995
      dx2y2   :     0.092447
      dxy     :     0.049029

  2 C s       :     0.766745  s :     0.766745
      pz      :     1.001819  p :     2.997883
      px      :     0.943101
      py      :     1.052963
      dz2     :     0.047377  d :     0.316858
      dxz     :     0.066116
      dyz     :     0.076917
      dx2y2   :     0.086812
      dxy     :     0.039636

  3 C s       :     0.761232  s :     0.761232
      pz      :     1.010506  p :     3.013533
      px      :     0.949571
      py      :     1.053456
      dz2     :     0.042361  d :     0.317922
      dxz     :     0.068570
      dyz     :     0.083478
      dx2y2   :     0.079852
      dxy     :     0.043661

  4 C s       :     0.806032  s :     0.806032
      pz      :     1.020527  p :     2.954415
      px      :     1.006381
      py      :     0.927507
      dz2     :     0.081835  d :     0.296368
      dxz     :     0.082623
      dyz     :     0.020268
      dx2y2   :     0.052865
      dxy     :     0.058777

  5 C s       :     0.801468  s :     0.801468
      pz      :     0.969097  p :     2.878449
      px      :     1.029686
      py      :     0.879665
      dz2     :     0.088537  d :     0.375502
      dxz     :     0.117120
      dyz     :     0.053362
      dx2y2   :     0.051832
      dxy     :     0.064650

  6 C s       :     0.777541  s :     0.777541
      pz      :     0.984788  p :     3.103630
      px      :     1.058598
      py      :     1.060244
      dz2     :     0.056892  d :     0.235604
      dxz     :     0.042012
      dyz     :     0.062396
      dx2y2   :     0.047193
      dxy     :     0.027111

  7 C s       :     0.778397  s :     0.778397
      pz      :     1.029333  p :     3.104648
      px      :     1.008165
      py      :     1.067150
      dz2     :     0.031584  d :     0.238327
      dxz     :     0.053663
      dyz     :     0.061517
      dx2y2   :     0.068105
      dxy     :     0.023458

  8 C s       :     0.773811  s :     0.773811
      pz      :     0.999339  p :     3.002724
      px      :     0.953560
      py      :     1.049825
      dz2     :     0.042502  d :     0.307971
      dxz     :     0.067083
      dyz     :     0.075979
      dx2y2   :     0.074197
      dxy     :     0.048209

  9 C s       :     0.764428  s :     0.764428
      pz      :     0.913456  p :     2.853299
      px      :     0.883503
      py      :     1.056340
      dz2     :     0.068814  d :     0.442241
      dxz     :     0.105726
      dyz     :     0.105504
      dx2y2   :     0.092721
      dxy     :     0.069476

 10 O s       :     1.390149  s :     1.390149
      pz      :     1.494906  p :     4.627521
      px      :     1.595189
      py      :     1.537426
      dz2     :     0.011577  d :     0.078410
      dxz     :     0.018558
      dyz     :     0.019608
      dx2y2   :     0.018567
      dxy     :     0.010100

 11 H s       :     0.805514  s :     0.805514
      pz      :     0.051053  p :     0.149969
      px      :     0.058920
      py      :     0.039996

 12 H s       :     0.807930  s :     0.807930
      pz      :     0.041672  p :     0.144875
      px      :     0.040517
      py      :     0.062687

 13 H s       :     0.806767  s :     0.806767
      pz      :     0.048399  p :     0.149687
      px      :     0.060317
      py      :     0.040971

 14 H s       :     0.808359  s :     0.808359
      pz      :     0.045525  p :     0.148372
      px      :     0.037708
      py      :     0.065139

 15 H s       :     0.807764  s :     0.807764
      pz      :     0.043252  p :     0.144656
      px      :     0.036172
      py      :     0.065232

 16 H s       :     0.806882  s :     0.806882
      pz      :     0.059988  p :     0.146063
      px      :     0.036429
      py      :     0.049646

 17 H s       :     0.804005  s :     0.804005
      pz      :     0.046471  p :     0.147558
      px      :     0.037670
      py      :     0.063418

 18 H s       :     0.803361  s :     0.803361
      pz      :     0.058465  p :     0.151138
      px      :     0.040513
      py      :     0.052160

 19 H s       :     0.810526  s :     0.810526
      pz      :     0.070897  p :     0.154247
      px      :     0.033394
      py      :     0.049955

 20 H s       :     0.798932  s :     0.798932
      pz      :     0.042084  p :     0.147989
      px      :     0.046238
      py      :     0.059667

 21 H s       :     0.805016  s :     0.805016
      pz      :     0.038077  p :     0.145270
      px      :     0.065798
      py      :     0.041395

 22 H s       :     0.798784  s :     0.798784
      pz      :     0.049860  p :     0.147976
      px      :     0.044463
      py      :     0.053653

 23 H s       :     0.798909  s :     0.798909
      pz      :     0.056015  p :     0.146980
      px      :     0.039240
      py      :     0.051724

 24 H s       :     0.807345  s :     0.807345
      pz      :     0.043703  p :     0.145431
      px      :     0.059407
      py      :     0.042322

 25 H s       :     0.798808  s :     0.798808
      pz      :     0.045779  p :     0.146967
      px      :     0.039129
      py      :     0.062058

 26 H s       :     0.805257  s :     0.805257
      pz      :     0.043193  p :     0.144182
      px      :     0.037295
      py      :     0.063693

 27 H s       :     0.810204  s :     0.810204
      pz      :     0.059900  p :     0.146818
      px      :     0.038282
      py      :     0.048636

 28 H s       :     0.823330  s :     0.823330
      pz      :     0.042533  p :     0.137217
      px      :     0.033264
      py      :     0.061420

 29 H s       :     0.811291  s :     0.811291
      pz      :     0.049115  p :     0.137159
      px      :     0.035737
      py      :     0.052307

 30 H s       :     0.636023  s :     0.636023
      pz      :     0.090318  p :     0.306414
      px      :     0.086421
      py      :     0.129675



                      *****************************
                      * MAYER POPULATION ANALYSIS *
                      *****************************

  NA   - Mulliken gross atomic population
  ZA   - Total nuclear charge
  QA   - Mulliken gross atomic charge
  VA   - Mayer's total valence
  BVA  - Mayer's bonded valence
  FA   - Mayer's free valence

  ATOM       NA         ZA         QA         VA         BVA        FA
  0 C      4.0638     4.0000    -0.0638     3.9454     3.9454     0.0000
  1 C      4.1183     4.0000    -0.1183     4.0247     4.0247     0.0000
  2 C      4.0709     4.0000    -0.0709     3.9840     3.9840    -0.0000
  3 C      4.0863     4.0000    -0.0863     4.0023     4.0023    -0.0000
  4 C      4.0017     4.0000    -0.0017     3.9781     3.9781    -0.0000
  5 C      4.0917     4.0000    -0.0917     4.0670     4.0670    -0.0000
  6 C      4.0957     4.0000    -0.0957     3.9864     3.9864     0.0000
  7 C      4.0975     4.0000    -0.0975     3.9723     3.9723     0.0000
  8 C      4.0541     4.0000    -0.0541     3.9559     3.9559     0.0000
  9 C      3.9112     4.0000     0.0888     3.9584     3.9584    -0.0000
 10 O      6.3327     6.0000    -0.3327     2.0114     2.0114    -0.0000
 11 H      0.9652     1.0000     0.0348     1.0284     1.0284    -0.0000
 12 H      0.9602     1.0000     0.0398     1.0285     1.0285    -0.0000
 13 H      0.9694     1.0000     0.0306     1.0317     1.0317     0.0000
 14 H      0.9673     1.0000     0.0327     1.0119     1.0119     0.0000
 15 H      0.9581     1.0000     0.0419     1.0130     1.0130    -0.0000
 16 H      0.9582     1.0000     0.0418     1.0031     1.0031    -0.0000
 17 H      0.9552     1.0000     0.0448     1.0028     1.0028     0.0000
 18 H      0.9509     1.0000     0.0491     0.9961     0.9961     0.0000
 19 H      0.9957     1.0000     0.0043     1.0429     1.0429    -0.0000
 20 H      0.9492     1.0000     0.0508     1.0221     1.0221    -0.0000
 21 H      0.9651     1.0000     0.0349     1.0302     1.0302     0.0000
 22 H      0.9482     1.0000     0.0518     1.0217     1.0217     0.0000
 23 H      0.9450     1.0000     0.0550     1.0217     1.0217     0.0000
 24 H      0.9671     1.0000     0.0329     1.0304     1.0304     0.0000
 25 H      0.9451     1.0000     0.0549     1.0219     1.0219    -0.0000
 26 H      0.9509     1.0000     0.0491     1.0183     1.0183    -0.0000
 27 H      0.9776     1.0000     0.0224     1.0253     1.0253     0.0000
 28 H      0.9696     1.0000     0.0304     1.0166     1.0166    -0.0000
 29 H      0.9491     1.0000     0.0509     1.0122     1.0122    -0.0000
 30 H      0.8293     1.0000     0.1707     1.0787     1.0787    -0.0000

[...]
 43:   1147.44   0.008397   42.43  0.002284  ( 0.029413  0.027388  0.025853)
 44:   1170.45   0.001742    8.80  0.000464  ( 0.021205 -0.003155 -0.002179)
 45:   1180.45   0.000212    1.07  0.000056  (-0.005538  0.001009 -0.004940)
 46:   1219.50   0.001507    7.62  0.000386  ( 0.018426  0.004960 -0.004647)
 47:   1250.49   0.001493    7.54  0.000372  (-0.012058 -0.006085 -0.013786)
 48:   1284.10   0.001323    6.68  0.000321  ( 0.017657  0.001622  0.002658)
 49:   1296.97   0.000394    1.99  0.000095  ( 0.008727  0.001806  0.003911)
 50:   1331.04   0.000807    4.08  0.000189  (-0.009242 -0.002404 -0.009899)
 51:   1350.31   0.000241    1.22  0.000056  (-0.003754 -0.005953 -0.002495)
 52:   1353.84   0.000684    3.46  0.000158  (-0.010639  0.002589 -0.006146)
 53:   1390.88   0.000104    0.53  0.000023  ( 0.002389  0.002603  0.003290)
 54:   1407.71   0.002637   13.33  0.000585  (-0.023586 -0.000806 -0.005257)
 55:   1415.15   0.000237    1.20  0.000052  (-0.002346  0.000602 -0.006817)
 56:   1419.42   0.000289    1.46  0.000063  (-0.004945 -0.004121 -0.004691)
 57:   1445.32   0.000339    1.71  0.000073  (-0.000394 -0.007518 -0.004055)
 58:   1450.60   0.000869    4.39  0.000187  ( 0.006432  0.005572 -0.010697)
 59:   1455.16   0.003240   16.37  0.000695  (-0.004138  0.022490  0.013113)
 60:   1459.25   0.003006   15.19  0.000643  (-0.004358  0.020668 -0.014027)
 61:   1468.75   0.006996   35.35  0.001486  (-0.032843 -0.011223 -0.016787)
 62:   1502.03   0.000136    0.69  0.000028  ( 0.004066  0.003058  0.001563)
 63:   1505.71   0.000197    0.99  0.000041  (-0.005632 -0.000600  0.002949)
 64:   1511.69   0.000491    2.48  0.000101  (-0.005476 -0.005164  0.006682)
 65:   1522.31   0.003898   19.70  0.000799  (-0.007934 -0.017869 -0.020417)
 66:   1522.56   0.000662    3.35  0.000136  (-0.008850 -0.001442 -0.007437)
 67:   1527.31   0.001290    6.52  0.000264  (-0.004563  0.012572 -0.009200)
 68:   1528.50   0.000484    2.45  0.000099  (-0.009182 -0.001880 -0.003314)
 69:   1536.38   0.001290    6.52  0.000262  (-0.012209  0.000530  0.010615)
 70:   1541.98   0.003483   17.60  0.000705  (-0.003560  0.000383  0.026309)
 71:   1547.60   0.000753    3.80  0.000152  ( 0.004872  0.000278 -0.011313)
 72:   1809.25   0.000606    3.06  0.000105  ( 0.007910 -0.006098  0.002181)
 73:   3061.26   0.001402    7.08  0.000143  (-0.001414  0.010079 -0.006271)
 74:   3070.73   0.010357   52.34  0.001053  ( 0.002347 -0.008586  0.031198)
 75:   3076.03   0.001604    8.11  0.000163  (-0.001698  0.012100  0.003668)
 76:   3081.32   0.010463   52.88  0.001060  (-0.000071  0.006252  0.031946)
 77:   3093.54   0.006795   34.34  0.000685  (-0.022044 -0.003150  0.013769)
 78:   3099.32   0.007218   36.48  0.000727  (-0.020265  0.017572 -0.002704)
 79:   3100.43   0.005094   25.75  0.000513  (-0.010382  0.020100 -0.000980)
 80:   3110.67   0.005325   26.91  0.000534  (-0.003376  0.007532  0.021590)
 81:   3131.21   0.001189    6.01  0.000118  ( 0.001864 -0.005745 -0.009055)
 82:   3137.30   0.006208   31.37  0.000618  (-0.006143  0.023163 -0.006580)
 83:   3167.22   0.003513   17.75  0.000346  ( 0.007114 -0.014298  0.009544)
 84:   3168.25   0.000180    0.91  0.000018  (-0.002373  0.002146 -0.002734)
 85:   3169.32   0.004494   22.71  0.000442  ( 0.006927  0.014200  0.013887)
 86:   3184.26   0.004724   23.87  0.000463  ( 0.001435 -0.019074  0.009851)
 87:   3191.37   0.004695   23.73  0.000459  ( 0.003906 -0.008919 -0.019088)
 88:   3194.71   0.003155   15.94  0.000308  ( 0.002951  0.014545 -0.009375)
 89:   3203.44   0.004354   22.00  0.000424  (-0.020517 -0.001534 -0.000912)
 90:   3207.01   0.004152   20.98  0.000404  (-0.003173  0.016420 -0.011151)
 91:   3228.15   0.003255   16.45  0.000315  (-0.013715 -0.004576  0.010276)
 92:   3961.95   0.008431   42.61  0.000664  (-0.001346  0.022683  0.012155)

* The epsilon (eps) is given for a Dirac delta lineshape.
** The dipole moment derivative (T) already includes vibrational overlap.

The first frequency considered to be a vibration is 6
The total number of vibrations considered is 87


--------------------------
THERMOCHEMISTRY AT 298.15K
--------------------------

Temperature         ...   298.15 K
Pressure            ...     1.00 atm
Total Mass          ...   156.27 AMU
Quasi RRHO          ...     True
Cut-Off Frequency   ...     1.00 cm^-1

Throughout the following assumptions are being made:
  (1) The electronic state is orbitally nondegenerate
  (2) There are no thermally accessible electronically excited states
  (3) Hindered rotations indicated by low frequency modes are not
      treated as such but are treated as vibrations and this may
      cause some error
  (4) All equations used are the standard statistical mechanics
      equations for an ideal gas
  (5) All vibrations are strictly harmonic

freq.      17.99  E(vib)   ...       0.57 
freq.      35.49  E(vib)   ...       0.54 
freq.      65.25  E(vib)   ...       0.50 
freq.      74.30  E(vib)   ...       0.49 
freq.      78.55  E(vib)   ...       0.49 
freq.     120.97  E(vib)   ...       0.44 
freq.     128.64  E(vib)   ...       0.43 
freq.     158.86  E(vib)   ...       0.39 
freq.     201.78  E(vib)   ...       0.35 
freq.     239.86  E(vib)   ...       0.31 
freq.     250.64  E(vib)   ...       0.30 
freq.     275.39  E(vib)   ...       0.28 
freq.     302.13  E(vib)   ...       0.26 
freq.     310.89  E(vib)   ...       0.26 
freq.     360.00  E(vib)   ...       0.22 
freq.     403.71  E(vib)   ...       0.19 
freq.     411.70  E(vib)   ...       0.19 
freq.     457.64  E(vib)   ...       0.16 
freq.     509.03  E(vib)   ...       0.14 
freq.     520.60  E(vib)   ...       0.13 
freq.     584.58  E(vib)   ...       0.11 
freq.     765.72  E(vib)   ...       0.06 
freq.     798.77  E(vib)   ...       0.05 
freq.     833.47  E(vib)   ...       0.04 
freq.     872.39  E(vib)   ...       0.04 
freq.     905.36  E(vib)   ...       0.03 
freq.     970.27  E(vib)   ...       0.03 
freq.     978.16  E(vib)   ...       0.03 
freq.     985.90  E(vib)   ...       0.02 
freq.    1017.39  E(vib)   ...       0.02 
freq.    1034.28  E(vib)   ...       0.02 
freq.    1052.38  E(vib)   ...       0.02 
freq.    1061.92  E(vib)   ...       0.02 
freq.    1097.18  E(vib)   ...       0.02 
freq.    1128.70  E(vib)   ...       0.01 
freq.    1132.83  E(vib)   ...       0.01 
freq.    1136.52  E(vib)   ...       0.01 
freq.    1147.44  E(vib)   ...       0.01 
freq.    1170.45  E(vib)   ...       0.01 
freq.    1180.45  E(vib)   ...       0.01 
freq.    1219.50  E(vib)   ...       0.01 
freq.    1250.49  E(vib)   ...       0.01 
freq.    1284.10  E(vib)   ...       0.01 
freq.    1296.97  E(vib)   ...       0.01 
freq.    1331.04  E(vib)   ...       0.01 
freq.    1350.31  E(vib)   ...       0.01 
freq.    1353.84  E(vib)   ...       0.01 
freq.    1390.88  E(vib)   ...       0.00 
freq.    1407.71  E(vib)   ...       0.00 
freq.    1415.15  E(vib)   ...       0.00 
freq.    1419.42  E(vib)   ...       0.00 
freq.    1445.32  E(vib)   ...       0.00 
freq.    1450.60  E(vib)   ...       0.00 
freq.    1455.16  E(vib)   ...       0.00 
freq.    1459.25  E(vib)   ...       0.00 
freq.    1468.75  E(vib)   ...       0.00 
freq.    1502.03  E(vib)   ...       0.00 
freq.    1505.71  E(vib)   ...       0.00 
freq.    1511.69  E(vib)   ...       0.00 
freq.    1522.31  E(vib)   ...       0.00 
freq.    1522.56  E(vib)   ...       0.00 
freq.    1527.31  E(vib)   ...       0.00 
freq.    1528.50  E(vib)   ...       0.00 
freq.    1536.38  E(vib)   ...       0.00 
freq.    1541.98  E(vib)   ...       0.00 
freq.    1547.60  E(vib)   ...       0.00 
freq.    1809.25  E(vib)   ...       0.00 
freq.    3061.26  E(vib)   ...       0.00 
freq.    3070.73  E(vib)   ...       0.00 
freq.    3076.03  E(vib)   ...       0.00 
freq.    3081.32  E(vib)   ...       0.00 
freq.    3093.54  E(vib)   ...       0.00 
freq.    3099.32  E(vib)   ...       0.00 
freq.    3100.43  E(vib)   ...       0.00 
freq.    3110.67  E(vib)   ...       0.00 
freq.    3131.21  E(vib)   ...       0.00 
freq.    3137.30  E(vib)   ...       0.00 
freq.    3167.22  E(vib)   ...       0.00 
freq.    3168.25  E(vib)   ...       0.00 
freq.    3169.32  E(vib)   ...       0.00 
freq.    3184.26  E(vib)   ...       0.00 
freq.    3191.37  E(vib)   ...       0.00 
freq.    3194.71  E(vib)   ...       0.00 
freq.    3203.44  E(vib)   ...       0.00 
freq.    3207.01  E(vib)   ...       0.00 
freq.    3228.15  E(vib)   ...       0.00 
freq.    3961.95  E(vib)   ...       0.00 

------------
INNER ENERGY
------------

The inner energy is: U= E(el) + E(ZPE) + E(vib) + E(rot) + E(trans)
    E(el)   - is the total energy from the electronic structure calculation
              = E(kin-el) + E(nuc-el) + E(el-el) + E(nuc-nuc)
    E(ZPE)  - the the zero temperature vibrational energy from the frequency calculation
    E(vib)  - the the finite temperature correction to E(ZPE) due to population
              of excited vibrational states
    E(rot)  - is the rotational thermal energy
    E(trans)- is the translational thermal energy

Summary of contributions to the inner energy U:
Electronic energy                ...    -85.10275844 Eh
Zero point energy                ...      0.29039543 Eh     182.23 kcal/mol
Thermal vibrational correction   ...      0.01169588 Eh       7.34 kcal/mol
Thermal rotational correction    ...      0.00141627 Eh       0.89 kcal/mol
Thermal translational correction ...      0.00141627 Eh       0.89 kcal/mol
-----------------------------------------------------------------------
Total thermal energy                    -84.79783459 Eh


Summary of corrections to the electronic energy:
(perhaps to be used in another calculation)
Total thermal correction                  0.01452842 Eh       9.12 kcal/mol
Non-thermal (ZPE) correction              0.29039543 Eh     182.23 kcal/mol
-----------------------------------------------------------------------
Total correction                          0.30492385 Eh     191.34 kcal/mol


--------
ENTHALPY
--------

The enthalpy is H = U + kB*T
                kB is Boltzmann's constant
Total thermal energy              ...    -84.79783459 Eh 
Thermal Enthalpy correction       ...      0.00094421 Eh       0.59 kcal/mol
-----------------------------------------------------------------------
Total Enthalpy                    ...    -84.79689038 Eh


Note: Only C1 symmetry has been detected, increase convergence thresholds 
      if your molecule has a higher symmetry. Symmetry factor of 1.0 is   
      used for the rotational entropy correction. 
 

Note: Rotational entropy computed according to Herzberg 
Infrared and Raman Spectra, Chapter V,1, Van Nostrand Reinhold, 1945 
Point Group:  C1, Symmetry Number:   1  
Rotational constants in cm-1:     0.080958     0.010778     0.010303 

Vibrational entropy computed according to the QRRHO of S. Grimme
Chem.Eur.J. 2012 18 9955 using a reference frequency of 100.0 cm-1


-------
ENTROPY
-------

The entropy contributions are T*S = T*(S(el)+S(vib)+S(rot)+S(trans))
     S(el)   - electronic entropy
     S(vib)  - vibrational entropy
     S(rot)  - rotational entropy
     S(trans)- translational entropy
The entropies will be listed as multiplied by the temperature to get
units of energy

Electronic entropy                ...      0.00000000 Eh      0.00 kcal/mol
Vibrational entropy               ...      0.02128738 Eh     13.36 kcal/mol
Rotational entropy                ...      0.01499620 Eh      9.41 kcal/mol
Translational entropy             ...      0.01950348 Eh     12.24 kcal/mol
-----------------------------------------------------------------------
Final entropy term                ...      0.05578707 Eh     35.01 kcal/mol

In case the symmetry of your molecule has not been determined correctly
or in case you have a reason to use a different symmetry number we print 
out the resulting rotational entropy values for sn=1,12:

 non-linear molecules -----------------------------------
|  sn= 1 | S(rot)=       0.01499620 Eh      9.41 kcal/mol|
|  sn= 2 | S(rot)=       0.01434175 Eh      9.00 kcal/mol|
|  sn= 3 | S(rot)=       0.01395891 Eh      8.76 kcal/mol|
|  sn= 4 | S(rot)=       0.01368729 Eh      8.59 kcal/mol|
|  sn= 5 | S(rot)=       0.01347660 Eh      8.46 kcal/mol|
|  sn= 6 | S(rot)=       0.01330446 Eh      8.35 kcal/mol|
|  sn= 7 | S(rot)=       0.01315891 Eh      8.26 kcal/mol|
|  sn= 8 | S(rot)=       0.01303283 Eh      8.18 kcal/mol|
|  sn= 9 | S(rot)=       0.01292163 Eh      8.11 kcal/mol|
|  sn=10 | S(rot)=       0.01282215 Eh      8.05 kcal/mol|
|  sn=11 | S(rot)=       0.01273216 Eh      7.99 kcal/mol|
|  sn=12 | S(rot)=       0.01265000 Eh      7.94 kcal/mol|
 linear molecules ---------------------------------------
|  Dinfh | S(rot)=       0.00964570 Eh      6.05 kcal/mol|
|  Cinfv | S(rot)=       0.01030016 Eh      6.46 kcal/mol|
 --------------------------------------------------------


-------------------
GIBBS FREE ENERGY
-------------------

The Gibbs free energy is G = H - T*S

Total enthalpy                    ...    -84.79689038 Eh 
Total entropy correction          ...     -0.05578707 Eh    -35.01 kcal/mol
-----------------------------------------------------------------------
Final Gibbs free energy         ...    -84.85267745 Eh

For completeness - the Gibbs free energy minus the electronic energy
G-E(el)                           ...      0.25008099 Eh    156.93 kcal/mol


Maximum memory used throughout the entire PROP-calculation: 151.8 MB

--------------------------------
SUGGESTED CITATIONS FOR THIS RUN
--------------------------------

Below you find a list of papers that are relevant to this ORCA run
We neither can nor want to force you to cite these papers, but we appreciate if you do
You receive ORCA, which is the product of decades of hard work by many enthusiastic individuals, for free
The only thing we kindly ask in return is that you cite our papers,
We deeply appreciate it, if you show your appreciation for ORCA by not just citing the generic ORCA reference.

Please note that relegating all ORCA citations to the supporting information does *not* help us.
SI sections are not indexed - citations you put there will not count into any citation statistics
But we need these citations in order to attract the funding resources that allow us to do what we are doing

Therefore, if you are a happy ORCA user, please consider citing a few of the papers listed below in the main body of your paper

In addition to the list printed below, the program has created the file ./output/citronellol/citronellol.bibtex that contains the list in bibtex format
You can import this file easily into all common literature databanks and citation aid programs


List of essential papers. We consider these as the minimum necessary citations

  1. Neese,F.
     Software update: the ORCA program system, version 5.0
     WIRES Comput. Molec. Sci., 2022 12(1)e1606
     doi.org/10.1002/wcms.1606
  2. Mueller,M.; Hansen,A.; Grimme,S.
     wB97X-3c: A composite range-separated hybrid DFT method with a molecule-optimized polarized valence double-zeta basis set
     J. Chem. Phys., 2023 158 014103
     doi.org/10.1063/5.0133026

List of papers to cite with high priority. The work reported in these papers was absolutely
necessary for this run to complete.
Our perspective: the developers of density functionals and basis sets usually get cited in chemistry papers
Good! But without the algorithms to do something with them, the functionals or basis sets would not do anything.
Hence, in our opinion, the algorithm design and method developments papers are equally worthy of getting cited

  1. Neese,F.
     An improvement of the resolution of the identity approximation for the formation of the Coulomb matrix
     J. Comp. Chem., 2003 24(14)1740-1747
     doi.org/10.1002/jcc.10318
  2. Neese,F.; Wennmohs,F.; Hansen,A.; Becker,U.
     Efficient, approximate and parallel Hartree-Fock and hybrid DFT calculations. A 'chain-of-spheres' algorithm for the Hartree-Fock exchange
     Chem. Phys., 2009 356(1-3)98-109
     doi.org/10.1016/j.chemphys.2008.10.036
  3. Bykov,D.; Petrenko,T.; Izsak,R.; Kossmann,S.; Becker,U.; Valeev,E.; Neese,F.
     Efficient implementation of the analytic second derivatives of Hartree-Fock and hybrid DFT energies: a detailed analysis of different approximations
     Molec. Phys., 2015 113 1961-1977
     doi.org/10.1080/00268976.2015.1025114
  4. Helmich-Paris,B.; de Souza,B.; Neese,F.; Izsák,R.
     An improved chain of spheres for exchange algorithm
     J. Chem. Phys., 2021 155 104109
     doi.org/doi: 10.1063/5.0058766.
  5. Neese,F.
     The SHARK Integral Generation and Digestion System
     J. Comp. Chem., 2022  1-16
     doi.org/10.1002/jcc.26942
  6. Caldeweyher,E.; Bannwarth,C.; Grimme,S.
     Extension of the D3 dispersion coefficient model
     J. Chem. Phys., 2017 147 034112
     doi.org/10.1063/1.4993215
  7. Caldeweyher,E.; Ehlert,S.; Hansen,A.; Neugebauer,H.; Spicher,S.; Bannwarth,C.; Grimme,S.
     A generally applicable atomic-charge dependent London dispersion correction
     J. Chem. Phys., 2019 150 154122
     doi.org/10.1063/1.5090222
  8. Caldeweyher,E.; Mewes,J.; Ehlert,S.; Grimme,S.
     Extension and evaluation of the D4 London-dispersion model for periodic systems
     Phys. Chem. Chem. Phys., 2020 22(16)8499-8512
     doi.org/10.1039/D0CP00502A
  9. Wittmann,L.; Gordiy,I.; Friede,M.; Helmich-Paris,B.; Grimme,S.; Hansen,A.; Bursch,M.
     Extension of the D3 and D4 London Dispersion Corrections to the full Actinides Series
     Phys. Chem. Chem. Phys., 2024 26(32)21379-21394
     doi.org/https://doi.org/10.1039/D4CP01514B 

List of suggested additional citations. These are papers that are important in the 'surrounding' of 
of this run, or papers that preceded the highly important papers. If you like your results we are grateful for a citation.

  1. Izsak,R.; Neese,F.
     An overlap fitted chain of spheres exchange method
     J. Chem. Phys., 2011 135 144105
     doi.org/10.1063/1.3646921
  2. Izsak,R.; Hansen,A.; Neese,F.
     The resolution of identity and chain of spheres approximations for the LPNO-CCSD singles Fock term
     Molec. Phys., 2012 110 2413-2417
     doi.org/10.1080/00268976.2012.687466
  3. Neese,F.
     The ORCA program system
     WIRES Comput. Molec. Sci., 2012 2(1)73-78
     doi.org/10.1002/wcms.81
  4. Izsak,R.; Neese,F.; Klopper,W.
     Robust fitting techniques in the chain of spheres approximation to the Fock exchange: The role of the complementary space
     J. Chem. Phys., 2013 139 
     doi.org/10.1063/1.4819264
  5. Neese,F.
     Software update: the ORCA program system, version 4.0
     WIRES Comput. Molec. Sci., 2018 8(1)1-6
     doi.org/10.1002/wcms.1327
  6. Neese,F.; Wennmohs,F.; Becker,U.; Riplinger,C.
     The ORCA quantum chemistry program package
     J. Chem. Phys., 2020 152 Art. No. L224108
     doi.org/10.1063/5.0004608

List of optional additional citations

  1. Neese,F.
     Approximate second-order SCF convergence for spin unrestricted wavefunctions
     Chem. Phys. Lett., 2000 325(1-3)93-98
     doi.org/10.1016/s0009-2614(00)00662-x

Timings for individual modules:

Sum of individual times          ...     2774.363 sec (=  46.239 min)
Startup calculation              ...      168.561 sec (=   2.809 min)   6.1 %
SCF iterations                   ...     1989.418 sec (=  33.157 min)  71.7 %
Property integrals               ...       91.949 sec (=   1.532 min)   3.3 %
SCF Response                     ...       40.802 sec (=   0.680 min)   1.5 %
Property calculations            ...       90.922 sec (=   1.515 min)   3.3 %
SCF Gradient evaluation          ...      391.635 sec (=   6.527 min)  14.1 %
Geometry relaxation              ...        1.076 sec (=   0.018 min)   0.0 %
                             ****ORCA TERMINATED NORMALLY****
TOTAL RUN TIME: 0 days 0 hours 46 minutes 35 seconds 130 msec
