
                                 *****************
                                 * O   R   C   A *
                                 *****************

                                            #,                                       
                                            ###                                      
                                            ####                                     
                                            #####                                    
                                            ######                                   
                                           ########,                                 
                                     ,,################,,,,,                         
                               ,,#################################,,                 
                          ,,##########################################,,             
                       ,#########################################, ''#####,          
                    ,#############################################,,   '####,        
                  ,##################################################,,,,####,       
                ,###########''''           ''''###############################       
              ,#####''   ,,,,##########,,,,          '''####'''          '####       
            ,##' ,,,,###########################,,,                        '##       
           ' ,,###''''                  '''############,,,                           
         ,,##''                                '''############,,,,        ,,,,,,###''
      ,#''                                            '''#######################'''  
     '                                                          ''''####''''         
             ,#######,   #######,   ,#######,      ##                                
            ,#'     '#,  ##    ##  ,#'     '#,    #''#        ,####,   ,####,        
            ##       ##  ##   ,#'  ##            #'  '#       #'       #'  '#        
            ##       ##  #######   ##           ,######,      #####,   #    #        
            '#,     ,#'  ##    ##  '#,     ,#' ,#      #,     #,   #   #,  ,#        
             '#######'   ##     ##  '#######'  #'      '#     '####' # '####'        



                #########################################################
                #                        -***-                          #
                #          Department of theory and spectroscopy        #
                #                                                       #
                #                      Frank Neese                      #
                #                                                       #
                #     Directorship, Architecture, Infrastructure        #
                #                    SHARK, DRIVERS                     #
                #        Core code/Algorithms in most modules           #
                #                                                       #
                #        Max Planck Institute fuer Kohlenforschung      #
                #                Kaiser Wilhelm Platz 1                 #
                #                 D-45470 Muelheim/Ruhr                 #
                #                      Germany                          #
                #                                                       #
                #                  All rights reserved                  #
                #                        -***-                          #
                #########################################################


                         Program Version 6.0.1  -  RELEASE   -


 With contributions from (in alphabetic order):
[Max-Planck-Institut fuer Kohlenforschung]                               
  Daniel Aravena         : Magnetic Suceptibility                        
  Michael Atanasov       : Ab Initio Ligand Field Theory (pilot matlab implementation)
  Alexander A. Auer      : GIAO ZORA, VPT2 properties, NMR spectrum      
  Ute Becker             : All parallelization in ORCA, NUMFREQ, NUMCALC 
  Giovanni Bistoni       : ED, misc. LED, open-shell LED, HFLD           
  Martin Brehm           : Molecular dynamics                            
  Dmytro Bykov           : pre 5.0 version of the SCF Hessian            
  Marcos Casanova-Páez   : Triplet and SCS-CIS(D). UHF-(DLPNO)-IP/EA/STEOM-CCSD. UHF-CVS-IP/STEOM-CCSD   
  Vijay G. Chilkuri      : MRCI spin determinant printing, contributions to CSF-ICE 
  Pauline Colinet        : FMM embedding                                 
  Dipayan Datta          : RHF DLPNO-CCSD density                        
  Achintya Kumar Dutta   : EOM-CC, STEOM-CC                              
  Nicolas Foglia         : Exact transition moments, OPA infrastructure, MCD improvements    
  Dmitry Ganyushin       : Spin-Orbit,Spin-Spin,Magnetic field MRCI      
  Miquel Garcia-Rates    : C-PCM and meta-GGA Hessian, CCSD/C-PCM, Gaussian charge scheme 
  Tiago L. C. Gouveia    : GS-ROHF, GS-ROCIS                             
  Yang Guo               : DLPNO-NEVPT2, F12-NEVPT2, CIM, IAO-localization        
  Andreas Hansen         : Spin unrestricted coupled pair/coupled cluster methods 
  Ingolf Harden          : AUTO-CI MPn and infrastructure                
  Benjamin Helmich-Paris : MC-RPA, TRAH-(SCF,CASSCF), AVAS, COSX integrals, SCF dyn. polar. 
  Lee Huntington         : MR-EOM, pCC                                   
  Robert Izsak           : Overlap fitted RIJCOSX, COSX-SCS-MP3, EOM     
  Riya Kayal             : Wick's Theorem for AUTO-CI, AUTO-CI UHF-CCSDT 
  Emily Kempfer          : AUTO-CI, RHF CISDT and CCSDT                  
  Christian Kollmar      : KDIIS, OOCD, Brueckner-CCSD(T), CCSD density, CASPT2, CASPT2-K, improved NEVPT2 
  Axel Koslowski         : Symmetry handling                             
  Simone Kossmann        : meta-GGA functionals, TD-DFT gradient, OOMP2, (MP2 Hessian; deprecated post 5.0) 
  Lucas Lang             : DCDCAS                                        
  Marvin Lechner         : AUTO-CI (C++ implementation), FIC-MRCC        
  Spencer Leger          : CASSCF response                               
  Dagmar Lenk            : GEPOL surface, SMD, ORCA-2-JSON               
  Dimitrios Liakos       : Extrapolation schemes; Compound Job, initial MDCI parallelization 
  Dimitrios Manganas     : Further ROCIS development; embedding schemes. LFT, Crystal Embedding 
  Dimitrios Pantazis     : SARC Basis sets                               
  Anastasios Papadopoulos: AUTO-CI, single reference methods and gradients 
  Taras Petrenko         : pre 6.0 DFT Hessian and TD-DFT gradient, (ASA, deprecated), ECA, 1-Electron XAS/XES, NRVS 
  Peter Pinski           : DLPNO-MP2, DLPNO-MP2 Gradient                 
  Christoph Reimann      : Effective Core Potentials                     
  Marius Retegan         : Local ZFS, SOC                                
  Christoph Riplinger    : Optimizer, TS searches, QM/MM, DLPNO-CCSD(T), (RO)-DLPNO pert. Triples 
  Michael Roemelt        : Original ROCIS implementation                 
  Masaaki Saitow         : Open-shell DLPNO-CCSD energy and density      
  Barbara Sandhoefer     : DKH picture change effects                    
  Kantharuban Sivalingam : CASSCF convergence/infrastructure, NEVPT2 and variants, FIC-MRCI 
  Bernardo de Souza      : ESD, SOC TD-DFT                               
  Georgi L. Stoychev     : AutoAux, RI-MP2 NMR, DLPNO-MP2 response, X2C  
  Van Anh Tran           : RI-MP2 g-tensors                              
  Willem Van den Heuvel  : Paramagnetic NMR                              
  Zikuan Wang            : NOTCH, Electric field optimization            
  Frank Wennmohs         : Technical directorship and infrastructure     
  Hang Xu                : AUTO-CI-Response properties                   
                                                                         
[FACCTs GmbH]                                                            
  Markus Bursch, Miquel Garcia-Rates, Christoph Riplinger, Bernardo de Souza, Georgi L. Stoychev 
                                                                 
  APM, Basis sets (HGBS, AHGBS, def-TZVP (Ac-Lr), def2-XVPD (La-Lu)), CI-OPT, improved COSX, DLPNO-Multilevel,           
  DOCKER, DRACO, updates on ESD, GOAT, IRC, LR-CPCM, MBIS, meta-GGA TD-DFT gradient, ML-optimized integration grids, 
  MM, NACMEs, nearIR, NEB, NEB-TS, NL-DFT gradient (VV10), 2- and 3-layer-ONIOM, interface openCOSMO-RS, QMMM,   
  Crystal-QMMM, SF, symmetry and pop. for TD-DFT, r2SCAN hybrids, SOLVATOR                                   
                                                                         
[Other institutions]                                                     
  V. Asgeirsson          : NEB                                           
  Christoph Bannwarth    : sTDA-DFT, sTD-DFT, PBEh-3c, B97-3c, D3        
  Sebastian Ehlert       : rSCAN, r2SCAN, r2SCAN-3c, D4, dhf basis sets  
  Marvin Friede          : D4 for Fr, Ra, Ac-Lr                          
  Lars Goerigk           : TD-DFT with DH, B97 family of functionals     
  Stefan Grimme          : VdW corrections, initial TS optimization, DFT functionals, gCP, sTDA/sTD-DF 
  Waldemar Hujo          : DFT-NL                                        
  H. Jonsson             : NEB                                           
  Holger Kruse           : gCP                                           
  Marcel Mueller         : wB97X-3c, vDZP basis set                      
  Hagen Neugebauer       : wr2SCAN                                       
  Tobias Risthaus        : range-separated hybrid DFT                    
  Lukas Wittmann         : regularized MP2, r2SCAN double-hybrids, wr2SCAN        
                                                                         
We gratefully acknowledge several colleagues who have allowed us to      
interface, adapt or use parts of their codes:                            
  Ed Valeev, F. Pavosevic, A. Kumar             : LibInt (2-el integral package), F12 methods 
  Garnet Chan, S. Sharma, J. Yang, R. Olivares  : DMRG                   
  Ulf Ekstrom                                   : XCFun DFT Library      
  Mihaly Kallay                                 : mrcc  (arbitrary order and MRCC methods)
  Frank Weinhold                                : gennbo (NPA and NBO analysis)           
  Simon Mueller                                 : openCOSMO-RS                            
  Christopher J. Cramer and Donald G. Truhlar   : smd solvation model                     
  S Lehtola, MJT Oliveira, MAL Marques          : LibXC Library                           
  Liviu Ungur et al                             : ANISO software                          


 Your calculation uses the libint2 library for the computation of 2-el integrals
 For citations please refer to: http://libint.valeyev.net

 Your ORCA version has been built with support for libXC version: 6.2.2
 For citations please refer to: https://libxc.gitlab.io

 This ORCA versions uses:
   CBLAS   interface :  Fast vector & matrix operations
   LAPACKE interface :  Fast linear algebra routines
   SCALAPACK package :  Parallel linear algebra routines
   Shared memory     :  Shared parallel matrices
   BLAS/LAPACK       :  OpenBLAS 0.3.27  USE64BITINT DYNAMIC_ARCH NO_AFFINITY SkylakeX SINGLE_THREADED
        Core in use  :  SkylakeX
   Copyright (c) 2011-2014, The OpenBLAS Project


Your calculation utilizes the atom-pairwise dispersion correction
based on EEQ partial charges (D4)


================================================================================

cite the ECPs for C  [vDZP-ECP], O  [vDZP-ECP] as follows:
   B-Ne (ecp-2-mwb), Al-Ar (ecp-10-mwb), Ga-Kr (ecp-28-mwb), Y-Cd (ecp-28-mwb), In-Xe (ecp-46-mwb):
     A. Bergner, M. Dolg, W. Küchle, H. Stoll, and H. Preuß, Mol. Phys. 80, 1431 (1993)., T. Leininger, A. Berning, A. Nicklass, H. Stoll, H.-J. Werner, and H.-J.Flad, Chem. Phys. 217, 19 (1997).
   Na-Mg, K-Ca, Rb-Sr, Cs-Ba (CRENBL):
     L. Fernandez Pacios and P. A. Christiansen, J. Chem. Phys. 82, 2664 (1985)., M. M. Hurley, L. F. Pacios, P. A. Christiansen, R. B. Ross, and W. C. Ermler, J. Chem. Phys. 84, 6840 (1986)., L. A. LaJohn, P. A. Christiansen, R. B. Ross, T. Atashroo, and W. C. Ermler, J. Chem. Phys. 87, 2812 (1987)., R. B. Ross, J. M. Powers, T. Atashroo, W. C. Ermler, L. A. LaJohn, and P. A. Christiansen, J. Chem. Phys. 93, 6654 (1990). 
   Sc-Zn (ecp-10-mdf):
     M. Dolg, U. Wedig, H. Stoll, and H. Preuss, J. Chem. Phys. 86, 866 (1986). 
   Y-Cd (ecp-28-mwb), Hf-Hg (ecp-60-mwb):
     D. Andrae, U. Häußermann, M. Dolg, H. Stoll, and H. Preuß, Theor. Chim. Acta 77, 123 (1990). 
   La (ecp-46-mwb):
     M. Dolg, H. Stoll, and H. Preuss, J. Chem. Phys. 90, 1730 (1989)., M. Dolg, H. Stoll, and H. Preuss, Theor. Chim. Acta 85, 441 (1993).
   Ce-Lu (SBKJC-ecp):
     T. R. Cundari and W. J. Stevens, J. Chem. Phys. 98, 5555 (1993).
   Tl-Rn (ecp-78-mwb):
     W. Küchle, M. Dolg, H. Stoll, and H. Preuss, Mol. Phys. 74, 1245 (1991).

ECP parameters for C  [vDZP-ECP], O  [vDZP-ECP] have been obtained from:
MM, AH, SG, J. Chem. Phys. 158, 014103 (2023), 10.1063/5.0133026

----- Orbital basis set information -----
Your calculation utilizes the basis: vDZP
   Marcel Mueller, Andreas Hansen, Stefan Grimme 
   J. Chem. Phys. 158, 014103 (2023). DOI: 10.1063/5.0133026

----- AuxJ basis set information -----
Your calculation utilizes the auxiliary basis: def2/J
   F. Weigend, Phys. Chem. Chem. Phys. 8, 1057 (2006).

================================================================================
                                        WARNINGS
                       Please study these warnings very carefully!
================================================================================

WARNING: Frozen-Core approximation turned on, but there are no core electrons.
  ===> : Turning off frozen-core approximation


WARNING: Geometry Optimization
  ===> : Switching off AutoStart
         For restart on a previous wavefunction, please use MOREAD

================================================================================
                                       INPUT FILE
================================================================================
NAME = ./output/linalool/linalool.inp
|  1> ! wB97X-3c OPT FREQ TightSCF
|  2> %pal
|  3>   nprocs 40
|  4> end
|  5> * xyz 0 1
|  6> C      3.379246     1.496837     0.056130
|  7> C      2.429732     0.331961    -0.056075
|  8> C      1.436780     0.360108    -0.974036
|  9> C      0.424377    -0.742704    -1.186407
| 10> C     -1.022070    -0.223431    -1.071999
| 11> C     -1.512145     0.064064     0.380708
| 12> C     -1.633428    -1.237266     1.195854
| 13> C     -2.871414     0.751309     0.341227
| 14> C     -3.957759     0.195506    -0.210746
| 15> O     -0.600937     0.904546     1.048498
| 16> C      2.627341    -0.832409     0.880597
| 17> H      3.313253     1.929945     1.076229
| 18> H      3.152355     2.298940    -0.678595
| 19> H      4.417717     1.146121    -0.120218
| 20> H      1.349922     1.223189    -1.629075
| 21> H      0.577100    -1.612534    -0.519929
| 22> H      0.571146    -1.121707    -2.220330
| 23> H     -1.122287     0.698688    -1.687562
| 24> H     -1.688260    -0.981960    -1.537944
| 25> H     -0.634768    -1.670259     1.406370
| 26> H     -2.238807    -1.995879     0.655576
| 27> H     -2.116528    -1.032722     2.175855
| 28> H     -2.973092     1.738802     0.783361
| 29> H     -3.922071    -0.789566    -0.663611
| 30> H     -4.900648     0.732560    -0.208211
| 31> H     -0.530541     1.750979     0.532300
| 32> H      1.729842    -0.962302     1.519865
| 33> H      2.816519    -1.760252     0.300809
| 34> H      3.499426    -0.660564     1.546659
| 35> *
| 36> 
| 37>                          ****END OF INPUT****
================================================================================

                       *****************************
                       * Geometry Optimization Run *
                       *****************************

Geometry optimization settings:
Update method            Update   .... BFGS
Choice of coordinates    CoordSys .... (2022) Redundant Internals
Initial Hessian          InHess   .... Almloef's Model
Max. no of cycles        MaxIter  .... 87

Convergence Tolerances:
Energy Change            TolE     ....  5.0000e-06 Eh
Max. Gradient            TolMAXG  ....  3.0000e-04 Eh/bohr
RMS Gradient             TolRMSG  ....  1.0000e-04 Eh/bohr
Max. Displacement        TolMAXD  ....  4.0000e-03 bohr
RMS Displacement         TolRMSD  ....  2.0000e-03 bohr
Strict Convergence                .... False

------------------------------------------------------------------------------
                        ORCA OPTIMIZATION COORDINATE SETUP
------------------------------------------------------------------------------

The optimization will be done in redundant internal coordinates (2022)
Making redundant internal coordinates   ...  (2022 redundants) done
Evaluating the initial hessian          ...  (Almloef) done
Evaluating the coordinates              ...  done
Calculating the B-matrix                .... done
Calculating the G-matrix                .... done
Diagonalizing the G-matrix              .... done
Small eigenvalue found = 6.678e-03
Small eigenvalue found = 7.343e-03
Small eigenvalue found = 1.650e-02
Small eigenvalue found = 2.960e-02
The first mode is                       ....   45
The number of degrees of freedom        ....   81

    -----------------------------------------------------------------
                    Redundant Internal Coordinates


    -----------------------------------------------------------------
         Definition                    Initial Value    Approx d2E/dq
    -----------------------------------------------------------------
      1. B(C   1,C   0)                  1.5070         0.406484   
      2. B(C   2,C   1)                  1.3526         0.716941   
      3. B(C   3,C   2)                  1.5120         0.399058   
      4. B(C   4,C   3)                  1.5411         0.358668   
      5. B(C   5,C   4)                  1.5599         0.334755   
      6. B(C   6,C   5)                  1.5403         0.359657   
      7. B(C   7,C   5)                  1.5236         0.382407   
      8. B(C   8,C   7)                  1.3393         0.752697   
      9. B(O   9,C   5)                  1.4081         0.523661   
     10. B(C  10,C   1)                  1.5074         0.405961   
     11. B(H  11,C   0)                  1.1102         0.334348   
     12. B(H  12,C   0)                  1.1112         0.333172   
     13. B(H  13,C   0)                  1.1102         0.334357   
     14. B(H  14,C   2)                  1.0870         0.364115   
     15. B(H  15,C   3)                  1.1064         0.339045   
     16. B(H  16,C   3)                  1.1109         0.333441   
     17. B(H  17,C   4)                  1.1132         0.330653   
     18. B(H  18,C   4)                  1.1119         0.332287   
     19. B(H  19,C   6)                  1.1087         0.336245   
     20. B(H  20,C   6)                  1.1108         0.333609   
     21. B(H  21,C   6)                  1.1116         0.332646   
     22. B(H  22,C   7)                  1.0867         0.364463   
     23. B(H  23,C   8)                  1.0848         0.367085   
     24. B(H  24,C   8)                  1.0851         0.366621   
     25. B(H  25,O   9)                  0.9939         0.459049   
     26. B(H  26,C  10)                  1.1095         0.335179   
     27. B(H  27,C  10)                  1.1103         0.334184   
     28. B(H  28,C  10)                  1.1107         0.333706   
     29. A(C   1,C   0,H  13)          109.4720         0.324866   
     30. A(C   1,C   0,H  11)          109.4211         0.324864   
     31. A(H  11,C   0,H  12)          108.2892         0.284017   
     32. A(C   1,C   0,H  12)          112.3393         0.324676   
     33. A(H  12,C   0,H  13)          108.3011         0.284018   
     34. A(H  11,C   0,H  13)          108.9533         0.284174   
     35. A(C   0,C   1,C   2)          119.8013         0.413104   
     36. A(C   0,C   1,C  10)          117.9186         0.373956   
     37. A(C   2,C   1,C  10)          122.2795         0.413009   
     38. A(C   3,C   2,H  14)          116.1662         0.328460   
     39. A(C   1,C   2,H  14)          118.9587         0.362416   
     40. A(C   1,C   2,C   3)          124.8684         0.411754   
     41. A(H  15,C   3,H  16)          105.9130         0.284670   
     42. A(C   4,C   3,H  16)          107.9415         0.318136   
     43. A(C   2,C   3,C   4)          111.8550         0.364925   
     44. A(C   4,C   3,H  15)          110.4717         0.319002   
     45. A(C   2,C   3,H  15)          113.3517         0.324625   
     46. A(C   2,C   3,H  16)          106.9228         0.323738   
     47. A(C   5,C   4,H  18)          109.1332         0.314408   
     48. A(C   5,C   4,H  17)          109.5128         0.314157   
     49. A(C   3,C   4,H  17)          108.8175         0.317701   
     50. A(H  17,C   4,H  18)          106.2263         0.283410   
     51. A(C   3,C   4,H  18)          107.5406         0.317956   
     52. A(C   3,C   4,C   5)          115.2219         0.354167   
     53. A(C   6,C   5,C   7)          108.9375         0.362446   
     54. A(C   4,C   5,C   7)          109.8333         0.358041   
     55. A(C   7,C   5,O   9)          108.6855         0.384266   
     56. A(C   4,C   5,C   6)          111.2153         0.354332   
     57. A(C   6,C   5,O   9)          107.7138         0.380195   
     58. A(C   4,C   5,O   9)          110.3882         0.375504   
     59. A(H  20,C   6,H  21)          108.5192         0.283850   
     60. A(H  19,C   6,H  21)          107.2142         0.284197   
     61. A(C   5,C   6,H  21)          110.2011         0.318155   
     62. A(H  19,C   6,H  20)          108.4544         0.284325   
     63. A(C   5,C   6,H  20)          111.2532         0.318305   
     64. A(C   5,C   6,H  19)          111.0705         0.318714   
     65. A(C   8,C   7,H  22)          117.9620         0.365504   
     66. A(C   5,C   7,H  22)          118.8682         0.326212   
     67. A(C   5,C   7,C   8)          123.1694         0.412196   
     68. A(H  23,C   8,H  24)          118.6203         0.292544   
     69. A(C   7,C   8,H  24)          119.8980         0.365874   
     70. A(C   7,C   8,H  23)          121.4815         0.365953   
     71. A(C   5,O   9,H  25)          107.9301         0.352051   
     72. A(H  27,C  10,H  28)          107.9775         0.284066   
     73. A(H  26,C  10,H  28)          107.9219         0.284197   
     74. A(C   1,C  10,H  28)          110.8578         0.324693   
     75. A(H  26,C  10,H  27)          109.9287         0.284261   
     76. A(C   1,C  10,H  27)          110.0814         0.324769   
     77. A(C   1,C  10,H  26)          110.0240         0.324928   
     78. D(C  10,C   1,C   0,H  11)    -59.9330         0.012246   
     79. D(C   2,C   1,C   0,H  11)    119.7906         0.012246   
     80. D(C  10,C   1,C   0,H  12)    179.7603         0.012246   
     81. D(C   2,C   1,C   0,H  13)   -120.8725         0.012246   
     82. D(C   2,C   1,C   0,H  12)     -0.5161         0.012246   
     83. D(C   3,C   2,C   1,C  10)     -0.3909         0.036351   
     84. D(H  14,C   2,C   1,C   0)      0.8821         0.036351   
     85. D(H  14,C   2,C   1,C  10)   -179.4067         0.036351   
     86. D(C   3,C   2,C   1,C   0)    179.8980         0.036351   
     87. D(C   4,C   3,C   2,H  14)    -56.3187         0.011821   
     88. D(H  15,C   3,C   2,C   1)     -1.0643         0.011821   
     89. D(H  15,C   3,C   2,H  14)    177.9763         0.011821   
     90. D(H  16,C   3,C   2,C   1)   -117.3928         0.011821   
     91. D(C   4,C   3,C   2,C   1)    124.6407         0.011821   
     92. D(C   5,C   4,C   3,C   2)    -75.2696         0.010326   
     93. D(H  17,C   4,C   3,H  16)    -69.2191         0.010326   
     94. D(H  17,C   4,C   3,H  15)    175.4085         0.010326   
     95. D(H  17,C   4,C   3,C   2)     48.1371         0.010326   
     96. D(C   5,C   4,C   3,H  16)    167.3742         0.010326   
     97. D(C   5,C   4,C   3,H  15)     52.0019         0.010326   
     98. D(C   7,C   5,C   4,H  18)    -66.8864         0.009100   
     99. D(C   7,C   5,C   4,H  17)     49.0093         0.009100   
    100. D(C   7,C   5,C   4,C   3)    172.0470         0.009100   
    101. D(C   6,C   5,C   4,H  18)     53.7835         0.009100   
    102. D(C   6,C   5,C   4,H  17)    169.6791         0.009100   
    103. D(C   6,C   5,C   4,C   3)    -67.2832         0.009100   
    104. D(H  20,C   6,C   5,C   4)    -51.6735         0.010379   
    105. D(H  19,C   6,C   5,O   9)    -51.8375         0.010379   
    106. D(H  19,C   6,C   5,C   7)   -169.5578         0.010379   
    107. D(H  20,C   6,C   5,C   7)     69.5224         0.010379   
    108. D(H  19,C   6,C   5,C   4)     69.2464         0.010379   
    109. D(H  20,C   6,C   5,O   9)   -172.7574         0.010379   
    110. D(H  22,C   7,C   5,C   6)    117.9575         0.010904   
    111. D(H  22,C   7,C   5,C   4)   -120.0061         0.010904   
    112. D(C   8,C   7,C   5,O   9)   -178.9220         0.010904   
    113. D(C   8,C   7,C   5,C   6)    -61.8178         0.010904   
    114. D(C   8,C   7,C   5,C   4)     60.2186         0.010904   
    115. D(H  24,C   8,C   7,H  22)      0.1420         0.040432   
    116. D(H  24,C   8,C   7,C   5)    179.9191         0.040432   
    117. D(H  23,C   8,C   7,H  22)   -179.6947         0.040432   
    118. D(H  23,C   8,C   7,C   5)      0.0824         0.040432   
    119. D(H  25,O   9,C   5,C   7)    -61.2849         0.021754   
    120. D(H  25,O   9,C   5,C   6)   -179.1679         0.021754   
    121. D(H  25,O   9,C   5,C   4)     59.2322         0.021754   
    122. D(H  28,C  10,C   1,C   0)     -0.7354         0.012215   
    123. D(H  27,C  10,C   1,C   2)     60.1445         0.012215   
    124. D(H  27,C  10,C   1,C   0)   -120.1391         0.012215   
    125. D(H  26,C  10,C   1,C   2)    -61.1540         0.012215   
    126. D(H  26,C  10,C   1,C   0)    118.5623         0.012215   
    -----------------------------------------------------------------

Number of atoms                         .... 29
Number of degrees of freedom            .... 126


         *************************************************************
         *                GEOMETRY OPTIMIZATION CYCLE   1            *
         *************************************************************
---------------------------------
CARTESIAN COORDINATES (ANGSTROEM)
---------------------------------
  C      3.379246    1.496837    0.056130
  C      2.429732    0.331961   -0.056075
  C      1.436780    0.360108   -0.974036
  C      0.424377   -0.742704   -1.186407
  C     -1.022070   -0.223431   -1.071999
  C     -1.512145    0.064064    0.380708
  C     -1.633428   -1.237266    1.195854
  C     -2.871414    0.751309    0.341227
  C     -3.957759    0.195506   -0.210746
  O     -0.600937    0.904546    1.048498
  C      2.627341   -0.832409    0.880597
  H      3.313253    1.929945    1.076229
  H      3.152355    2.298940   -0.678595
  H      4.417717    1.146121   -0.120218
  H      1.349922    1.223189   -1.629075
  H      0.577100   -1.612534   -0.519929
  H      0.571146   -1.121707   -2.220330
  H     -1.122287    0.698688   -1.687562
  H     -1.688260   -0.981960   -1.537944
  H     -0.634768   -1.670259    1.406370
  H     -2.238807   -1.995879    0.655576
  H     -2.116528   -1.032722    2.175855
  H     -2.973092    1.738802    0.783361
  H     -3.922071   -0.789566   -0.663611
  H     -4.900648    0.732560   -0.208211
  H     -0.530541    1.750979    0.532300
  H      1.729842   -0.962302    1.519865
  H      2.816519   -1.760252    0.300809
  H      3.499426   -0.660564    1.546659

----------------------------
CARTESIAN COORDINATES (A.U.)
----------------------------
  NO LB      ZA    FRAG     MASS         X           Y           Z
   0 C     4.0000*   0    12.011    6.385849    2.828612    0.106070
   1 C     4.0000*   0    12.011    4.591528    0.627315   -0.105966
   2 C     4.0000*   0    12.011    2.715121    0.680505   -1.840661
   3 C     4.0000*   0    12.011    0.801956   -1.403507   -2.241984
   4 C     4.0000*   0    12.011   -1.931432   -0.422223   -2.025785
   5 C     4.0000*   0    12.011   -2.857540    0.121063    0.719434
   6 C     4.0000*   0    12.011   -3.086732   -2.338094    2.259837
   7 C     4.0000*   0    12.011   -5.426186    1.419768    0.644826
   8 C     4.0000*   0    12.011   -7.479081    0.369453   -0.398252
   9 O     6.0000*   0    15.999   -1.135606    1.709344    1.981374
  10 C     4.0000*   0    12.011    4.964955   -1.573025    1.664087
  11 H     1.0000    0     1.008    6.261141    3.647068    2.033778
  12 H     1.0000    0     1.008    5.957088    4.344367   -1.282359
  13 H     1.0000    0     1.008    8.348275    2.165855   -0.227179
  14 H     1.0000    0     1.008    2.550983    2.311492   -3.078506
  15 H     1.0000    0     1.008    1.090561   -3.047248   -0.982523
  16 H     1.0000    0     1.008    1.079310   -2.119719   -4.195816
  17 H     1.0000    0     1.008   -2.120815    1.320329   -3.189030
  18 H     1.0000    0     1.008   -3.190349   -1.855635   -2.906293
  19 H     1.0000    0     1.008   -1.199538   -3.156332    2.657654
  20 H     1.0000    0     1.008   -4.230732   -3.771665    1.238859
  21 H     1.0000    0     1.008   -3.999658   -1.951562    4.111770
  22 H     1.0000    0     1.008   -5.618330    3.285860    1.480338
  23 H     1.0000    0     1.008   -7.411640   -1.492064   -1.254043
  24 H     1.0000    0     1.008   -9.260883    1.384338   -0.393462
  25 H     1.0000    0     1.008   -1.002577    3.308871    1.005901
  26 H     1.0000    0     1.008    3.268928   -1.818487    2.872129
  27 H     1.0000    0     1.008    5.322450   -3.326394    0.568447
  28 H     1.0000    0     1.008    6.612957   -1.248285    2.922762
* core charge reduced due to ECP

--------------------------------
INTERNAL COORDINATES (ANGSTROEM)
--------------------------------
 C      0   0   0     0.000000000000     0.00000000     0.00000000
 C      1   0   0     1.507017880981     0.00000000     0.00000000
 C      2   1   0     1.352552522246   119.80134414     0.00000000
 C      3   2   1     1.512036898820   124.86838020   179.89795883
 C      4   3   2     1.541084865542   111.85501436   124.64072559
 C      5   4   3     1.559866823963   115.22191394   284.73043388
 C      6   5   4     1.540335137658   111.21530748   292.71683927
 C      6   5   4     1.523639279405   109.83329200   172.04696126
 C      8   6   5     1.339304530928   123.16939904    60.21860555
 O      6   5   4     1.408067290895   110.38815976    52.21969058
 C      2   1   3     1.507368982487   117.91856744   180.27636420
 H      1   2   3     1.110197993834   109.42110172   119.79060046
 H      1   2   3     1.111156862965   112.33930150   359.48393882
 H      1   2   3     1.110190230366   109.47204875   239.12746031
 H      3   2   1     1.086981700051   118.95866700     0.88213891
 H      4   3   2     1.106400229624   113.35169268   358.93574253
 H      4   3   2     1.110937074410   106.92281071   242.60724410
 H      5   4   3     1.113222666055   108.81747120    48.13712045
 H      5   4   3     1.111881334930   107.54055630   162.80226523
 H      7   6   5     1.108657620686   111.07049505    69.24635688
 H      7   6   5     1.110800492750   111.25320780   308.32654087
 H      7   6   5     1.111587071685   110.20111076   187.91215135
 H      8   6   5     1.086721360188   118.86824026   239.99387455
 H      9   8   6     1.084770568716   121.48149617     0.08243452
 H      9   8   6     1.085114321840   119.89798883   179.91913447
 H     10   6   5     0.993913877310   107.93013492    59.23222820
 H     11   2   1     1.109522519949   110.02403128   118.56234476
 H     11   2   1     1.110331064718   110.08136470   239.86088186
 H     11   2   1     1.110721179727   110.85779793   359.26462426

---------------------------
INTERNAL COORDINATES (A.U.)
---------------------------
 C      0   0   0     0.000000000000     0.00000000     0.00000000
 C      1   0   0     2.847851073977     0.00000000     0.00000000
 C      2   1   0     2.555953848789   119.80134414     0.00000000
 C      3   2   1     2.857335643154   124.86838020   179.89795883
 C      4   3   2     2.912228345005   111.85501436   124.64072559
 C      5   4   3     2.947721102679   115.22191394   284.73043388
 C      6   5   4     2.910811564630   111.21530748   292.71683927
 C      6   5   4     2.879260964961   109.83329200   172.04696126
 C      8   6   5     2.530918773373   123.16939904    60.21860555
 O      6   5   4     2.660861557924   110.38815976    52.21969058
 C      2   1   3     2.848514559669   117.91856744   180.27636420
 H      1   2   3     2.097970162776   109.42110172   119.79060046
 H      1   2   3     2.099782162832   112.33930150   359.48393882
 H      1   2   3     2.097955491947   109.47204875   239.12746031
 H      3   2   1     2.054097725681   118.95866700     0.88213891
 H      4   3   2     2.090793428498   113.35169268   358.93574253
 H      4   3   2     2.099366822655   106.92281071   242.60724410
 H      5   4   3     2.103685964918   108.81747120    48.13712045
 H      5   4   3     2.101151216437   107.54055630   162.80226523
 H      7   6   5     2.095059279381   111.07049505    69.24635688
 H      7   6   5     2.099108720723   111.25320780   308.32654087
 H      7   6   5     2.100595139492   110.20111076   187.91215135
 H      8   6   5     2.053605754638   118.86824026   239.99387455
 H      9   8   6     2.049919293012   121.48149617     0.08243452
 H      9   8   6     2.050568892273   119.89798883   179.91913447
 H     10   6   5     1.878225028819   107.93013492    59.23222820
 H     11   2   1     2.096693702122   110.02403128   118.56234476
 H     11   2   1     2.098221630302   110.08136470   239.86088186
 H     11   2   1     2.098958840830   110.85779793   359.26462426

---------------------
BASIS SET INFORMATION
---------------------
There are 3 groups of distinct atoms

 Group   1 Type C   : 6s6p2d contracted to 2s2p1d pattern {42/42/2}
 Group   2 Type O   : 6s6p2d contracted to 2s2p1d pattern {42/42/2}
 Group   3 Type H   : 8s2p contracted to 2s1p pattern {53/2}

Atom   0C    basis set group =>   1
Atom   1C    basis set group =>   1
Atom   2C    basis set group =>   1
Atom   3C    basis set group =>   1
Atom   4C    basis set group =>   1
Atom   5C    basis set group =>   1
Atom   6C    basis set group =>   1
Atom   7C    basis set group =>   1
Atom   8C    basis set group =>   1
Atom   9O    basis set group =>   2
Atom  10C    basis set group =>   1
Atom  11H    basis set group =>   3
Atom  12H    basis set group =>   3
Atom  13H    basis set group =>   3
Atom  14H    basis set group =>   3
Atom  15H    basis set group =>   3
Atom  16H    basis set group =>   3
Atom  17H    basis set group =>   3
Atom  18H    basis set group =>   3
Atom  19H    basis set group =>   3
Atom  20H    basis set group =>   3
Atom  21H    basis set group =>   3
Atom  22H    basis set group =>   3
Atom  23H    basis set group =>   3
Atom  24H    basis set group =>   3
Atom  25H    basis set group =>   3
Atom  26H    basis set group =>   3
Atom  27H    basis set group =>   3
Atom  28H    basis set group =>   3
---------------------------------
AUXILIARY/J BASIS SET INFORMATION
---------------------------------
There are 3 groups of distinct atoms

 Group   1 Type C   : 12s5p4d2f1g contracted to 6s4p3d1f1g pattern {711111/2111/211/2/1}
 Group   2 Type O   : 12s5p4d2f1g contracted to 6s4p3d1f1g pattern {711111/2111/211/2/1}
 Group   3 Type H   : 5s2p1d contracted to 3s1p1d pattern {311/2/1}

Atom   0C    basis set group =>   1
Atom   1C    basis set group =>   1
Atom   2C    basis set group =>   1
Atom   3C    basis set group =>   1
Atom   4C    basis set group =>   1
Atom   5C    basis set group =>   1
Atom   6C    basis set group =>   1
Atom   7C    basis set group =>   1
Atom   8C    basis set group =>   1
Atom   9O    basis set group =>   2
Atom  10C    basis set group =>   1
Atom  11H    basis set group =>   3
Atom  12H    basis set group =>   3
Atom  13H    basis set group =>   3
Atom  14H    basis set group =>   3
Atom  15H    basis set group =>   3
Atom  16H    basis set group =>   3
Atom  17H    basis set group =>   3
Atom  18H    basis set group =>   3
Atom  19H    basis set group =>   3
Atom  20H    basis set group =>   3
Atom  21H    basis set group =>   3
Atom  22H    basis set group =>   3
Atom  23H    basis set group =>   3
Atom  24H    basis set group =>   3
Atom  25H    basis set group =>   3
Atom  26H    basis set group =>   3
Atom  27H    basis set group =>   3
Atom  28H    basis set group =>   3
-------------------------
ECP PARAMETER INFORMATION
-------------------------

 Group 1, Type C  ECP vDZP-ECP (replacing 2 core electrons, lmax=3)
 Group 2, Type O  ECP vDZP-ECP (replacing 2 core electrons, lmax=3)

Atom   0C    ECP group =>   1
Atom   1C    ECP group =>   1
Atom   2C    ECP group =>   1
Atom   3C    ECP group =>   1
Atom   4C    ECP group =>   1
Atom   5C    ECP group =>   1
Atom   6C    ECP group =>   1
Atom   7C    ECP group =>   1
Atom   8C    ECP group =>   1
Atom   9O    ECP group =>   2
Atom  10C    ECP group =>   1



           ************************************************************
           *        Program running with 40 parallel MPI-processes    *
           *              working on a common directory               *
           ************************************************************
------------------------------------------------------------------------------
                             ORCA STARTUP CALCULATIONS
                           -- RI-GTO INTEGRALS CHOSEN --
------------------------------------------------------------------------------
------------------------------------------------------------------------------
                   ___                                                        
                  /   \      - P O W E R E D   B Y -                         
                 /     \                                                     
                 |  |  |   _    _      __       _____    __    __             
                 |  |  |  | |  | |    /  \     |  _  \  |  |  /  |          
                  \  \/   | |  | |   /    \    | | | |  |  | /  /          
                 / \  \   | |__| |  /  /\  \   | |_| |  |  |/  /          
                |  |  |   |  __  | /  /__\  \  |    /   |      \           
                |  |  |   | |  | | |   __   |  |    \   |  |\   \          
                \     /   | |  | | |  |  |  |  | |\  \  |  | \   \       
                 \___/    |_|  |_| |__|  |__|  |_| \__\ |__|  \__/        
                                                                              
                      - O R C A' S   B I G   F R I E N D -                    
                                      &                                       
                       - I N T E G R A L  F E E D E R -                       
                                                                              
 v1 FN, 2020, v2 2021, v3 2022-2024                                           
------------------------------------------------------------------------------


----------------------
SHARK INTEGRAL PACKAGE
----------------------

Number of atoms                             ...     29
Number of basis functions                   ...    233
Number of shells                            ...    109
Maximum angular momentum                    ...      2
Integral batch strategy                     ... SHARK/LIBINT Hybrid
RI-J (if used) integral strategy            ... SPLIT-RIJ (Revised 2003 algorithm where possible)
Printlevel                                  ...      1
Contraction scheme used                     ... SEGMENTED contraction
Prescreening option                         ... SCHWARTZ
   Thresh                                   ... 2.500e-11
   Tcut                                     ... 2.500e-12
   Tpresel                                  ... 2.500e-12 
Coulomb Range Separation                    ... NOT USED
Exchange Range Separation                   ... Long Range
   Mu parameter                             ... 3.000e-01
   Scaling (regular/separated)              ... 1.670e-01 8.330e-01
Multipole approximations                    ... NOT USED
Finite Nucleus Model                        ... NOT USED
CABS basis                                  ... NOT available
Auxiliary Coulomb fitting basis             ... AVAILABLE
   # of basis functions in Aux-J            ...    737
   # of shells in Aux-J                     ...    255
   Maximum angular momentum in Aux-J        ...      4
Auxiliary J/K fitting basis                 ... NOT available
Auxiliary Correlation fitting basis         ... NOT available
Auxiliary 'external' fitting basis          ... NOT available

Checking pre-screening integrals            ... done (  0.0 sec) Dimension = 109
Check shell pair data                       ... done (  0.0 sec)
Shell pair information
Shell pair cut-off parameter TPreSel        ...   2.5e-12
Total number of shell pairs                 ...      5995
Shell pairs after pre-screening             ...      5945
Total number of primitive shell pairs       ...     56362
Primitive shell pairs kept                  ...     44291
          la=0 lb=0:   1705 shell pairs
          la=1 lb=0:   2299 shell pairs
          la=1 lb=1:    801 shell pairs
          la=2 lb=0:    636 shell pairs
          la=2 lb=1:    438 shell pairs
          la=2 lb=2:     66 shell pairs

Calculating one electron integrals          ... done (  0.1 sec)
Calculating ECP integrals                   ... done (  0.1 sec)
Calculating RI/J V-Matrix + Cholesky decomp.... done (  0.0 sec)
Calculating Nuclear repulsion               ... done (  0.0 sec) ENN=    352.510449234316 Eh

Diagonalization of the overlap matrix:
Smallest eigenvalue                        ... 1.109e-03
Time for diagonalization                   ...    0.009 sec
Threshold for overlap eigenvalues          ... 1.000e-07
Number of eigenvalues below threshold      ... 0
Time for construction of square roots      ...    0.005 sec
Total time needed                          ...    0.017 sec

-------------------
DFT GRID GENERATION
-------------------

General Integration Accuracy     IntAcc      ... 4.388
Radial Grid Type                 RadialGrid  ... OptM3 with GC (2021)
Angular Grid (max. ang.)         AngularGrid ... 4 (Lebedev-302)
Angular grid pruning method      GridPruning ... 4 (adaptive)
Weight generation scheme         WeightScheme... mBecke (2022)
Basis function cutoff            BFCut       ... 1.0000e-11
Integration weight cutoff        WCut        ... 1.0000e-14
Partially contracted basis set               ... off
Rotationally invariant grid construction     ... off
Angular grids for H and He will be reduced by one unit

Total number of grid points                  ...   123257
Total number of batches                      ...     1940
Average number of points per batch           ...       63
Average number of grid points per atom       ...     4250

--------------------
COSX GRID GENERATION
--------------------

GRIDX 1
-------
General Integration Accuracy     IntAcc      ... 3.816
Radial Grid Type                 RadialGrid  ... OptM3 with GC (2021)
Angular Grid (max. ang.)         AngularGrid ... 1 (Lebedev-50)
Angular grid pruning method      GridPruning ... 4 (adaptive)
Weight generation scheme         WeightScheme... mBecke (2022)
Basis function cutoff            BFCut       ... 1.0000e-11
Integration weight cutoff        WCut        ... 1.0000e-14
Partially contracted basis set               ... on
Rotationally invariant grid construction     ... off
Angular grids for H and He will be reduced by one unit

Total number of grid points                  ...    15771
Total number of batches                      ...      141
Average number of points per batch           ...      111
Average number of grid points per atom       ...      544
UseSFitting                                  ... on

GRIDX 2
-------
General Integration Accuracy     IntAcc      ... 4.020
Radial Grid Type                 RadialGrid  ... OptM3 with GC (2021)
Angular Grid (max. ang.)         AngularGrid ... 2 (Lebedev-110)
Angular grid pruning method      GridPruning ... 4 (adaptive)
Weight generation scheme         WeightScheme... mBecke (2022)
Basis function cutoff            BFCut       ... 1.0000e-11
Integration weight cutoff        WCut        ... 1.0000e-14
Partially contracted basis set               ... on
Rotationally invariant grid construction     ... off
Angular grids for H and He will be reduced by one unit

Total number of grid points                  ...    32819
Total number of batches                      ...      271
Average number of points per batch           ...      121
Average number of grid points per atom       ...     1132
UseSFitting                                  ... on

GRIDX 3
-------
General Integration Accuracy     IntAcc      ... 4.338
Radial Grid Type                 RadialGrid  ... OptM3 with GC (2021)
Angular Grid (max. ang.)         AngularGrid ... 3 (Lebedev-194)
Angular grid pruning method      GridPruning ... 4 (adaptive)
Weight generation scheme         WeightScheme... mBecke (2022)
Basis function cutoff            BFCut       ... 1.0000e-11
Integration weight cutoff        WCut        ... 1.0000e-14
Partially contracted basis set               ... on
Rotationally invariant grid construction     ... off
Angular grids for H and He will be reduced by one unit

Total number of grid points                  ...    71369
Total number of batches                      ...      573
Average number of points per batch           ...      124
Average number of grid points per atom       ...     2461
UseSFitting                                  ... on
Initializing property integral containers    ... done (  0.0 sec)

SHARK setup successfully completed in   3.8 seconds

Maximum memory used throughout the entire STARTUP-calculation: 36.8 MB


           ************************************************************
           *        Program running with 40 parallel MPI-processes    *
           *              working on a common directory               *
           ************************************************************
-------------------------------------------------------------------------------
                                 ORCA GUESS
                   Start orbitals & Density for SCF / CASSCF
-------------------------------------------------------------------------------

------------
SCF SETTINGS
------------
Hamiltonian:
 Density Functional     Method          .... DFT(GTOs)
 Exchange Functional    Exchange        .... WB97X-V
 Correlation Functional Correlation     .... WB97X-V
 Gradients option       PostSCFGGA      .... off
 Hybrid DFT is turned on
   Fraction HF Exchange ScalHFX         ....  0.167000
   Scaling of DF-GGA-X  ScalDFX         ....  0.000000
   Scaling of DF-GGA-C  ScalDFC         ....  1.000000
   Scaling of DF-LDA-C  ScalLDAC        ....  1.000000
   Perturbative correction              ....  0.000000
 Long-range corrected/Screened/Range-Separated Hybrid DFT is turned on
   Amount of maximum screened exact exchange              ....  0.833000
   Range separation parameter mu (erf(mu*r12)/r12)        ....  0.300000
   NL short-range parameter             ....  6.000000
   NL long-range parameter              ....  0.010000
 RI-approximation to the Coulomb term is turned on
   Number of AuxJ basis functions       .... 737
   RIJ-COSX (HFX calculated with COS-X)).... on


General Settings:
 Integral files         IntName         .... ./output/linalool/linalool
 Hartree-Fock type      HFTyp           .... RHF
 Total Charge           Charge          ....    0
 Multiplicity           Mult            ....    1
 Number of Electrons    NEL             ....   64
 Basis Dimension        Dim             ....  233
 Nuclear Repulsion      ENuc            ....    352.5104492343 Eh

Convergence Acceleration:
 AO-DIIS                CNVDIIS         .... on
   Start iteration      DIISMaxIt       ....    12
   Startup error        DIISStart       ....  0.200000
   # of expansion vecs  DIISMaxEq       ....     5
   Bias factor          DIISBfac        ....   1.050
   Max. coefficient     DIISMaxC        ....  10.000
 MO-DIIS                CNVKDIIS        .... off
 Trust-Rad. Augm. Hess. CNVTRAH         .... auto
   Auto Start mean grad. ratio tolernc. ....  1.125000
   Auto Start start iteration           ....    50
   Auto Start num. interpolation iter.  ....    10
   Max. Number of Micro iterations      ....    24
   Max. Number of Macro iterations      .... Maxiter - #DIIS iter
   Number of Davidson start vectors     ....     2
   Converg. threshold    (grad. norm)   ....   1.000e-05
   Grad. Scal. Fac. for Micro threshold ....   0.100
   Minimum threshold for Micro iter.    ....   1.000e-02
   NR start threshold (gradient norm)   ....   1.000e-04
   Initial trust radius                 ....   0.400
   Minimum AH scaling param. (alpha)    ....   1.000
   Maximum AH scaling param. (alpha)    .... 1000.000
   Quad. conv. algorithm                .... NR
   White noise on init. David. guess    .... on
   Maximum white noise                  ....   0.010
   Pseudo random numbers                .... off
   Inactive MOs                         .... canonical
   Orbital update algorithm             .... Taylor
   Preconditioner                       .... Diag
   Full preconditioner red. dimension   ....   250
 SOSCF                  CNVSOSCF        .... on
   Start iteration      SOSCFMaxIt      ....   150
   Startup grad/error   SOSCFStart      ....  0.003300
   Hessian update       SOSCFHessUp     .... L-BFGS
 Level Shifting         CNVShift        .... on
   Level shift para.    LevelShift      ....    0.2500
   Turn off err/grad.   ShiftErr        ....    0.0010
 Zerner damping         CNVZerner       .... off
 Static damping         CNVDamp         .... on
   Fraction old density DampFac         ....    0.7000
   Max. Damping (<1)    DampMax         ....    0.9800
   Min. Damping (>=0)   DampMin         ....    0.0000
   Turn off err/grad.   DampErr         ....    0.1000

SCF Procedure:
 Maximum # iterations   MaxIter         ....   125
 SCF integral mode      SCFMode         .... Direct
   Integral package                     .... SHARK and LIBINT hybrid scheme
 Reset frequency        DirectResetFreq ....    20
 Integral Threshold     Thresh          ....  2.500e-11 Eh
 Primitive CutOff       TCut            ....  2.500e-12 Eh

Convergence Tolerance:
 Convergence Check Mode ConvCheckMode   .... Total+1el-Energy
 Convergence forced     ConvForced      .... 0
 Energy Change          TolE            ....  1.000e-08 Eh
 1-El. energy change                    ....  1.000e-05 Eh
 Orbital Gradient       TolG            ....  1.000e-05
 Orbital Rotation angle TolX            ....  1.000e-05
 DIIS Error             TolErr          ....  5.000e-07

------------------------------
INITIAL GUESS: MODEL POTENTIAL
------------------------------
Loading Hartree-Fock densities                     ... done
Atomic calculation to generate a density for atom 0 (C  with ECP)
  Multiplicity assumed   :    1
  Atomic configuration   : 1s2 2s2 2p2 
  Number of open shells  : 1
  Command: /home/aspe232/Project/Software/ORCA/6_0_1/build/orca ./output/linalool/linalool_atom6.inp "" > ./output/linalool/linalool_atom6.out
Returned from the atomic calculation with res=0
Atomic calculation to generate a density for atom 9 (O  with ECP)
  Multiplicity assumed   :    3
  Atomic configuration   : 1s2 2s2 2p4 
  Number of open shells  : 1
  Command: /home/aspe232/Project/Software/ORCA/6_0_1/build/orca ./output/linalool/linalool_atom8.inp "" > ./output/linalool/linalool_atom8.out
Returned from the atomic calculation with res=0
Calculating cut-offs                               ... done
Initializing the effective Hamiltonian             ... done
Setting up the integral package (SHARK)            ... done
Starting the Coulomb interaction                   ... done (   0.1 sec)
Making the grid                                    ... done (   0.9 sec)
Mapping shells                                     ... done
Starting the XC term evaluation                    ... done (   0.0 sec)
  promolecular density results
     # of electrons  =     85.985747820
     EX              =    -42.847101796
     EC              =     -3.437902451
     EX+EC           =    -46.285004247
Transforming the Hamiltonian                       ... done (   0.0 sec)
Diagonalizing the Hamiltonian                      ... done (   0.0 sec)
Back transforming the eigenvectors                 ... done (   0.0 sec)
Now organizing SCF variables                       ... done
                      ------------------
                      INITIAL GUESS DONE (   2.2 sec)
                      ------------------
             **** ENERGY FILE WAS UPDATED (./output/linalool/linalool.en.tmp) ****
Finished Guess after   2.8 sec
Maximum memory used throughout the entire GUESS-calculation: 23.0 MB


           ************************************************************
           *        Program running with 40 parallel MPI-processes    *
           *              working on a common directory               *
           ************************************************************

-------------------------------------------------------------------------------------------
                                      ORCA LEAN-SCF
                              memory conserving SCF solver
-------------------------------------------------------------------------------------------

----------------------------------------D-I-I-S--------------------------------------------
Iteration    Energy (Eh)           Delta-E    RMSDP     MaxDP     DIISErr   Damp  Time(sec)
-------------------------------------------------------------------------------------------
               ***  Starting incremental Fock matrix formation  ***
    1    -83.3126331229480002     0.00e+00  3.74e-03  7.26e-02  2.05e-01  0.700   4.6
    2    -83.5152331898868852    -2.03e-01  2.73e-03  5.34e-02  1.18e-01  0.700   3.9
                               ***Turning on AO-DIIS***
    3    -83.6213234487024692    -1.06e-01  1.38e-03  2.71e-02  5.82e-02  0.700   3.8
    4    -83.6837713005426735    -6.24e-02  2.92e-03  5.37e-02  4.11e-02  0.000   3.8
    5    -83.8147722067465679    -1.31e-01  2.34e-04  5.13e-03  4.43e-03  0.000   3.7
    6    -83.8150892714602946    -3.17e-04  1.10e-04  5.17e-03  3.65e-03  0.000   3.8
                              *** Initializing SOSCF ***
---------------------------------------S-O-S-C-F--------------------------------------
Iteration    Energy (Eh)           Delta-E    RMSDP     MaxDP     MaxGrad    Time(sec)
--------------------------------------------------------------------------------------
    7    -83.8151428456021108    -5.36e-05  5.63e-05  1.63e-03  1.49e-03     3.8
               *** Restarting incremental Fock matrix formation ***
    8    -83.8150932545792671     4.96e-05  2.73e-05  4.53e-04  1.10e-04     5.2
    9    -83.8150949494692554    -1.69e-06  1.61e-05  3.25e-04  5.87e-05     4.1
   10    -83.8150952806841474    -3.31e-07  4.79e-06  1.07e-04  2.33e-05     4.4
   11    -83.8150953299377193    -4.93e-08  1.32e-06  2.61e-05  5.17e-06     3.9
   12    -83.8150953215112509     8.43e-09  5.16e-07  8.93e-06  2.62e-06     3.9
                 **** Energy Check signals convergence ****

               *****************************************************
               *                     SUCCESS                       *
               *           SCF CONVERGED AFTER  12 CYCLES          *
               *****************************************************

Recomputing exchange energy using gridx3       ... done (    4.507 sec)
Old exchange energy                            :    -12.271338826 Eh
New exchange energy                            :    -12.271349102 Eh
Exchange energy change after final integration :     -0.000010276 Eh
Total energy after final integration           :    -83.815105597 Eh
             **** ENERGY FILE WAS UPDATED (./output/linalool/linalool.en.tmp) ****

----------------
TOTAL SCF ENERGY
----------------

Total Energy       :        -83.81510559726372 Eh           -2280.72497 eV

Components:
Nuclear Repulsion  :        352.51044923431579 Eh            9592.29699 eV
Electronic Energy  :       -436.32554455582704 Eh          -11873.02168 eV
One Electron Energy:       -825.06219558161376 Eh          -22451.08373 eV
Two Electron Energy:        388.73665102578673 Eh           10578.06205 eV

Virial components:
Potential Energy   :       -149.33046927784511 Eh           -4063.48865 eV
Kinetic Energy     :         65.51536368058139 Eh            1782.76368 eV
Virial Ratio       :          2.27931985550599

DFT components:
N(Alpha)           :       32.000121119755 electrons
N(Beta)            :       32.000121119755 electrons
N(Total)           :       64.000242239511 electrons
E(X)               :      -12.942971410977 Eh       
E(C)               :       -2.388927828368 Eh       
E(XC)              :      -15.331899239345 Eh       

---------------
SCF CONVERGENCE
---------------

  Last Energy change         ...   -8.4265e-09  Tolerance :   1.0000e-08
  Last MAX-Density change    ...    8.9284e-06  Tolerance :   1.0000e-07
  Last RMS-Density change    ...    5.1562e-07  Tolerance :   5.0000e-09
  Last DIIS Error            ...    1.4878e-03  Tolerance :   5.0000e-07
  Last Orbital Gradient      ...    2.6238e-06  Tolerance :   1.0000e-05
  Last Orbital Rotation      ...    7.3493e-06  Tolerance :   1.0000e-05


----------------
ORBITAL ENERGIES
----------------

  NO   OCC          E(Eh)            E(eV) 
   0   2.0000      -1.148369       -31.2487 
   1   2.0000      -0.953044       -25.9336 
   2   2.0000      -0.937672       -25.5154 
   3   2.0000      -0.896161       -24.3858 
   4   2.0000      -0.856446       -23.3051 
   5   2.0000      -0.818801       -22.2807 
   6   2.0000      -0.805349       -21.9147 
   7   2.0000      -0.755177       -20.5494 
   8   2.0000      -0.718625       -19.5548 
   9   2.0000      -0.676182       -18.3999 
  10   2.0000      -0.633928       -17.2501 
  11   2.0000      -0.619593       -16.8600 
  12   2.0000      -0.591347       -16.0914 
  13   2.0000      -0.569948       -15.5091 
  14   2.0000      -0.557341       -15.1660 
  15   2.0000      -0.549215       -14.9449 
  16   2.0000      -0.537915       -14.6374 
  17   2.0000      -0.525341       -14.2953 
  18   2.0000      -0.508004       -13.8235 
  19   2.0000      -0.502835       -13.6828 
  20   2.0000      -0.496249       -13.5036 
  21   2.0000      -0.491822       -13.3831 
  22   2.0000      -0.480270       -13.0688 
  23   2.0000      -0.470986       -12.8162 
  24   2.0000      -0.462230       -12.5779 
  25   2.0000      -0.451638       -12.2897 
  26   2.0000      -0.447919       -12.1885 
  27   2.0000      -0.425145       -11.5688 
  28   2.0000      -0.419699       -11.4206 
  29   2.0000      -0.386473       -10.5165 
  30   2.0000      -0.362880        -9.8745 
  31   2.0000      -0.314212        -8.5501 
  32   0.0000       0.075671         2.0591 
  33   0.0000       0.082951         2.2572 
  34   0.0000       0.093447         2.5428 
  35   0.0000       0.098054         2.6682 
  36   0.0000       0.106274         2.8919 
  37   0.0000       0.107800         2.9334 
  38   0.0000       0.119036         3.2391 
  39   0.0000       0.125618         3.4182 
  40   0.0000       0.133122         3.6224 
  41   0.0000       0.142232         3.8703 
  42   0.0000       0.146761         3.9936 
*Only the first 10 virtual orbitals were printed.

                    ********************************
                    * MULLIKEN POPULATION ANALYSIS *
                    ********************************

-----------------------
MULLIKEN ATOMIC CHARGES
-----------------------
   0 C :   -0.087565
   1 C :   -0.045513
   2 C :   -0.027807
   3 C :   -0.064869
   4 C :   -0.047041
   5 C :   -0.060372
   6 C :   -0.020215
   7 C :    0.000903
   8 C :   -0.041218
   9 O :   -0.292887
  10 C :   -0.108394
  11 H :    0.045516
  12 H :    0.031476
  13 H :    0.046158
  14 H :    0.002796
  15 H :    0.020586
  16 H :    0.053553
  17 H :    0.036252
  18 H :    0.040088
  19 H :    0.023619
  20 H :    0.040923
  21 H :    0.055269
  22 H :    0.017682
  23 H :    0.016863
  24 H :    0.031924
  25 H :    0.179216
  26 H :    0.058543
  27 H :    0.059336
  28 H :    0.035177
Sum of atomic charges:    0.0000000

--------------------------------
MULLIKEN REDUCED ORBITAL CHARGES
--------------------------------
  0 C s       :     0.960333  s :     0.960333
      pz      :     1.044572  p :     3.050794
      px      :     1.017768
      py      :     0.988454
      dz2     :     0.015577  d :     0.076438
      dxz     :     0.004863
      dyz     :     0.021505
      dx2y2   :     0.020315
      dxy     :     0.014177

  1 C s       :     1.099577  s :     1.099577
      pz      :     0.955354  p :     2.826563
      px      :     0.945858
      py      :     0.925351
      dz2     :     0.027122  d :     0.119373
      dxz     :     0.015982
      dyz     :     0.024755
      dx2y2   :     0.025411
      dxy     :     0.026103

  2 C s       :     1.028328  s :     1.028328
      pz      :     0.989764  p :     2.907348
      px      :     0.955923
      py      :     0.961662
      dz2     :     0.016487  d :     0.092131
      dxz     :     0.011202
      dyz     :     0.023209
      dx2y2   :     0.022265
      dxy     :     0.018968

  3 C s       :     0.993464  s :     0.993464
      pz      :     1.053712  p :     2.972005
      px      :     0.922356
      py      :     0.995937
      dz2     :     0.018166  d :     0.099400
      dxz     :     0.012511
      dyz     :     0.021557
      dx2y2   :     0.024637
      dxy     :     0.022528

  4 C s       :     1.000874  s :     1.000874
      pz      :     0.948645  p :     2.950549
      px      :     0.963199
      py      :     1.038705
      dz2     :     0.016129  d :     0.095618
      dxz     :     0.019746
      dyz     :     0.022375
      dx2y2   :     0.016771
      dxy     :     0.020598

  5 C s       :     1.099807  s :     1.099807
      pz      :     0.941952  p :     2.766532
      px      :     0.874772
      py      :     0.949808
      dz2     :     0.041494  d :     0.194033
      dxz     :     0.032757
      dyz     :     0.039331
      dx2y2   :     0.042220
      dxy     :     0.038231

  6 C s       :     0.950029  s :     0.950029
      pz      :     1.016650  p :     3.000958
      px      :     1.033431
      py      :     0.950877
      dz2     :     0.014198  d :     0.069228
      dxz     :     0.012381
      dyz     :     0.015045
      dx2y2   :     0.010693
      dxy     :     0.016910

  7 C s       :     1.044004  s :     1.044004
      pz      :     0.951872  p :     2.865894
      px      :     0.944479
      py      :     0.969543
      dz2     :     0.010322  d :     0.089199
      dxz     :     0.018653
      dyz     :     0.010207
      dx2y2   :     0.028522
      dxy     :     0.021496

  8 C s       :     1.006068  s :     1.006068
      pz      :     0.983109  p :     2.970143
      px      :     0.989730
      py      :     0.997304
      dz2     :     0.008673  d :     0.065008
      dxz     :     0.009087
      dyz     :     0.008260
      dx2y2   :     0.021885
      dxy     :     0.017104

  9 O s       :     1.652221  s :     1.652221
      pz      :     1.627628  p :     4.609206
      px      :     1.666667
      py      :     1.314911
      dz2     :     0.003601  d :     0.031459
      dxz     :     0.006311
      dyz     :     0.011089
      dx2y2   :     0.006417
      dxy     :     0.004040

 10 C s       :     0.956709  s :     0.956709
      pz      :     1.023472  p :     3.078537
      px      :     1.054716
      py      :     1.000349
      dz2     :     0.008261  d :     0.073148
      dxz     :     0.021294
      dyz     :     0.017880
      dx2y2   :     0.017617
      dxy     :     0.008096

 11 H s       :     0.910714  s :     0.910714
      pz      :     0.021321  p :     0.043770
      px      :     0.010414
      py      :     0.012035

 12 H s       :     0.925042  s :     0.925042
      pz      :     0.015947  p :     0.043482
      px      :     0.010267
      py      :     0.017268

 13 H s       :     0.909982  s :     0.909982
      pz      :     0.010621  p :     0.043859
      px      :     0.022276
      py      :     0.010963

 14 H s       :     0.947842  s :     0.947842
      pz      :     0.017644  p :     0.049362
      px      :     0.011503
      py      :     0.020215

 15 H s       :     0.933919  s :     0.933919
      pz      :     0.016179  p :     0.045495
      px      :     0.011109
      py      :     0.018207

 16 H s       :     0.903298  s :     0.903298
      pz      :     0.021121  p :     0.043150
      px      :     0.010767
      py      :     0.011262

 17 H s       :     0.922552  s :     0.922552
      pz      :     0.013216  p :     0.041196
      px      :     0.009207
      py      :     0.018772

 18 H s       :     0.917503  s :     0.917503
      pz      :     0.011767  p :     0.042408
      px      :     0.014791
      py      :     0.015850

 19 H s       :     0.931583  s :     0.931583
      pz      :     0.011162  p :     0.044798
      px      :     0.021753
      py      :     0.011882

 20 H s       :     0.915403  s :     0.915403
      pz      :     0.012755  p :     0.043673
      px      :     0.014556
      py      :     0.016362

 21 H s       :     0.902093  s :     0.902093
      pz      :     0.020655  p :     0.042638
      px      :     0.012518
      py      :     0.009466

 22 H s       :     0.934085  s :     0.934085
      pz      :     0.015392  p :     0.048234
      px      :     0.009720
      py      :     0.023121

 23 H s       :     0.932014  s :     0.932014
      pz      :     0.016245  p :     0.051123
      px      :     0.010598
      py      :     0.024279

 24 H s       :     0.918070  s :     0.918070
      pz      :     0.013516  p :     0.050007
      px      :     0.021828
      py      :     0.014663

 25 H s       :     0.724894  s :     0.724894
      pz      :     0.031082  p :     0.095889
      px      :     0.028310
      py      :     0.036496

 26 H s       :     0.896472  s :     0.896472
      pz      :     0.015001  p :     0.044985
      px      :     0.019742
      py      :     0.010242

 27 H s       :     0.896221  s :     0.896221
      pz      :     0.013725  p :     0.044443
      px      :     0.010869
      py      :     0.019849

 28 H s       :     0.920727  s :     0.920727
      pz      :     0.015372  p :     0.044096
      px      :     0.018476
      py      :     0.010247



                     *******************************
                     * LOEWDIN POPULATION ANALYSIS *
                     *******************************

----------------------
LOEWDIN ATOMIC CHARGES
----------------------
   0 C :   -0.121430
   1 C :   -0.049895
   2 C :   -0.062710
   3 C :   -0.086234
   4 C :   -0.078701
   5 C :   -0.066392
   6 C :   -0.097916
   7 C :   -0.032992
   8 C :   -0.068714
   9 O :   -0.070126
  10 C :   -0.116502
  11 H :    0.050068
  12 H :    0.051740
  13 H :    0.050324
  14 H :    0.028036
  15 H :    0.046436
  16 H :    0.053939
  17 H :    0.046427
  18 H :    0.050109
  19 H :    0.044002
  20 H :    0.050208
  21 H :    0.055007
  22 H :    0.040693
  23 H :    0.031512
  24 H :    0.036567
  25 H :    0.059555
  26 H :    0.052923
  27 H :    0.052874
  28 H :    0.051192

-------------------------------
LOEWDIN REDUCED ORBITAL CHARGES
-------------------------------
  0 C s       :     0.778201  s :     0.778201
      pz      :     1.060747  p :     3.099352
      px      :     1.027051
      py      :     1.011554
      dz2     :     0.048312  d :     0.243877
      dxz     :     0.015174
      dyz     :     0.070635
      dx2y2   :     0.065660
      dxy     :     0.044095

  1 C s       :     0.799904  s :     0.799904
      pz      :     0.955688  p :     2.870193
      px      :     0.969619
      py      :     0.944885
      dz2     :     0.078911  d :     0.379799
      dxz     :     0.059602
      dyz     :     0.078666
      dx2y2   :     0.080569
      dxy     :     0.082052

  2 C s       :     0.805858  s :     0.805858
      pz      :     0.994729  p :     2.955673
      px      :     0.974436
      py      :     0.986508
      dz2     :     0.045176  d :     0.301179
      dxz     :     0.046545
      dyz     :     0.076946
      dx2y2   :     0.072448
      dxy     :     0.060063

  3 C s       :     0.762128  s :     0.762128
      pz      :     1.051807  p :     3.010161
      px      :     0.946680
      py      :     1.011674
      dz2     :     0.054691  d :     0.313945
      dxz     :     0.040245
      dyz     :     0.070572
      dx2y2   :     0.078316
      dxy     :     0.070121

  4 C s       :     0.773324  s :     0.773324
      pz      :     0.974899  p :     2.996873
      px      :     0.976741
      py      :     1.045233
      dz2     :     0.052215  d :     0.308504
      dxz     :     0.065026
      dyz     :     0.073985
      dx2y2   :     0.052106
      dxy     :     0.065172

  5 C s       :     0.748563  s :     0.748563
      pz      :     0.951616  p :     2.768151
      px      :     0.896772
      py      :     0.919762
      dz2     :     0.114147  d :     0.549679
      dxz     :     0.097982
      dyz     :     0.113643
      dx2y2   :     0.114093
      dxy     :     0.109813

  6 C s       :     0.780606  s :     0.780606
      pz      :     1.034786  p :     3.084822
      px      :     1.064096
      py      :     0.985939
      dz2     :     0.048685  d :     0.232489
      dxz     :     0.040252
      dyz     :     0.049688
      dx2y2   :     0.035140
      dxy     :     0.058723

  7 C s       :     0.819882  s :     0.819882
      pz      :     0.903086  p :     2.920548
      px      :     1.006129
      py      :     1.011334
      dz2     :     0.027437  d :     0.292562
      dxz     :     0.059152
      dyz     :     0.035251
      dx2y2   :     0.101458
      dxy     :     0.069264

  8 C s       :     0.831445  s :     0.831445
      pz      :     0.935460  p :     3.021734
      px      :     1.051767
      py      :     1.034507
      dz2     :     0.023253  d :     0.215536
      dxz     :     0.026328
      dyz     :     0.030233
      dx2y2   :     0.079308
      dxy     :     0.056414

  9 O s       :     1.379615  s :     1.379615
      pz      :     1.624915  p :     4.611677
      px      :     1.616883
      py      :     1.369879
      dz2     :     0.008572  d :     0.078833
      dxz     :     0.011812
      dyz     :     0.025887
      dx2y2   :     0.020612
      dxy     :     0.011950

 10 C s       :     0.775826  s :     0.775826
      pz      :     1.030027  p :     3.105313
      px      :     1.062522
      py      :     1.012764
      dz2     :     0.023710  d :     0.235363
      dxz     :     0.072201
      dyz     :     0.056741
      dx2y2   :     0.058400
      dxy     :     0.024312

 11 H s       :     0.803073  s :     0.803073
      pz      :     0.063092  p :     0.146859
      px      :     0.040937
      py      :     0.042831

 12 H s       :     0.806506  s :     0.806506
      pz      :     0.051338  p :     0.141754
      px      :     0.038927
      py      :     0.051489

 13 H s       :     0.802886  s :     0.802886
      pz      :     0.041070  p :     0.146790
      px      :     0.064706
      py      :     0.041013

 14 H s       :     0.815459  s :     0.815459
      pz      :     0.053880  p :     0.156505
      px      :     0.039811
      py      :     0.062815

 15 H s       :     0.803499  s :     0.803499
      pz      :     0.053975  p :     0.150065
      px      :     0.039739
      py      :     0.056351

 16 H s       :     0.796546  s :     0.796546
      pz      :     0.064807  p :     0.149515
      px      :     0.040222
      py      :     0.044486

 17 H s       :     0.807360  s :     0.807360
      pz      :     0.048504  p :     0.146213
      px      :     0.037827
      py      :     0.059882

 18 H s       :     0.803145  s :     0.803145
      pz      :     0.043501  p :     0.146746
      px      :     0.050947
      py      :     0.052298

 19 H s       :     0.807308  s :     0.807308
      pz      :     0.042565  p :     0.148690
      px      :     0.063875
      py      :     0.042251

 20 H s       :     0.805543  s :     0.805543
      pz      :     0.045173  p :     0.144248
      px      :     0.048802
      py      :     0.050273

 21 H s       :     0.800979  s :     0.800979
      pz      :     0.060885  p :     0.144013
      px      :     0.045380
      py      :     0.037748

 22 H s       :     0.807037  s :     0.807037
      pz      :     0.048411  p :     0.152270
      px      :     0.035191
      py      :     0.068669

 23 H s       :     0.816231  s :     0.816231
      pz      :     0.048022  p :     0.152258
      px      :     0.037998
      py      :     0.066238

 24 H s       :     0.810425  s :     0.810425
      pz      :     0.044394  p :     0.153007
      px      :     0.061025
      py      :     0.047589

 25 H s       :     0.638175  s :     0.638175
      pz      :     0.106567  p :     0.302270
      px      :     0.080553
      py      :     0.115150

 26 H s       :     0.798403  s :     0.798403
      pz      :     0.048747  p :     0.148674
      px      :     0.059304
      py      :     0.040623

 27 H s       :     0.799632  s :     0.799632
      pz      :     0.046704  p :     0.147494
      px      :     0.041369
      py      :     0.059422

 28 H s       :     0.804058  s :     0.804058
      pz      :     0.049283  p :     0.144750
      px      :     0.056830
      py      :     0.038637



                      *****************************
                      * MAYER POPULATION ANALYSIS *
                      *****************************

  NA   - Mulliken gross atomic population
  ZA   - Total nuclear charge
  QA   - Mulliken gross atomic charge
  VA   - Mayer's total valence
  BVA  - Mayer's bonded valence
  FA   - Mayer's free valence

  ATOM       NA         ZA         QA         VA         BVA        FA
  0 C      4.0876     4.0000    -0.0876     3.9841     3.9841    -0.0000
  1 C      4.0455     4.0000    -0.0455     4.0662     4.0662     0.0000
  2 C      4.0278     4.0000    -0.0278     3.9601     3.9601     0.0000
  3 C      4.0649     4.0000    -0.0649     3.9883     3.9883    -0.0000
  4 C      4.0470     4.0000    -0.0470     3.9391     3.9391     0.0000
  5 C      4.0604     4.0000    -0.0604     4.1479     4.1479    -0.0000
  6 C      4.0202     4.0000    -0.0202     3.9340     3.9340    -0.0000
  7 C      3.9991     4.0000     0.0009     4.0035     4.0035    -0.0000
  8 C      4.0412     4.0000    -0.0412     3.9916     3.9916     0.0000
  9 O      6.2929     6.0000    -0.2929     1.9904     1.9904    -0.0000
 10 C      4.1084     4.0000    -0.1084     3.9922     3.9922    -0.0000
 11 H      0.9545     1.0000     0.0455     1.0193     1.0193    -0.0000
 12 H      0.9685     1.0000     0.0315     1.0327     1.0327    -0.0000
 13 H      0.9538     1.0000     0.0462     1.0205     1.0205    -0.0000
 14 H      0.9972     1.0000     0.0028     1.0424     1.0424     0.0000
 15 H      0.9794     1.0000     0.0206     1.0356     1.0356    -0.0000
 16 H      0.9464     1.0000     0.0536     1.0072     1.0072    -0.0000
 17 H      0.9637     1.0000     0.0363     1.0273     1.0273     0.0000
 18 H      0.9599     1.0000     0.0401     1.0144     1.0144     0.0000
 19 H      0.9764     1.0000     0.0236     1.0357     1.0357    -0.0000
 20 H      0.9591     1.0000     0.0409     1.0136     1.0136    -0.0000
 21 H      0.9447     1.0000     0.0553     1.0287     1.0287     0.0000
 22 H      0.9823     1.0000     0.0177     1.0553     1.0553    -0.0000
 23 H      0.9831     1.0000     0.0169     1.0430     1.0430     0.0000
 24 H      0.9681     1.0000     0.0319     1.0372     1.0372     0.0000
 25 H      0.8208     1.0000     0.1792     1.0642     1.0642    -0.0000
 26 H      0.9415     1.0000     0.0585     1.0178     1.0178    -0.0000
 27 H      0.9407     1.0000     0.0593     1.0129     1.0129     0.0000
 28 H      0.9648     1.0000     0.0352     1.0320     1.0320    -0.0000

  Mayer bond orders larger than 0.100000
B(  0-C ,  1-C ) :   1.0258 B(  0-C , 11-H ) :   0.9818 B(  0-C , 12-H ) :   0.9957 
B(  0-C , 13-H ) :   0.9828 B(  1-C ,  2-C ) :   1.9024 B(  1-C , 10-C ) :   1.0187 
B(  2-C ,  3-C ) :   1.0095 B(  2-C , 14-H ) :   0.9946 B(  3-C ,  4-C ) :   0.9890 
B(  3-C , 15-H ) :   0.9965 B(  3-C , 16-H ) :   0.9886 B(  4-C ,  5-C ) :   0.9808 
B(  4-C , 17-H ) :   0.9909 B(  4-C , 18-H ) :   0.9949 B(  5-C ,  6-C ) :   1.0017 
B(  5-C ,  7-C ) :   1.0338 B(  5-C ,  9-O ) :   1.0004 B(  6-C , 19-H ) :   0.9936 
B(  6-C , 20-H ) :   0.9897 B(  6-C , 21-H ) :   0.9898 B(  7-C ,  8-C ) :   1.9440 
B(  7-C , 22-H ) :   0.9964 B(  8-C , 23-H ) :   1.0026 B(  8-C , 24-H ) :   0.9932 
B(  9-O , 25-H ) :   1.0287 B( 10-C , 26-H ) :   0.9819 B( 10-C , 27-H ) :   0.9820 
B( 10-C , 28-H ) :   0.9948 

-------
TIMINGS
-------

Total SCF time: 0 days 0 hours 0 min 58 sec 

Total time                  ....      58.214 sec
Sum of individual times     ....      56.025 sec  ( 96.2%)

SCF preparation             ....       2.681 sec  (  4.6%)
Fock matrix formation       ....      52.029 sec  ( 89.4%)
  Startup                   ....       0.197 sec  (  0.4% of F)
  Split-RI-J                ....       1.720 sec  (  3.3% of F)
  Chain of spheres X        ....      25.060 sec  ( 48.2% of F)
  XC integration            ....      24.470 sec  ( 47.0% of F)
    XC Preparation          ....       0.000 sec  (  0.0% of XC)
    Basis function eval.    ....       0.614 sec  (  2.5% of XC)
    Density eval.           ....       0.298 sec  (  1.2% of XC)
    XC-Functional eval.     ....       0.177 sec  (  0.7% of XC)
    XC-Potential eval.      ....       0.368 sec  (  1.5% of XC)
Diagonalization             ....       0.000 sec  (  0.0%)
Density matrix formation    ....       0.195 sec  (  0.3%)
Total Energy calculation    ....       0.277 sec  (  0.5%)
Population analysis         ....       0.082 sec  (  0.1%)
Orbital Transformation      ....       0.059 sec  (  0.1%)
Orbital Orthonormalization  ....       0.000 sec  (  0.0%)
DIIS solution               ....       0.495 sec  (  0.8%)
SOSCF solution              ....       0.208 sec  (  0.4%)
Finished LeanSCF after  58.3 sec

Maximum memory used throughout the entire LEANSCF-calculation: 45.9 MB


           ************************************************************
           *        Program running with 40 parallel MPI-processes    *
[...]
 34:    971.48   0.006265   31.66  0.002012  (-0.034969 -0.026964 -0.007908)
 35:    986.34   0.000149    0.75  0.000047  (-0.004550 -0.005093 -0.000686)
 36:   1005.69   0.001124    5.68  0.000349  (-0.010041 -0.015497 -0.002806)
 37:   1033.69   0.000764    3.86  0.000231  ( 0.011836 -0.003856 -0.008699)
 38:   1041.28   0.001293    6.53  0.000387  (-0.002498 -0.018513 -0.006208)
 39:   1059.66   0.002301   11.63  0.000678  ( 0.015457  0.020911 -0.001152)
 40:   1066.00   0.002045   10.34  0.000599  (-0.023165 -0.005254 -0.005869)
 41:   1092.83   0.002901   14.66  0.000828  ( 0.024483  0.010674  0.010723)
 42:   1128.51   0.003208   16.21  0.000887  ( 0.023034  0.013615  0.013084)
 43:   1131.59   0.004559   23.04  0.001257  (-0.022431 -0.020906 -0.017807)
 44:   1167.64   0.000688    3.48  0.000184  ( 0.001179 -0.012153 -0.005904)
 45:   1200.34   0.007885   39.85  0.002050  ( 0.038320  0.013389  0.020058)
 46:   1219.24   0.000934    4.72  0.000239  (-0.006374 -0.012897 -0.005677)
 47:   1270.07   0.003352   16.94  0.000824  ( 0.026648 -0.009162  0.005429)
 48:   1297.71   0.002692   13.60  0.000647  ( 0.025142  0.003728  0.001169)
 49:   1304.29   0.003067   15.50  0.000734  (-0.013427 -0.013727 -0.019106)
 50:   1349.82   0.000174    0.88  0.000040  ( 0.006295  0.000743  0.000357)
 51:   1368.11   0.000525    2.65  0.000120  ( 0.002192  0.000271 -0.010713)
 52:   1399.86   0.002293   11.59  0.000511  (-0.017174 -0.007752 -0.012493)
 53:   1421.86   0.000604    3.05  0.000133  ( 0.004161 -0.003550 -0.010137)
 54:   1435.44   0.001864    9.42  0.000405  (-0.004894  0.013775  0.013842)
 55:   1448.74   0.002134   10.78  0.000460  ( 0.005255  0.009679 -0.018395)
 56:   1451.20   0.003661   18.50  0.000787  (-0.007789 -0.021868  0.015762)
 57:   1461.49   0.003091   15.62  0.000660  ( 0.008930 -0.015305  0.018604)
 58:   1477.59   0.003876   19.59  0.000819  (-0.020088  0.003418 -0.020083)
 59:   1498.72   0.000046    0.23  0.000010  ( 0.002860  0.001104 -0.000376)
 60:   1503.84   0.000421    2.13  0.000087  ( 0.009221 -0.001005 -0.001140)
 61:   1511.79   0.000422    2.13  0.000087  (-0.001003 -0.007659  0.005237)
 62:   1519.39   0.005588   28.24  0.001148  ( 0.019103 -0.022358 -0.016818)
 63:   1522.00   0.001295    6.55  0.000266  (-0.002787 -0.011681  0.011018)
 64:   1524.11   0.000213    1.08  0.000044  (-0.004600  0.002040  0.004271)
 65:   1527.75   0.002355   11.90  0.000481  (-0.016250 -0.002555 -0.014503)
 66:   1535.65   0.000724    3.66  0.000147  (-0.004802  0.009379 -0.006005)
 67:   1765.70   0.002333   11.79  0.000412  ( 0.015368 -0.008890  0.009860)
 68:   1804.51   0.001001    5.06  0.000173  ( 0.010994  0.001277  0.007118)
 69:   3093.58   0.006426   32.47  0.000648  ( 0.018970  0.016977  0.000372)
 70:   3095.54   0.003878   19.60  0.000391  ( 0.009308 -0.015369  0.008253)
 71:   3102.19   0.008460   42.75  0.000851  (-0.020342  0.001610 -0.020848)
 72:   3107.10   0.003741   18.91  0.000376  ( 0.004440 -0.009650 -0.016215)
 73:   3115.17   0.003324   16.80  0.000333  ( 0.002602  0.017397 -0.004854)
 74:   3156.74   0.004529   22.89  0.000448  (-0.012391 -0.016769 -0.003602)
 75:   3169.55   0.001195    6.04  0.000118  (-0.006780  0.005954  0.006023)
 76:   3173.08   0.002901   14.66  0.000285  (-0.010082  0.009666  0.009496)
 77:   3179.18   0.000919    4.64  0.000090  (-0.001933 -0.004507  0.008135)
 78:   3194.18   0.003288   16.62  0.000321  (-0.002693 -0.012560  0.012499)
 79:   3205.51   0.003604   18.21  0.000351  (-0.004537  0.008726 -0.015942)
 80:   3209.56   0.001363    6.89  0.000132  (-0.007602  0.006131 -0.006090)
 81:   3211.21   0.002712   13.71  0.000264  ( 0.007518 -0.007103 -0.012514)
 82:   3218.45   0.003193   16.14  0.000310  (-0.014824  0.002542 -0.009131)
 83:   3225.17   0.000932    4.71  0.000090  (-0.007278  0.003451  0.005033)
 84:   3240.70   0.002375   12.00  0.000229  (-0.008248 -0.012306  0.003042)
 85:   3308.56   0.000887    4.48  0.000084  (-0.006335  0.003944  0.005288)
 86:   3932.09   0.013723   69.35  0.001089  (-0.027810 -0.014987  0.009545)

* The epsilon (eps) is given for a Dirac delta lineshape.
** The dipole moment derivative (T) already includes vibrational overlap.

The first frequency considered to be a vibration is 6
The total number of vibrations considered is 81


--------------------------
THERMOCHEMISTRY AT 298.15K
--------------------------

Temperature         ...   298.15 K
Pressure            ...     1.00 atm
Total Mass          ...   154.25 AMU
Quasi RRHO          ...     True
Cut-Off Frequency   ...     1.00 cm^-1

Throughout the following assumptions are being made:
  (1) The electronic state is orbitally nondegenerate
  (2) There are no thermally accessible electronically excited states
  (3) Hindered rotations indicated by low frequency modes are not
      treated as such but are treated as vibrations and this may
      cause some error
  (4) All equations used are the standard statistical mechanics
      equations for an ideal gas
  (5) All vibrations are strictly harmonic

freq.      41.21  E(vib)   ...       0.54 
freq.      64.01  E(vib)   ...       0.51 
freq.      68.92  E(vib)   ...       0.50 
freq.     103.40  E(vib)   ...       0.46 
freq.     113.29  E(vib)   ...       0.45 
freq.     163.88  E(vib)   ...       0.39 
freq.     192.03  E(vib)   ...       0.36 
freq.     209.14  E(vib)   ...       0.34 
freq.     239.86  E(vib)   ...       0.31 
freq.     261.62  E(vib)   ...       0.30 
freq.     277.76  E(vib)   ...       0.28 
freq.     318.43  E(vib)   ...       0.25 
freq.     330.14  E(vib)   ...       0.24 
freq.     365.39  E(vib)   ...       0.22 
freq.     389.81  E(vib)   ...       0.20 
freq.     411.14  E(vib)   ...       0.19 
freq.     435.07  E(vib)   ...       0.17 
freq.     487.11  E(vib)   ...       0.15 
freq.     513.54  E(vib)   ...       0.13 
freq.     531.34  E(vib)   ...       0.13 
freq.     583.58  E(vib)   ...       0.11 
freq.     717.31  E(vib)   ...       0.07 
freq.     733.26  E(vib)   ...       0.06 
freq.     798.30  E(vib)   ...       0.05 
freq.     874.99  E(vib)   ...       0.04 
freq.     901.03  E(vib)   ...       0.03 
freq.     957.24  E(vib)   ...       0.03 
freq.     967.42  E(vib)   ...       0.03 
freq.     971.48  E(vib)   ...       0.03 
freq.     986.34  E(vib)   ...       0.02 
freq.    1005.69  E(vib)   ...       0.02 
freq.    1033.69  E(vib)   ...       0.02 
freq.    1041.28  E(vib)   ...       0.02 
freq.    1059.66  E(vib)   ...       0.02 
freq.    1066.00  E(vib)   ...       0.02 
freq.    1092.83  E(vib)   ...       0.02 
freq.    1128.51  E(vib)   ...       0.01 
freq.    1131.59  E(vib)   ...       0.01 
freq.    1167.64  E(vib)   ...       0.01 
freq.    1200.34  E(vib)   ...       0.01 
freq.    1219.24  E(vib)   ...       0.01 
freq.    1270.07  E(vib)   ...       0.01 
freq.    1297.71  E(vib)   ...       0.01 
freq.    1304.29  E(vib)   ...       0.01 
freq.    1349.82  E(vib)   ...       0.01 
freq.    1368.11  E(vib)   ...       0.01 
freq.    1399.86  E(vib)   ...       0.00 
freq.    1421.86  E(vib)   ...       0.00 
freq.    1435.44  E(vib)   ...       0.00 
freq.    1448.74  E(vib)   ...       0.00 
freq.    1451.20  E(vib)   ...       0.00 
freq.    1461.49  E(vib)   ...       0.00 
freq.    1477.59  E(vib)   ...       0.00 
freq.    1498.72  E(vib)   ...       0.00 
freq.    1503.84  E(vib)   ...       0.00 
freq.    1511.79  E(vib)   ...       0.00 
freq.    1519.39  E(vib)   ...       0.00 
freq.    1522.00  E(vib)   ...       0.00 
freq.    1524.11  E(vib)   ...       0.00 
freq.    1527.75  E(vib)   ...       0.00 
freq.    1535.65  E(vib)   ...       0.00 
freq.    1765.70  E(vib)   ...       0.00 
freq.    1804.51  E(vib)   ...       0.00 
freq.    3093.58  E(vib)   ...       0.00 
freq.    3095.54  E(vib)   ...       0.00 
freq.    3102.19  E(vib)   ...       0.00 
freq.    3107.10  E(vib)   ...       0.00 
freq.    3115.17  E(vib)   ...       0.00 
freq.    3156.74  E(vib)   ...       0.00 
freq.    3169.55  E(vib)   ...       0.00 
freq.    3173.08  E(vib)   ...       0.00 
freq.    3179.18  E(vib)   ...       0.00 
freq.    3194.18  E(vib)   ...       0.00 
freq.    3205.51  E(vib)   ...       0.00 
freq.    3209.56  E(vib)   ...       0.00 
freq.    3211.21  E(vib)   ...       0.00 
freq.    3218.45  E(vib)   ...       0.00 
freq.    3225.17  E(vib)   ...       0.00 
freq.    3240.70  E(vib)   ...       0.00 
freq.    3308.56  E(vib)   ...       0.00 
freq.    3932.09  E(vib)   ...       0.00 

------------
INNER ENERGY
------------

The inner energy is: U= E(el) + E(ZPE) + E(vib) + E(rot) + E(trans)
    E(el)   - is the total energy from the electronic structure calculation
              = E(kin-el) + E(nuc-el) + E(el-el) + E(nuc-nuc)
    E(ZPE)  - the the zero temperature vibrational energy from the frequency calculation
    E(vib)  - the the finite temperature correction to E(ZPE) due to population
              of excited vibrational states
    E(rot)  - is the rotational thermal energy
    E(trans)- is the translational thermal energy

Summary of contributions to the inner energy U:
Electronic energy                ...    -83.86228269 Eh
Zero point energy                ...      0.26538773 Eh     166.53 kcal/mol
Thermal vibrational correction   ...      0.01087050 Eh       6.82 kcal/mol
Thermal rotational correction    ...      0.00141627 Eh       0.89 kcal/mol
Thermal translational correction ...      0.00141627 Eh       0.89 kcal/mol
-----------------------------------------------------------------------
Total thermal energy                    -83.58319192 Eh


Summary of corrections to the electronic energy:
(perhaps to be used in another calculation)
Total thermal correction                  0.01370304 Eh       8.60 kcal/mol
Non-thermal (ZPE) correction              0.26538773 Eh     166.53 kcal/mol
-----------------------------------------------------------------------
Total correction                          0.27909078 Eh     175.13 kcal/mol


--------
ENTHALPY
--------

The enthalpy is H = U + kB*T
                kB is Boltzmann's constant
Total thermal energy              ...    -83.58319192 Eh 
Thermal Enthalpy correction       ...      0.00094421 Eh       0.59 kcal/mol
-----------------------------------------------------------------------
Total Enthalpy                    ...    -83.58224771 Eh


Note: Only C1 symmetry has been detected, increase convergence thresholds 
      if your molecule has a higher symmetry. Symmetry factor of 1.0 is   
      used for the rotational entropy correction. 
 

Note: Rotational entropy computed according to Herzberg 
Infrared and Raman Spectra, Chapter V,1, Van Nostrand Reinhold, 1945 
Point Group:  C1, Symmetry Number:   1  
Rotational constants in cm-1:     0.064968     0.018985     0.018172 

Vibrational entropy computed according to the QRRHO of S. Grimme
Chem.Eur.J. 2012 18 9955 using a reference frequency of 100.0 cm-1


-------
ENTROPY
-------

The entropy contributions are T*S = T*(S(el)+S(vib)+S(rot)+S(trans))
     S(el)   - electronic entropy
     S(vib)  - vibrational entropy
     S(rot)  - rotational entropy
     S(trans)- translational entropy
The entropies will be listed as multiplied by the temperature to get
units of energy

Electronic entropy                ...      0.00000000 Eh      0.00 kcal/mol
Vibrational entropy               ...      0.01895497 Eh     11.89 kcal/mol
Rotational entropy                ...      0.01456493 Eh      9.14 kcal/mol
Translational entropy             ...      0.01948509 Eh     12.23 kcal/mol
-----------------------------------------------------------------------
Final entropy term                ...      0.05300499 Eh     33.26 kcal/mol

In case the symmetry of your molecule has not been determined correctly
or in case you have a reason to use a different symmetry number we print 
out the resulting rotational entropy values for sn=1,12:

 non-linear molecules -----------------------------------
|  sn= 1 | S(rot)=       0.01456493 Eh      9.14 kcal/mol|
|  sn= 2 | S(rot)=       0.01391048 Eh      8.73 kcal/mol|
|  sn= 3 | S(rot)=       0.01352765 Eh      8.49 kcal/mol|
|  sn= 4 | S(rot)=       0.01325602 Eh      8.32 kcal/mol|
|  sn= 5 | S(rot)=       0.01304533 Eh      8.19 kcal/mol|
|  sn= 6 | S(rot)=       0.01287319 Eh      8.08 kcal/mol|
|  sn= 7 | S(rot)=       0.01272764 Eh      7.99 kcal/mol|
|  sn= 8 | S(rot)=       0.01260157 Eh      7.91 kcal/mol|
|  sn= 9 | S(rot)=       0.01249036 Eh      7.84 kcal/mol|
|  sn=10 | S(rot)=       0.01239088 Eh      7.78 kcal/mol|
|  sn=11 | S(rot)=       0.01230089 Eh      7.72 kcal/mol|
|  sn=12 | S(rot)=       0.01221873 Eh      7.67 kcal/mol|
 linear molecules ---------------------------------------
|  Dinfh | S(rot)=       0.00910994 Eh      5.72 kcal/mol|
|  Cinfv | S(rot)=       0.00976440 Eh      6.13 kcal/mol|
 --------------------------------------------------------


-------------------
GIBBS FREE ENERGY
-------------------

The Gibbs free energy is G = H - T*S

Total enthalpy                    ...    -83.58224771 Eh 
Total entropy correction          ...     -0.05300499 Eh    -33.26 kcal/mol
-----------------------------------------------------------------------
Final Gibbs free energy         ...    -83.63525270 Eh

For completeness - the Gibbs free energy minus the electronic energy
G-E(el)                           ...      0.22702999 Eh    142.46 kcal/mol


Maximum memory used throughout the entire PROP-calculation: 140.3 MB

--------------------------------
SUGGESTED CITATIONS FOR THIS RUN
--------------------------------

Below you find a list of papers that are relevant to this ORCA run
We neither can nor want to force you to cite these papers, but we appreciate if you do
You receive ORCA, which is the product of decades of hard work by many enthusiastic individuals, for free
The only thing we kindly ask in return is that you cite our papers,
We deeply appreciate it, if you show your appreciation for ORCA by not just citing the generic ORCA reference.

Please note that relegating all ORCA citations to the supporting information does *not* help us.
SI sections are not indexed - citations you put there will not count into any citation statistics
But we need these citations in order to attract the funding resources that allow us to do what we are doing

Therefore, if you are a happy ORCA user, please consider citing a few of the papers listed below in the main body of your paper

In addition to the list printed below, the program has created the file ./output/linalool/linalool.bibtex that contains the list in bibtex format
You can import this file easily into all common literature databanks and citation aid programs


List of essential papers. We consider these as the minimum necessary citations

  1. Neese,F.
     Software update: the ORCA program system, version 5.0
     WIRES Comput. Molec. Sci., 2022 12(1)e1606
     doi.org/10.1002/wcms.1606
  2. Mueller,M.; Hansen,A.; Grimme,S.
     wB97X-3c: A composite range-separated hybrid DFT method with a molecule-optimized polarized valence double-zeta basis set
     J. Chem. Phys., 2023 158 014103
     doi.org/10.1063/5.0133026

List of papers to cite with high priority. The work reported in these papers was absolutely
necessary for this run to complete.
Our perspective: the developers of density functionals and basis sets usually get cited in chemistry papers
Good! But without the algorithms to do something with them, the functionals or basis sets would not do anything.
Hence, in our opinion, the algorithm design and method developments papers are equally worthy of getting cited

  1. Neese,F.
     An improvement of the resolution of the identity approximation for the formation of the Coulomb matrix
     J. Comp. Chem., 2003 24(14)1740-1747
     doi.org/10.1002/jcc.10318
  2. Neese,F.; Wennmohs,F.; Hansen,A.; Becker,U.
     Efficient, approximate and parallel Hartree-Fock and hybrid DFT calculations. A 'chain-of-spheres' algorithm for the Hartree-Fock exchange
     Chem. Phys., 2009 356(1-3)98-109
     doi.org/10.1016/j.chemphys.2008.10.036
  3. Bykov,D.; Petrenko,T.; Izsak,R.; Kossmann,S.; Becker,U.; Valeev,E.; Neese,F.
     Efficient implementation of the analytic second derivatives of Hartree-Fock and hybrid DFT energies: a detailed analysis of different approximations
     Molec. Phys., 2015 113 1961-1977
     doi.org/10.1080/00268976.2015.1025114
  4. Helmich-Paris,B.; de Souza,B.; Neese,F.; Izsák,R.
     An improved chain of spheres for exchange algorithm
     J. Chem. Phys., 2021 155 104109
     doi.org/doi: 10.1063/5.0058766.
  5. Neese,F.
     The SHARK Integral Generation and Digestion System
     J. Comp. Chem., 2022  1-16
     doi.org/10.1002/jcc.26942
  6. Caldeweyher,E.; Bannwarth,C.; Grimme,S.
     Extension of the D3 dispersion coefficient model
     J. Chem. Phys., 2017 147 034112
     doi.org/10.1063/1.4993215
  7. Caldeweyher,E.; Ehlert,S.; Hansen,A.; Neugebauer,H.; Spicher,S.; Bannwarth,C.; Grimme,S.
     A generally applicable atomic-charge dependent London dispersion correction
     J. Chem. Phys., 2019 150 154122
     doi.org/10.1063/1.5090222
  8. Caldeweyher,E.; Mewes,J.; Ehlert,S.; Grimme,S.
     Extension and evaluation of the D4 London-dispersion model for periodic systems
     Phys. Chem. Chem. Phys., 2020 22(16)8499-8512
     doi.org/10.1039/D0CP00502A
  9. Wittmann,L.; Gordiy,I.; Friede,M.; Helmich-Paris,B.; Grimme,S.; Hansen,A.; Bursch,M.
     Extension of the D3 and D4 London Dispersion Corrections to the full Actinides Series
     Phys. Chem. Chem. Phys., 2024 26(32)21379-21394
     doi.org/https://doi.org/10.1039/D4CP01514B 

List of suggested additional citations. These are papers that are important in the 'surrounding' of 
of this run, or papers that preceded the highly important papers. If you like your results we are grateful for a citation.

  1. Izsak,R.; Neese,F.
     An overlap fitted chain of spheres exchange method
     J. Chem. Phys., 2011 135 144105
     doi.org/10.1063/1.3646921
  2. Izsak,R.; Hansen,A.; Neese,F.
     The resolution of identity and chain of spheres approximations for the LPNO-CCSD singles Fock term
     Molec. Phys., 2012 110 2413-2417
     doi.org/10.1080/00268976.2012.687466
  3. Neese,F.
     The ORCA program system
     WIRES Comput. Molec. Sci., 2012 2(1)73-78
     doi.org/10.1002/wcms.81
  4. Izsak,R.; Neese,F.; Klopper,W.
     Robust fitting techniques in the chain of spheres approximation to the Fock exchange: The role of the complementary space
     J. Chem. Phys., 2013 139 
     doi.org/10.1063/1.4819264
  5. Neese,F.
     Software update: the ORCA program system, version 4.0
     WIRES Comput. Molec. Sci., 2018 8(1)1-6
     doi.org/10.1002/wcms.1327
  6. Neese,F.; Wennmohs,F.; Becker,U.; Riplinger,C.
     The ORCA quantum chemistry program package
     J. Chem. Phys., 2020 152 Art. No. L224108
     doi.org/10.1063/5.0004608

List of optional additional citations

  1. Neese,F.
     Approximate second-order SCF convergence for spin unrestricted wavefunctions
     Chem. Phys. Lett., 2000 325(1-3)93-98
     doi.org/10.1016/s0009-2614(00)00662-x

Timings for individual modules:

Sum of individual times          ...     1890.753 sec (=  31.513 min)
Startup calculation              ...      109.796 sec (=   1.830 min)   5.8 %
SCF iterations                   ...     1304.567 sec (=  21.743 min)  69.0 %
Property integrals               ...       76.294 sec (=   1.272 min)   4.0 %
SCF Response                     ...       41.129 sec (=   0.685 min)   2.2 %
Property calculations            ...       96.171 sec (=   1.603 min)   5.1 %
SCF Gradient evaluation          ...      262.158 sec (=   4.369 min)  13.9 %
Geometry relaxation              ...        0.635 sec (=   0.011 min)   0.0 %
                             ****ORCA TERMINATED NORMALLY****
TOTAL RUN TIME: 0 days 0 hours 31 minutes 44 seconds 104 msec
