
                                 *****************
                                 * O   R   C   A *
                                 *****************

                                            #,                                       
                                            ###                                      
                                            ####                                     
                                            #####                                    
                                            ######                                   
                                           ########,                                 
                                     ,,################,,,,,                         
                               ,,#################################,,                 
                          ,,##########################################,,             
                       ,#########################################, ''#####,          
                    ,#############################################,,   '####,        
                  ,##################################################,,,,####,       
                ,###########''''           ''''###############################       
              ,#####''   ,,,,##########,,,,          '''####'''          '####       
            ,##' ,,,,###########################,,,                        '##       
           ' ,,###''''                  '''############,,,                           
         ,,##''                                '''############,,,,        ,,,,,,###''
      ,#''                                            '''#######################'''  
     '                                                          ''''####''''         
             ,#######,   #######,   ,#######,      ##                                
            ,#'     '#,  ##    ##  ,#'     '#,    #''#        ,####,   ,####,        
            ##       ##  ##   ,#'  ##            #'  '#       #'       #'  '#        
            ##       ##  #######   ##           ,######,      #####,   #    #        
            '#,     ,#'  ##    ##  '#,     ,#' ,#      #,     #,   #   #,  ,#        
             '#######'   ##     ##  '#######'  #'      '#     '####' # '####'        



                #########################################################
                #                        -***-                          #
                #          Department of theory and spectroscopy        #
                #                                                       #
                #                      Frank Neese                      #
                #                                                       #
                #     Directorship, Architecture, Infrastructure        #
                #                    SHARK, DRIVERS                     #
                #        Core code/Algorithms in most modules           #
                #                                                       #
                #        Max Planck Institute fuer Kohlenforschung      #
                #                Kaiser Wilhelm Platz 1                 #
                #                 D-45470 Muelheim/Ruhr                 #
                #                      Germany                          #
                #                                                       #
                #                  All rights reserved                  #
                #                        -***-                          #
                #########################################################


                         Program Version 6.0.1  -  RELEASE   -


 With contributions from (in alphabetic order):
[Max-Planck-Institut fuer Kohlenforschung]                               
  Daniel Aravena         : Magnetic Suceptibility                        
  Michael Atanasov       : Ab Initio Ligand Field Theory (pilot matlab implementation)
  Alexander A. Auer      : GIAO ZORA, VPT2 properties, NMR spectrum      
  Ute Becker             : All parallelization in ORCA, NUMFREQ, NUMCALC 
  Giovanni Bistoni       : ED, misc. LED, open-shell LED, HFLD           
  Martin Brehm           : Molecular dynamics                            
  Dmytro Bykov           : pre 5.0 version of the SCF Hessian            
  Marcos Casanova-Páez   : Triplet and SCS-CIS(D). UHF-(DLPNO)-IP/EA/STEOM-CCSD. UHF-CVS-IP/STEOM-CCSD   
  Vijay G. Chilkuri      : MRCI spin determinant printing, contributions to CSF-ICE 
  Pauline Colinet        : FMM embedding                                 
  Dipayan Datta          : RHF DLPNO-CCSD density                        
  Achintya Kumar Dutta   : EOM-CC, STEOM-CC                              
  Nicolas Foglia         : Exact transition moments, OPA infrastructure, MCD improvements    
  Dmitry Ganyushin       : Spin-Orbit,Spin-Spin,Magnetic field MRCI      
  Miquel Garcia-Rates    : C-PCM and meta-GGA Hessian, CCSD/C-PCM, Gaussian charge scheme 
  Tiago L. C. Gouveia    : GS-ROHF, GS-ROCIS                             
  Yang Guo               : DLPNO-NEVPT2, F12-NEVPT2, CIM, IAO-localization        
  Andreas Hansen         : Spin unrestricted coupled pair/coupled cluster methods 
  Ingolf Harden          : AUTO-CI MPn and infrastructure                
  Benjamin Helmich-Paris : MC-RPA, TRAH-(SCF,CASSCF), AVAS, COSX integrals, SCF dyn. polar. 
  Lee Huntington         : MR-EOM, pCC                                   
  Robert Izsak           : Overlap fitted RIJCOSX, COSX-SCS-MP3, EOM     
  Riya Kayal             : Wick's Theorem for AUTO-CI, AUTO-CI UHF-CCSDT 
  Emily Kempfer          : AUTO-CI, RHF CISDT and CCSDT                  
  Christian Kollmar      : KDIIS, OOCD, Brueckner-CCSD(T), CCSD density, CASPT2, CASPT2-K, improved NEVPT2 
  Axel Koslowski         : Symmetry handling                             
  Simone Kossmann        : meta-GGA functionals, TD-DFT gradient, OOMP2, (MP2 Hessian; deprecated post 5.0) 
  Lucas Lang             : DCDCAS                                        
  Marvin Lechner         : AUTO-CI (C++ implementation), FIC-MRCC        
  Spencer Leger          : CASSCF response                               
  Dagmar Lenk            : GEPOL surface, SMD, ORCA-2-JSON               
  Dimitrios Liakos       : Extrapolation schemes; Compound Job, initial MDCI parallelization 
  Dimitrios Manganas     : Further ROCIS development; embedding schemes. LFT, Crystal Embedding 
  Dimitrios Pantazis     : SARC Basis sets                               
  Anastasios Papadopoulos: AUTO-CI, single reference methods and gradients 
  Taras Petrenko         : pre 6.0 DFT Hessian and TD-DFT gradient, (ASA, deprecated), ECA, 1-Electron XAS/XES, NRVS 
  Peter Pinski           : DLPNO-MP2, DLPNO-MP2 Gradient                 
  Christoph Reimann      : Effective Core Potentials                     
  Marius Retegan         : Local ZFS, SOC                                
  Christoph Riplinger    : Optimizer, TS searches, QM/MM, DLPNO-CCSD(T), (RO)-DLPNO pert. Triples 
  Michael Roemelt        : Original ROCIS implementation                 
  Masaaki Saitow         : Open-shell DLPNO-CCSD energy and density      
  Barbara Sandhoefer     : DKH picture change effects                    
  Kantharuban Sivalingam : CASSCF convergence/infrastructure, NEVPT2 and variants, FIC-MRCI 
  Bernardo de Souza      : ESD, SOC TD-DFT                               
  Georgi L. Stoychev     : AutoAux, RI-MP2 NMR, DLPNO-MP2 response, X2C  
  Van Anh Tran           : RI-MP2 g-tensors                              
  Willem Van den Heuvel  : Paramagnetic NMR                              
  Zikuan Wang            : NOTCH, Electric field optimization            
  Frank Wennmohs         : Technical directorship and infrastructure     
  Hang Xu                : AUTO-CI-Response properties                   
                                                                         
[FACCTs GmbH]                                                            
  Markus Bursch, Miquel Garcia-Rates, Christoph Riplinger, Bernardo de Souza, Georgi L. Stoychev 
                                                                 
  APM, Basis sets (HGBS, AHGBS, def-TZVP (Ac-Lr), def2-XVPD (La-Lu)), CI-OPT, improved COSX, DLPNO-Multilevel,           
  DOCKER, DRACO, updates on ESD, GOAT, IRC, LR-CPCM, MBIS, meta-GGA TD-DFT gradient, ML-optimized integration grids, 
  MM, NACMEs, nearIR, NEB, NEB-TS, NL-DFT gradient (VV10), 2- and 3-layer-ONIOM, interface openCOSMO-RS, QMMM,   
  Crystal-QMMM, SF, symmetry and pop. for TD-DFT, r2SCAN hybrids, SOLVATOR                                   
                                                                         
[Other institutions]                                                     
  V. Asgeirsson          : NEB                                           
  Christoph Bannwarth    : sTDA-DFT, sTD-DFT, PBEh-3c, B97-3c, D3        
  Sebastian Ehlert       : rSCAN, r2SCAN, r2SCAN-3c, D4, dhf basis sets  
  Marvin Friede          : D4 for Fr, Ra, Ac-Lr                          
  Lars Goerigk           : TD-DFT with DH, B97 family of functionals     
  Stefan Grimme          : VdW corrections, initial TS optimization, DFT functionals, gCP, sTDA/sTD-DF 
  Waldemar Hujo          : DFT-NL                                        
  H. Jonsson             : NEB                                           
  Holger Kruse           : gCP                                           
  Marcel Mueller         : wB97X-3c, vDZP basis set                      
  Hagen Neugebauer       : wr2SCAN                                       
  Tobias Risthaus        : range-separated hybrid DFT                    
  Lukas Wittmann         : regularized MP2, r2SCAN double-hybrids, wr2SCAN        
                                                                         
We gratefully acknowledge several colleagues who have allowed us to      
interface, adapt or use parts of their codes:                            
  Ed Valeev, F. Pavosevic, A. Kumar             : LibInt (2-el integral package), F12 methods 
  Garnet Chan, S. Sharma, J. Yang, R. Olivares  : DMRG                   
  Ulf Ekstrom                                   : XCFun DFT Library      
  Mihaly Kallay                                 : mrcc  (arbitrary order and MRCC methods)
  Frank Weinhold                                : gennbo (NPA and NBO analysis)           
  Simon Mueller                                 : openCOSMO-RS                            
  Christopher J. Cramer and Donald G. Truhlar   : smd solvation model                     
  S Lehtola, MJT Oliveira, MAL Marques          : LibXC Library                           
  Liviu Ungur et al                             : ANISO software                          


 Your calculation uses the libint2 library for the computation of 2-el integrals
 For citations please refer to: http://libint.valeyev.net

 Your ORCA version has been built with support for libXC version: 6.2.2
 For citations please refer to: https://libxc.gitlab.io

 This ORCA versions uses:
   CBLAS   interface :  Fast vector & matrix operations
   LAPACKE interface :  Fast linear algebra routines
   SCALAPACK package :  Parallel linear algebra routines
   Shared memory     :  Shared parallel matrices
   BLAS/LAPACK       :  OpenBLAS 0.3.27  USE64BITINT DYNAMIC_ARCH NO_AFFINITY SkylakeX SINGLE_THREADED
        Core in use  :  SkylakeX
   Copyright (c) 2011-2014, The OpenBLAS Project


Your calculation utilizes the atom-pairwise dispersion correction
based on EEQ partial charges (D4)


================================================================================

cite the ECPs for C  [vDZP-ECP] as follows:
   B-Ne (ecp-2-mwb), Al-Ar (ecp-10-mwb), Ga-Kr (ecp-28-mwb), Y-Cd (ecp-28-mwb), In-Xe (ecp-46-mwb):
     A. Bergner, M. Dolg, W. Küchle, H. Stoll, and H. Preuß, Mol. Phys. 80, 1431 (1993)., T. Leininger, A. Berning, A. Nicklass, H. Stoll, H.-J. Werner, and H.-J.Flad, Chem. Phys. 217, 19 (1997).
   Na-Mg, K-Ca, Rb-Sr, Cs-Ba (CRENBL):
     L. Fernandez Pacios and P. A. Christiansen, J. Chem. Phys. 82, 2664 (1985)., M. M. Hurley, L. F. Pacios, P. A. Christiansen, R. B. Ross, and W. C. Ermler, J. Chem. Phys. 84, 6840 (1986)., L. A. LaJohn, P. A. Christiansen, R. B. Ross, T. Atashroo, and W. C. Ermler, J. Chem. Phys. 87, 2812 (1987)., R. B. Ross, J. M. Powers, T. Atashroo, W. C. Ermler, L. A. LaJohn, and P. A. Christiansen, J. Chem. Phys. 93, 6654 (1990). 
   Sc-Zn (ecp-10-mdf):
     M. Dolg, U. Wedig, H. Stoll, and H. Preuss, J. Chem. Phys. 86, 866 (1986). 
   Y-Cd (ecp-28-mwb), Hf-Hg (ecp-60-mwb):
     D. Andrae, U. Häußermann, M. Dolg, H. Stoll, and H. Preuß, Theor. Chim. Acta 77, 123 (1990). 
   La (ecp-46-mwb):
     M. Dolg, H. Stoll, and H. Preuss, J. Chem. Phys. 90, 1730 (1989)., M. Dolg, H. Stoll, and H. Preuss, Theor. Chim. Acta 85, 441 (1993).
   Ce-Lu (SBKJC-ecp):
     T. R. Cundari and W. J. Stevens, J. Chem. Phys. 98, 5555 (1993).
   Tl-Rn (ecp-78-mwb):
     W. Küchle, M. Dolg, H. Stoll, and H. Preuss, Mol. Phys. 74, 1245 (1991).

ECP parameters for C  [vDZP-ECP] have been obtained from:
MM, AH, SG, J. Chem. Phys. 158, 014103 (2023), 10.1063/5.0133026

----- Orbital basis set information -----
Your calculation utilizes the basis: vDZP
   Marcel Mueller, Andreas Hansen, Stefan Grimme 
   J. Chem. Phys. 158, 014103 (2023). DOI: 10.1063/5.0133026

----- AuxJ basis set information -----
Your calculation utilizes the auxiliary basis: def2/J
   F. Weigend, Phys. Chem. Chem. Phys. 8, 1057 (2006).

================================================================================
                                        WARNINGS
                       Please study these warnings very carefully!
================================================================================

WARNING: Frozen-Core approximation turned on, but there are no core electrons.
  ===> : Turning off frozen-core approximation


WARNING: Geometry Optimization
  ===> : Switching off AutoStart
         For restart on a previous wavefunction, please use MOREAD

================================================================================
                                       INPUT FILE
================================================================================
NAME = ./output/alpha_humulene/alpha_humulene.inp
|  1> ! wB97X-3c OPT FREQ TightSCF
|  2> %pal
|  3>   nprocs 40
|  4> end
|  5> * xyz 0 1
|  6> C     -0.590348    -2.706368     1.408793
|  7> C     -0.504832    -1.214970     1.614540
|  8> C      0.534148    -0.487721     1.146573
|  9> C      1.609120    -1.030847     0.220370
| 10> C      2.221307     0.073607    -0.702173
| 11> C      1.119372     0.965037    -1.272518
| 12> C      0.061215     0.462741    -1.933955
| 13> C     -1.231048     1.229749    -2.014921
| 14> C     -1.930050     1.161455    -0.669796
| 15> C     -2.375979    -0.038220    -0.229491
| 16> C     -2.853276    -0.328534     1.178640
| 17> C     -1.701691    -0.485611     2.198656
| 18> C     -2.042370     2.407626     0.173241
| 19> C      3.202848     0.942422     0.114352
| 20> C      3.005733    -0.584430    -1.855700
| 21> H     -1.462970    -3.128433     1.950216
| 22> H      0.328040    -3.196482     1.795190
| 23> H     -0.713913    -2.937474     0.330314
| 24> H      0.525392     0.583354     1.327164
| 25> H      1.166507    -1.815703    -0.428434
| 26> H      2.399471    -1.522290     0.827925
| 27> H      1.089821     2.010313    -0.971793
| 28> H      0.042221    -0.586457    -2.212614
| 29> H     -1.881899     0.778340    -2.794425
| 30> H     -1.027392     2.278348    -2.321342
| 31> H     -2.300527    -0.895877    -0.893820
| 32> H     -3.420396    -1.284112     1.151152
| 33> H     -3.563263     0.453752     1.520987
| 34> H     -1.406154     0.513774     2.582710
| 35> H     -2.076549    -1.047158     3.081345
| 36> H     -3.105585     2.596965     0.429868
| 37> H     -1.448711     2.299052     1.102191
| 38> H     -1.658451     3.296626    -0.368674
| 39> H      3.661018     1.724197    -0.529843
| 40> H      4.020389     0.319794     0.537840
| 41> H      2.685922     1.451662     0.954881
| 42> H      3.443114     0.190028    -2.522559
| 43> H      2.347992    -1.236437    -2.468701
| 44> H      3.831772    -1.211720    -1.456187
| 45> *
| 46> 
| 47>                          ****END OF INPUT****
================================================================================

                       *****************************
                       * Geometry Optimization Run *
                       *****************************

Geometry optimization settings:
Update method            Update   .... BFGS
Choice of coordinates    CoordSys .... (2022) Redundant Internals
Initial Hessian          InHess   .... Almloef's Model
Max. no of cycles        MaxIter  .... 117

Convergence Tolerances:
Energy Change            TolE     ....  5.0000e-06 Eh
Max. Gradient            TolMAXG  ....  3.0000e-04 Eh/bohr
RMS Gradient             TolRMSG  ....  1.0000e-04 Eh/bohr
Max. Displacement        TolMAXD  ....  4.0000e-03 bohr
RMS Displacement         TolRMSD  ....  2.0000e-03 bohr
Strict Convergence                .... False

------------------------------------------------------------------------------
                        ORCA OPTIMIZATION COORDINATE SETUP
------------------------------------------------------------------------------

The optimization will be done in redundant internal coordinates (2022)
Making redundant internal coordinates   ...  (2022 redundants) done
Evaluating the initial hessian          ...  (Almloef) done
Evaluating the coordinates              ...  done
Calculating the B-matrix                .... done
Calculating the G-matrix                .... done
Diagonalizing the G-matrix              .... done
Small eigenvalue found = 1.403e-02
Small eigenvalue found = 1.775e-02
Small eigenvalue found = 2.309e-02
The first mode is                       ....   76
The number of degrees of freedom        ....  111

    -----------------------------------------------------------------
                    Redundant Internal Coordinates


    -----------------------------------------------------------------
         Definition                    Initial Value    Approx d2E/dq
    -----------------------------------------------------------------
      1. B(C   1,C   0)                  1.5079         0.405095   
      2. B(C   2,C   1)                  1.3518         0.718926   
      3. B(C   3,C   2)                  1.5193         0.388490   
      4. B(C   4,C   3)                  1.5639         0.329873   
      5. B(C   5,C   4)                  1.5278         0.376593   
      6. B(C   6,C   5)                  1.3452         0.736637   
      7. B(C   7,C   6)                  1.5049         0.409621   
      8. B(C   8,C   7)                  1.5174         0.391213   
      9. B(C   9,C   8)                  1.3535         0.714471   
     10. B(C  10,C   9)                  1.5149         0.394880   
     11. B(C  11,C  10)                  1.5464         0.351774   
     12. B(C  11,C   1)                  1.5184         0.389796   
     13. B(C  12,C   8)                  1.5087         0.403934   
     14. B(C  13,C   4)                  1.5443         0.354409   
     15. B(C  14,C   4)                  1.5424         0.356955   
     16. B(H  15,C   0)                  1.1103         0.334233   
     17. B(H  16,C   0)                  1.1104         0.334120   
     18. B(H  17,C   0)                  1.1099         0.334760   
     19. B(H  18,C   2)                  1.0862         0.365125   
     20. B(H  19,C   3)                  1.1103         0.334175   
     21. B(H  20,C   3)                  1.1114         0.332828   
     22. B(H  21,C   5)                  1.0881         0.362653   
     23. B(H  22,C   6)                  1.0857         0.365782   
     24. B(H  23,C   7)                  1.1113         0.332988   
     25. B(H  24,C   7)                  1.1113         0.333029   
     26. B(H  25,C   9)                  1.0875         0.363456   
     27. B(H  26,C  10)                  1.1115         0.332710   
     28. B(H  27,C  10)                  1.1105         0.333953   
     29. B(H  28,C  11)                  1.1107         0.333756   
     30. B(H  29,C  11)                  1.1113         0.332994   
     31. B(H  30,C  12)                  1.1100         0.334573   
     32. B(H  31,C  12)                  1.1078         0.337336   
     33. B(H  32,C  12)                  1.1097         0.334986   
     34. B(H  33,C  13)                  1.1118         0.332397   
     35. B(H  34,C  13)                  1.1115         0.332781   
     36. B(H  35,C  13)                  1.1104         0.334078   
     37. B(H  36,C  14)                  1.1117         0.332557   
     38. B(H  37,C  14)                  1.1106         0.333813   
     39. B(H  38,C  14)                  1.1115         0.332746   
     40. A(C   1,C   0,H  15)          110.7323         0.324663   
     41. A(H  16,C   0,H  17)          109.7744         0.284197   
     42. A(H  15,C   0,H  17)          107.8902         0.284212   
     43. A(C   1,C   0,H  16)          110.0087         0.324645   
     44. A(H  15,C   0,H  16)          108.2137         0.284127   
     45. A(C   1,C   0,H  17)          110.1721         0.324747   
     46. A(C   0,C   1,C   2)          121.8997         0.413055   
     47. A(C   0,C   1,C  11)          118.8719         0.371129   
     48. A(C   2,C   1,C  11)          118.7229         0.410244   
     49. A(C   1,C   2,H  18)          117.8223         0.362759   
     50. A(C   3,C   2,H  18)          117.3575         0.327159   
     51. A(C   1,C   2,C   3)          124.2299         0.410000   
     52. A(C   2,C   3,H  19)          109.0781         0.322432   
     53. A(C   2,C   3,C   4)          112.5891         0.358108   
     54. A(C   4,C   3,H  20)          110.8777         0.313743   
     55. A(C   2,C   3,H  20)          109.1446         0.322219   
     56. A(H  19,C   3,H  20)          106.8779         0.283949   
     57. A(C   4,C   3,H  19)          108.0925         0.313948   
     58. A(C   3,C   4,C  13)          109.5248         0.352573   
     59. A(C   3,C   4,C  14)          109.8140         0.353000   
     60. A(C  13,C   4,C  14)          108.1919         0.357322   
     61. A(C   5,C   4,C  14)          109.6668         0.361035   
     62. A(C   5,C   4,C  13)          109.1193         0.360595   
     63. A(C   3,C   4,C   5)          110.4840         0.356220   
     64. A(C   4,C   5,C   6)          122.2117         0.409509   
     65. A(C   6,C   5,H  21)          118.2457         0.363848   
     66. A(C   4,C   5,H  21)          118.4851         0.325125   
     67. A(C   5,C   6,C   7)          120.7714         0.415666   
     68. A(C   7,C   6,H  22)          117.6250         0.330129   
     69. A(C   5,C   6,H  22)          120.0529         0.364383   
     70. A(C   6,C   7,C   8)          108.9608         0.372072   
     71. A(H  23,C   7,H  24)          107.2899         0.283818   
     72. A(C   8,C   7,H  24)          111.7967         0.322620   
     73. A(C   6,C   7,H  24)          109.7788         0.325064   
     74. A(C   8,C   7,H  23)          109.4943         0.322613   
     75. A(C   6,C   7,H  23)          109.4884         0.325057   
     76. A(C   9,C   8,C  12)          121.7223         0.412389   
     77. A(C   7,C   8,C  12)          119.5010         0.371178   
     78. A(C   7,C   8,C   9)          118.6872         0.410056   
     79. A(C  10,C   9,H  25)          116.0118         0.327792   
     80. A(C   8,C   9,H  25)          118.5191         0.362091   
     81. A(C   8,C   9,C  10)          125.1729         0.410734   
     82. A(C   9,C  10,C  11)          113.4510         0.363062   
     83. A(H  26,C  10,H  27)          106.6799         0.283904   
     84. A(C  11,C  10,H  27)          110.1403         0.317211   
     85. A(C   9,C  10,H  27)          110.6700         0.323260   
     86. A(C  11,C  10,H  26)          107.9956         0.317018   
     87. A(C   9,C  10,H  26)          107.6088         0.323063   
     88. A(C   1,C  11,C  10)          112.4599         0.362259   
     89. A(C  10,C  11,H  29)          108.9083         0.317062   
     90. A(C   1,C  11,H  29)          109.1905         0.322422   
     91. A(C  10,C  11,H  28)          109.5629         0.317180   
     92. A(H  28,C  11,H  29)          105.6510         0.283915   
     93. A(C   1,C  11,H  28)          110.8233         0.322543   
     94. A(H  31,C  12,H  32)          107.6157         0.284650   
     95. A(H  30,C  12,H  32)          107.9169         0.284287   
     96. A(C   8,C  12,H  32)          111.2894         0.324630   
     97. A(H  30,C  12,H  31)          109.6427         0.284596   
     98. A(C   8,C  12,H  31)          110.3480         0.325003   
     99. A(C   8,C  12,H  30)          109.9610         0.324564   
    100. A(H  33,C  13,H  34)          108.1526         0.283707   
    101. A(C   4,C  13,H  34)          110.7197         0.317415   
    102. A(C   4,C  13,H  33)          110.5581         0.317355   
    103. A(H  34,C  13,H  35)          108.1138         0.283930   
    104. A(H  33,C  13,H  35)          107.9364         0.283879   
    105. A(C   4,C  13,H  35)          111.2441         0.317616   
    106. A(H  37,C  14,H  38)          107.8903         0.283890   
    107. A(H  36,C  14,H  38)          108.4447         0.283724   
    108. A(C   4,C  14,H  38)          110.4826         0.317780   
    109. A(H  36,C  14,H  37)          108.1134         0.283865   
    110. A(C   4,C  14,H  37)          111.2264         0.317946   
    111. A(C   4,C  14,H  36)          110.5800         0.317750   
    112. D(C  11,C   1,C   0,H  15)    -13.7812         0.012165   
    113. D(C  11,C   1,C   0,H  16)   -133.3524         0.012165   
    114. D(C   2,C   1,C   0,H  16)     54.9108         0.012165   
    115. D(C   2,C   1,C   0,H  17)    -66.2442         0.012165   
    116. D(C   2,C   1,C   0,H  15)    174.4820         0.012165   
    117. D(H  18,C   2,C   1,C   0)    179.6332         0.036571   
    118. D(H  18,C   2,C   1,C  11)      7.8845         0.036571   
    119. D(C   3,C   2,C   1,C  11)   -163.0535         0.036571   
    120. D(C   3,C   2,C   1,C   0)      8.6951         0.036571   
    121. D(H  20,C   3,C   2,C   1)    -85.2230         0.011233   
    122. D(H  19,C   3,C   2,C   1)     31.2168         0.011233   
    123. D(C   4,C   3,C   2,H  18)    -19.7736         0.011233   
    124. D(H  19,C   3,C   2,H  18)   -139.7599         0.011233   
    125. D(C   4,C   3,C   2,C   1)    151.2031         0.011233   
    126. D(C   5,C   4,C   3,C   2)    -43.6587         0.008862   
    127. D(C  13,C   4,C   3,H  20)    -46.0358         0.008862   
    128. D(C  13,C   4,C   3,H  19)   -162.8763         0.008862   
    129. D(C   5,C   4,C   3,H  20)   -166.2640         0.008862   
    130. D(C  13,C   4,C   3,C   2)     76.5695         0.008862   
    131. D(C   5,C   4,C   3,H  19)     76.8954         0.008862   
    132. D(H  21,C   5,C   4,C  13)     -6.2433         0.010595   
    133. D(H  21,C   5,C   4,C   3)    114.2278         0.010595   
    134. D(C   6,C   5,C   4,C  14)     67.3841         0.010595   
    135. D(C   6,C   5,C   4,C  13)   -174.2701         0.010595   
    136. D(C   6,C   5,C   4,C   3)    -53.7991         0.010595   
    137. D(H  22,C   6,C   5,C   4)     -9.4725         0.038566   
    138. D(C   7,C   6,C   5,H  21)    -12.0630         0.038566   
    139. D(C   7,C   6,C   5,C   4)    155.9912         0.038566   
    140. D(H  22,C   6,C   5,H  21)   -177.5268         0.038566   
    141. D(C   8,C   7,C   6,H  22)     91.7301         0.012428   
    142. D(C   8,C   7,C   6,C   5)    -74.0761         0.012428   
    143. D(H  24,C   7,C   6,C   5)     48.6605         0.012428   
    144. D(H  23,C   7,C   6,H  22)    -27.9981         0.012428   
    145. D(H  23,C   7,C   6,C   5)    166.1957         0.012428   
    146. D(C  12,C   8,C   7,H  23)   -129.2867         0.011383   
    147. D(C  12,C   8,C   7,C   6)    110.9887         0.011383   
    148. D(C   9,C   8,C   7,H  24)    172.8512         0.011383   
    149. D(C   9,C   8,C   7,H  23)     54.0923         0.011383   
    150. D(C   9,C   8,C   7,C   6)    -65.6322         0.011383   
    151. D(H  25,C   9,C   8,C  12)    177.8948         0.036079   
    152. D(H  25,C   9,C   8,C   7)     -5.5628         0.036079   
    153. D(C  10,C   9,C   8,C  12)     -8.6209         0.036079   
    154. D(C  10,C   9,C   8,C   7)    167.9216         0.036079   
    155. D(H  27,C  10,C   9,C   8)     47.4899         0.011586   
    156. D(H  26,C  10,C   9,H  25)    -22.6743         0.011586   
    157. D(H  26,C  10,C   9,C   8)    163.6954         0.011586   
    158. D(C  11,C  10,C   9,H  25)     96.7318         0.011586   
    159. D(C  11,C  10,C   9,C   8)    -76.8985         0.011586   
    160. D(H  28,C  11,C  10,H  26)   -155.3347         0.009962   
    161. D(H  28,C  11,C  10,C   9)     85.4807         0.009962   
    162. D(C   1,C  11,C  10,H  27)   -162.9140         0.009962   
    163. D(C   1,C  11,C  10,H  26)     80.9454         0.009962   
    164. D(C   1,C  11,C  10,C   9)    -38.2392         0.009962   
    165. D(H  29,C  11,C   1,C   0)     46.5061         0.011305   
    166. D(H  28,C  11,C   1,C   2)    -25.5162         0.011305   
    167. D(H  28,C  11,C   1,C   0)    162.4816         0.011305   
    168. D(C  10,C  11,C   1,C   2)     97.4997         0.011305   
    169. D(H  28,C  11,C  10,H  27)    -39.1941         0.009962   
    170. D(C  10,C  11,C   1,C   0)    -74.5025         0.011305   
    171. D(H  31,C  12,C   8,C   9)     62.6875         0.012099   
    172. D(H  31,C  12,C   8,C   7)   -113.8275         0.012099   
    173. D(H  30,C  12,C   8,C   9)    -58.3861         0.012099   
    174. D(H  30,C  12,C   8,C   7)    125.0989         0.012099   
    175. D(H  32,C  12,C   8,C   7)      5.5741         0.012099   
    176. D(H  34,C  13,C   4,C  14)    -60.4242         0.010100   
    177. D(H  34,C  13,C   4,C   5)   -179.6899         0.010100   
    178. D(H  34,C  13,C   4,C   3)     59.2524         0.010100   
    179. D(H  33,C  13,C   4,C  14)     59.4180         0.010100   
    180. D(H  33,C  13,C   4,C   5)    -59.8478         0.010100   
    181. D(H  33,C  13,C   4,C   3)    179.0946         0.010100   
    182. D(H  37,C  14,C   4,C  13)    179.1110         0.010235   
    183. D(H  37,C  14,C   4,C   5)    -61.9697         0.010235   
    184. D(H  37,C  14,C   4,C   3)     59.6164         0.010235   
    185. D(H  36,C  14,C   4,C  13)    -60.7501         0.010235   
    186. D(H  36,C  14,C   4,C   5)     58.1693         0.010235   
    187. D(H  36,C  14,C   4,C   3)    179.7554         0.010235   
    -----------------------------------------------------------------

Number of atoms                         .... 39
Number of degrees of freedom            .... 187


         *************************************************************
         *                GEOMETRY OPTIMIZATION CYCLE   1            *
         *************************************************************
---------------------------------
CARTESIAN COORDINATES (ANGSTROEM)
---------------------------------
  C     -0.590348   -2.706368    1.408793
  C     -0.504832   -1.214970    1.614540
  C      0.534148   -0.487721    1.146573
  C      1.609120   -1.030847    0.220370
  C      2.221307    0.073607   -0.702173
  C      1.119372    0.965037   -1.272518
  C      0.061215    0.462741   -1.933955
  C     -1.231048    1.229749   -2.014921
  C     -1.930050    1.161455   -0.669796
  C     -2.375979   -0.038220   -0.229491
  C     -2.853276   -0.328534    1.178640
  C     -1.701691   -0.485611    2.198656
  C     -2.042370    2.407626    0.173241
  C      3.202848    0.942422    0.114352
  C      3.005733   -0.584430   -1.855700
  H     -1.462970   -3.128433    1.950216
  H      0.328040   -3.196482    1.795190
  H     -0.713913   -2.937474    0.330314
  H      0.525392    0.583354    1.327164
  H      1.166507   -1.815703   -0.428434
  H      2.399471   -1.522290    0.827925
  H      1.089821    2.010313   -0.971793
  H      0.042221   -0.586457   -2.212614
  H     -1.881899    0.778340   -2.794425
  H     -1.027392    2.278348   -2.321342
  H     -2.300527   -0.895877   -0.893820
  H     -3.420396   -1.284112    1.151152
  H     -3.563263    0.453752    1.520987
  H     -1.406154    0.513774    2.582710
  H     -2.076549   -1.047158    3.081345
  H     -3.105585    2.596965    0.429868
  H     -1.448711    2.299052    1.102191
  H     -1.658451    3.296626   -0.368674
  H      3.661018    1.724197   -0.529843
  H      4.020389    0.319794    0.537840
  H      2.685922    1.451662    0.954881
  H      3.443114    0.190028   -2.522559
  H      2.347992   -1.236437   -2.468701
  H      3.831772   -1.211720   -1.456187

----------------------------
CARTESIAN COORDINATES (A.U.)
----------------------------
  NO LB      ZA    FRAG     MASS         X           Y           Z
   0 C     4.0000*   0    12.011   -1.115596   -5.114294    2.662233
   1 C     4.0000*   0    12.011   -0.953994   -2.295961    3.051038
   2 C     4.0000*   0    12.011    1.009393   -0.921659    2.166709
   3 C     4.0000*   0    12.011    3.040796   -1.948019    0.416439
   4 C     4.0000*   0    12.011    4.197662    0.139097   -1.326915
   5 C     4.0000*   0    12.011    2.115307    1.823656   -2.404711
   6 C     4.0000*   0    12.011    0.115680    0.874454   -3.654645
   7 C     4.0000*   0    12.011   -2.326344    2.323889   -3.807649
   8 C     4.0000*   0    12.011   -3.647266    2.194832   -1.265731
   9 C     4.0000*   0    12.011   -4.489950   -0.072225   -0.433675
  10 C     4.0000*   0    12.011   -5.391910   -0.620839    2.227307
  11 C     4.0000*   0    12.011   -3.215730   -0.917672    4.154858
  12 C     4.0000*   0    12.011   -3.859520    4.549754    0.327378
  13 C     4.0000*   0    12.011    6.052506    1.780919    0.216094
  14 C     4.0000*   0    12.011    5.680012   -1.104413   -3.506765
  15 H     1.0000    0     1.008   -2.764613   -5.911882    3.685374
  16 H     1.0000    0     1.008    0.619906   -6.040476    3.392417
  17 H     1.0000    0     1.008   -1.349100   -5.551021    0.624203
  18 H     1.0000    0     1.008    0.992847    1.102379    2.507976
  19 H     1.0000    0     1.008    2.204379   -3.431181   -0.809623
  20 H     1.0000    0     1.008    4.534343   -2.876711    1.564552
  21 H     1.0000    0     1.008    2.059463    3.798941   -1.836423
  22 H     1.0000    0     1.008    0.079786   -1.108243   -4.181235
  23 H     1.0000    0     1.008   -3.556274    1.470849   -5.280698
  24 H     1.0000    0     1.008   -1.941490    4.305454   -4.386701
  25 H     1.0000    0     1.008   -4.347366   -1.692962   -1.689075
  26 H     1.0000    0     1.008   -6.463612   -2.426620    2.175362
  27 H     1.0000    0     1.008   -6.733591    0.857467    2.874249
  28 H     1.0000    0     1.008   -2.657246    0.970892    4.880615
  29 H     1.0000    0     1.008   -3.924109   -1.978842    5.822898
  30 H     1.0000    0     1.008   -5.868705    4.907553    0.812333
  31 H     1.0000    0     1.008   -2.737667    4.344579    2.082839
  32 H     1.0000    0     1.008   -3.134018    6.229720   -0.696693
  33 H     1.0000    0     1.008    6.918321    3.258260   -1.001258
  34 H     1.0000    0     1.008    7.597434    0.604323    1.016370
  35 H     1.0000    0     1.008    5.075657    2.743244    1.804464
  36 H     1.0000    0     1.008    6.506543    0.359101   -4.766946
  37 H     1.0000    0     1.008    4.437062   -2.336527   -4.665169
  38 H     1.0000    0     1.008    7.241000   -2.289819   -2.751795
* core charge reduced due to ECP

--------------------------------
INTERNAL COORDINATES (ANGSTROEM)
--------------------------------
 C      0   0   0     0.000000000000     0.00000000     0.00000000
 C      1   0   0     1.507949869415     0.00000000     0.00000000
 C      2   1   0     1.351800155900   121.89969683     0.00000000
 C      3   2   1     1.519342834869   124.22986420     8.69509703
 C      4   3   2     1.563866090154   112.58913149   151.20308980
 C      5   4   3     1.527809414865   110.48397870   316.34127347
 C      6   5   4     1.345175235140   122.21165447   306.20087329
 C      7   6   5     1.504925388977   120.77141612   155.99124954
 C      8   7   6     1.517441640415   108.96082991   285.92394842
 C      9   8   7     1.353492250325   118.68716024   294.36777172
 C     10   9   8     1.514901831132   125.17294723   167.92158755
 C      2   1   3     1.518429293124   118.87185073   171.73676403
 C      9   8   7     1.508731032030   119.50103481   110.98873247
 C      5   4   3     1.544336528912   109.52478184    76.56950545
 C      5   4   3     1.542388207480   109.81404204   195.24552337
 H      1   2   3     1.110291350970   110.73233500   174.48199014
 H      1   2   3     1.110383219051   110.00869815    54.91083274
 H      1   2   3     1.109862714890   110.17208114   293.75583953
 H      3   2   1     1.086228075701   117.82229037   179.63315995
 H      4   3   2     1.110338614532   109.07813558    31.21676779
 H      4   3   2     1.111437809090   109.14464637   274.77703341
 H      6   5   4     1.088076607322   118.48511744   114.22776035
 H      7   6   5     1.085738483025   120.05290994   350.52750998
 H      8   7   6     1.111307156234   109.48835644   166.19569777
 H      8   7   6     1.111273799915   109.77875320    48.66049475
 H     10   9   8     1.087474852212   118.51911116   354.43723389
 H     11  10   9     1.111534974091   107.60875146   163.69542583
 H     11  10   9     1.110519875722   110.66995471    47.48988690
 H     12   2   1     1.110679959084   110.82334904   162.48160034
 H     12   2   1     1.111302579901   109.19046128    46.50611853
 H     13   9   8     1.110014779305   109.96102288   125.09889113
 H     13   9   8     1.107775890809   110.34795139   246.17251283
 H     13   9   8     1.109678631761   111.28943038     5.57406886
 H     14   5   4     1.111790941477   110.55809310   179.09458444
 H     14   5   4     1.111476944974   110.71971253    59.25244498
 H     14   5   4     1.110417429131   111.24406313   299.00778531
 H     15   5   4     1.111660136375   110.57997929   179.75539972
 H     15   5   4     1.110633412576   111.22639998    59.61644835
 H     15   5   4     1.111505200523   110.48257316   299.82283375

---------------------------
INTERNAL COORDINATES (A.U.)
---------------------------
 C      0   0   0     0.000000000000     0.00000000     0.00000000
 C      1   0   0     2.849612276877     0.00000000     0.00000000
 C      2   1   0     2.554532082442   121.89969683     0.00000000
 C      3   2   1     2.871141861439   124.22986420     8.69509703
 C      4   3   2     2.955278620518   112.58913149   151.20308980
 C      5   4   3     2.887141378921   110.48397870   316.34127347
 C      6   5   4     2.542012796548   122.21165447   306.20087329
 C      7   6   5     2.843896837152   120.77141612   155.99124954
 C      8   7   6     2.867549124592   108.96082991   285.92394842
 C      9   8   7     2.557729677500   118.68716024   294.36777172
 C     10   9   8     2.862749580615   125.17294723   167.92158755
 C      2   1   3     2.869415517729   118.87185073   171.73676403
 C      9   8   7     2.851088460285   119.50103481   110.98873247
 C      5   4   3     2.918373098254   109.52478184    76.56950545
 C      5   4   3     2.914691304327   109.81404204   195.24552337
 H      1   2   3     2.098146582194   110.73233500   174.48199014
 H      1   2   3     2.098320187707   110.00869815    54.91083274
 H      1   2   3     2.097336577392   110.17208114   293.75583953
 H      3   2   1     2.052673582052   117.82229037   179.63315995
 H      4   3   2     2.098235897383   109.07813558    31.21676779
 H      4   3   2     2.100313074066   109.14464637   274.77703341
 H      6   5   4     2.056166800565   118.48511744   114.22776035
 H      7   6   5     2.051748385976   120.05290994   350.52750998
 H      8   7   6     2.100066175950   109.48835644   166.19569777
 H      8   7   6     2.100003141642   109.77875320    48.66049475
 H     10   9   8     2.055029648208   118.51911116   354.43723389
 H     11  10   9     2.100496689308   107.60875146   163.69542583
 H     11  10   9     2.098578431391   110.66995471    47.48988690
 H     12   2   1     2.098880945103   110.82334904   162.48160034
 H     12   2   1     2.100057527933   109.19046128    46.50611853
 H     13   9   8     2.097623937491   109.96102288   125.09889113
 H     13   9   8     2.093393051389   110.34795139   246.17251283
 H     13   9   8     2.096988710692   111.28943038     5.57406886
 H     14   5   4     2.100980397566   110.55809310   179.09458444
 H     14   5   4     2.100387030169   110.71971253    59.25244498
 H     14   5   4     2.098384835390   111.24406313   299.00778531
 H     15   5   4     2.100733211747   110.57997929   179.75539972
 H     15   5   4     2.098792984952   111.22639998    59.61644835
 H     15   5   4     2.100440425418   110.48257316   299.82283375

---------------------
BASIS SET INFORMATION
---------------------
There are 2 groups of distinct atoms

 Group   1 Type C   : 6s6p2d contracted to 2s2p1d pattern {42/42/2}
 Group   2 Type H   : 8s2p contracted to 2s1p pattern {53/2}

Atom   0C    basis set group =>   1
Atom   1C    basis set group =>   1
Atom   2C    basis set group =>   1
Atom   3C    basis set group =>   1
Atom   4C    basis set group =>   1
Atom   5C    basis set group =>   1
Atom   6C    basis set group =>   1
Atom   7C    basis set group =>   1
Atom   8C    basis set group =>   1
Atom   9C    basis set group =>   1
Atom  10C    basis set group =>   1
Atom  11C    basis set group =>   1
Atom  12C    basis set group =>   1
Atom  13C    basis set group =>   1
Atom  14C    basis set group =>   1
Atom  15H    basis set group =>   2
Atom  16H    basis set group =>   2
Atom  17H    basis set group =>   2
Atom  18H    basis set group =>   2
Atom  19H    basis set group =>   2
Atom  20H    basis set group =>   2
Atom  21H    basis set group =>   2
Atom  22H    basis set group =>   2
Atom  23H    basis set group =>   2
Atom  24H    basis set group =>   2
Atom  25H    basis set group =>   2
Atom  26H    basis set group =>   2
Atom  27H    basis set group =>   2
Atom  28H    basis set group =>   2
Atom  29H    basis set group =>   2
Atom  30H    basis set group =>   2
Atom  31H    basis set group =>   2
Atom  32H    basis set group =>   2
Atom  33H    basis set group =>   2
Atom  34H    basis set group =>   2
Atom  35H    basis set group =>   2
Atom  36H    basis set group =>   2
Atom  37H    basis set group =>   2
Atom  38H    basis set group =>   2
---------------------------------
AUXILIARY/J BASIS SET INFORMATION
---------------------------------
There are 2 groups of distinct atoms

 Group   1 Type C   : 12s5p4d2f1g contracted to 6s4p3d1f1g pattern {711111/2111/211/2/1}
 Group   2 Type H   : 5s2p1d contracted to 3s1p1d pattern {311/2/1}

Atom   0C    basis set group =>   1
Atom   1C    basis set group =>   1
Atom   2C    basis set group =>   1
Atom   3C    basis set group =>   1
Atom   4C    basis set group =>   1
Atom   5C    basis set group =>   1
Atom   6C    basis set group =>   1
Atom   7C    basis set group =>   1
Atom   8C    basis set group =>   1
Atom   9C    basis set group =>   1
Atom  10C    basis set group =>   1
Atom  11C    basis set group =>   1
Atom  12C    basis set group =>   1
Atom  13C    basis set group =>   1
Atom  14C    basis set group =>   1
Atom  15H    basis set group =>   2
Atom  16H    basis set group =>   2
Atom  17H    basis set group =>   2
Atom  18H    basis set group =>   2
Atom  19H    basis set group =>   2
Atom  20H    basis set group =>   2
Atom  21H    basis set group =>   2
Atom  22H    basis set group =>   2
Atom  23H    basis set group =>   2
Atom  24H    basis set group =>   2
Atom  25H    basis set group =>   2
Atom  26H    basis set group =>   2
Atom  27H    basis set group =>   2
Atom  28H    basis set group =>   2
Atom  29H    basis set group =>   2
Atom  30H    basis set group =>   2
Atom  31H    basis set group =>   2
Atom  32H    basis set group =>   2
Atom  33H    basis set group =>   2
Atom  34H    basis set group =>   2
Atom  35H    basis set group =>   2
Atom  36H    basis set group =>   2
Atom  37H    basis set group =>   2
Atom  38H    basis set group =>   2
-------------------------
ECP PARAMETER INFORMATION
-------------------------

 Group 1, Type C  ECP vDZP-ECP (replacing 2 core electrons, lmax=3)

Atom   0C    ECP group =>   1
Atom   1C    ECP group =>   1
Atom   2C    ECP group =>   1
Atom   3C    ECP group =>   1
Atom   4C    ECP group =>   1
Atom   5C    ECP group =>   1
Atom   6C    ECP group =>   1
Atom   7C    ECP group =>   1
Atom   8C    ECP group =>   1
Atom   9C    ECP group =>   1
Atom  10C    ECP group =>   1
Atom  11C    ECP group =>   1
Atom  12C    ECP group =>   1
Atom  13C    ECP group =>   1
Atom  14C    ECP group =>   1



           ************************************************************
           *        Program running with 40 parallel MPI-processes    *
           *              working on a common directory               *
           ************************************************************
------------------------------------------------------------------------------
                             ORCA STARTUP CALCULATIONS
                           -- RI-GTO INTEGRALS CHOSEN --
------------------------------------------------------------------------------
------------------------------------------------------------------------------
                   ___                                                        
                  /   \      - P O W E R E D   B Y -                         
                 /     \                                                     
                 |  |  |   _    _      __       _____    __    __             
                 |  |  |  | |  | |    /  \     |  _  \  |  |  /  |          
                  \  \/   | |  | |   /    \    | | | |  |  | /  /          
                 / \  \   | |__| |  /  /\  \   | |_| |  |  |/  /          
                |  |  |   |  __  | /  /__\  \  |    /   |      \           
                |  |  |   | |  | | |   __   |  |    \   |  |\   \          
                \     /   | |  | | |  |  |  |  | |\  \  |  | \   \       
                 \___/    |_|  |_| |__|  |__|  |_| \__\ |__|  \__/        
                                                                              
                      - O R C A' S   B I G   F R I E N D -                    
                                      &                                       
                       - I N T E G R A L  F E E D E R -                       
                                                                              
 v1 FN, 2020, v2 2021, v3 2022-2024                                           
------------------------------------------------------------------------------


----------------------
SHARK INTEGRAL PACKAGE
----------------------

Number of atoms                             ...     39
Number of basis functions                   ...    315
Number of shells                            ...    147
Maximum angular momentum                    ...      2
Integral batch strategy                     ... SHARK/LIBINT Hybrid
RI-J (if used) integral strategy            ... SPLIT-RIJ (Revised 2003 algorithm where possible)
Printlevel                                  ...      1
Contraction scheme used                     ... SEGMENTED contraction
Prescreening option                         ... SCHWARTZ
   Thresh                                   ... 2.500e-11
   Tcut                                     ... 2.500e-12
   Tpresel                                  ... 2.500e-12 
Coulomb Range Separation                    ... NOT USED
Exchange Range Separation                   ... Long Range
   Mu parameter                             ... 3.000e-01
   Scaling (regular/separated)              ... 1.670e-01 8.330e-01
Multipole approximations                    ... NOT USED
Finite Nucleus Model                        ... NOT USED
CABS basis                                  ... NOT available
Auxiliary Coulomb fitting basis             ... AVAILABLE
   # of basis functions in Aux-J            ...    999
   # of shells in Aux-J                     ...    345
   Maximum angular momentum in Aux-J        ...      4
Auxiliary J/K fitting basis                 ... NOT available
Auxiliary Correlation fitting basis         ... NOT available
Auxiliary 'external' fitting basis          ... NOT available

Checking pre-screening integrals            ... done (  0.0 sec) Dimension = 147
Check shell pair data                       ... done (  0.0 sec)
Shell pair information
Shell pair cut-off parameter TPreSel        ...   2.5e-12
Total number of shell pairs                 ...     10878
Shell pairs after pre-screening             ...     10846
Total number of primitive shell pairs       ...    102036
Primitive shell pairs kept                  ...     78481
          la=0 lb=0:   3077 shell pairs
          la=1 lb=0:   4199 shell pairs
          la=1 lb=1:   1470 shell pairs
          la=2 lb=0:   1170 shell pairs
          la=2 lb=1:    810 shell pairs
          la=2 lb=2:    120 shell pairs

Calculating one electron integrals          ... done (  0.0 sec)
Calculating ECP integrals                   ... done (  0.2 sec)
Calculating RI/J V-Matrix + Cholesky decomp.... done (  0.1 sec)
Calculating Nuclear repulsion               ... done (  0.0 sec) ENN=    566.518849588026 Eh

Diagonalization of the overlap matrix:
Smallest eigenvalue                        ... 9.216e-04
Time for diagonalization                   ...    0.014 sec
Threshold for overlap eigenvalues          ... 1.000e-07
Number of eigenvalues below threshold      ... 0
Time for construction of square roots      ...    0.009 sec
Total time needed                          ...    0.028 sec

-------------------
DFT GRID GENERATION
-------------------

General Integration Accuracy     IntAcc      ... 4.388
Radial Grid Type                 RadialGrid  ... OptM3 with GC (2021)
Angular Grid (max. ang.)         AngularGrid ... 4 (Lebedev-302)
Angular grid pruning method      GridPruning ... 4 (adaptive)
Weight generation scheme         WeightScheme... mBecke (2022)
Basis function cutoff            BFCut       ... 1.0000e-11
Integration weight cutoff        WCut        ... 1.0000e-14
Partially contracted basis set               ... off
Rotationally invariant grid construction     ... off
Angular grids for H and He will be reduced by one unit

Total number of grid points                  ...   164963
Total number of batches                      ...     2595
Average number of points per batch           ...       63
Average number of grid points per atom       ...     4230

--------------------
COSX GRID GENERATION
--------------------

GRIDX 1
-------
General Integration Accuracy     IntAcc      ... 3.816
Radial Grid Type                 RadialGrid  ... OptM3 with GC (2021)
Angular Grid (max. ang.)         AngularGrid ... 1 (Lebedev-50)
Angular grid pruning method      GridPruning ... 4 (adaptive)
Weight generation scheme         WeightScheme... mBecke (2022)
Basis function cutoff            BFCut       ... 1.0000e-11
Integration weight cutoff        WCut        ... 1.0000e-14
Partially contracted basis set               ... on
Rotationally invariant grid construction     ... off
Angular grids for H and He will be reduced by one unit

Total number of grid points                  ...    21013
Total number of batches                      ...      190
Average number of points per batch           ...      110
Average number of grid points per atom       ...      539
UseSFitting                                  ... on

GRIDX 2
-------
General Integration Accuracy     IntAcc      ... 4.020
Radial Grid Type                 RadialGrid  ... OptM3 with GC (2021)
Angular Grid (max. ang.)         AngularGrid ... 2 (Lebedev-110)
Angular grid pruning method      GridPruning ... 4 (adaptive)
Weight generation scheme         WeightScheme... mBecke (2022)
Basis function cutoff            BFCut       ... 1.0000e-11
Integration weight cutoff        WCut        ... 1.0000e-14
Partially contracted basis set               ... on
Rotationally invariant grid construction     ... off
Angular grids for H and He will be reduced by one unit

Total number of grid points                  ...    43523
Total number of batches                      ...      362
Average number of points per batch           ...      120
Average number of grid points per atom       ...     1116
UseSFitting                                  ... on

GRIDX 3
-------
General Integration Accuracy     IntAcc      ... 4.338
Radial Grid Type                 RadialGrid  ... OptM3 with GC (2021)
Angular Grid (max. ang.)         AngularGrid ... 3 (Lebedev-194)
Angular grid pruning method      GridPruning ... 4 (adaptive)
Weight generation scheme         WeightScheme... mBecke (2022)
Basis function cutoff            BFCut       ... 1.0000e-11
Integration weight cutoff        WCut        ... 1.0000e-14
Partially contracted basis set               ... on
Rotationally invariant grid construction     ... off
Angular grids for H and He will be reduced by one unit

Total number of grid points                  ...    94309
Total number of batches                      ...      757
Average number of points per batch           ...      124
Average number of grid points per atom       ...     2418
UseSFitting                                  ... on
Initializing property integral containers    ... done (  0.0 sec)

SHARK setup successfully completed in   5.4 seconds

Maximum memory used throughout the entire STARTUP-calculation: 52.1 MB


           ************************************************************
           *        Program running with 40 parallel MPI-processes    *
           *              working on a common directory               *
           ************************************************************
-------------------------------------------------------------------------------
                                 ORCA GUESS
                   Start orbitals & Density for SCF / CASSCF
-------------------------------------------------------------------------------

------------
SCF SETTINGS
------------
Hamiltonian:
 Density Functional     Method          .... DFT(GTOs)
 Exchange Functional    Exchange        .... WB97X-V
 Correlation Functional Correlation     .... WB97X-V
 Gradients option       PostSCFGGA      .... off
 Hybrid DFT is turned on
   Fraction HF Exchange ScalHFX         ....  0.167000
   Scaling of DF-GGA-X  ScalDFX         ....  0.000000
   Scaling of DF-GGA-C  ScalDFC         ....  1.000000
   Scaling of DF-LDA-C  ScalLDAC        ....  1.000000
   Perturbative correction              ....  0.000000
 Long-range corrected/Screened/Range-Separated Hybrid DFT is turned on
   Amount of maximum screened exact exchange              ....  0.833000
   Range separation parameter mu (erf(mu*r12)/r12)        ....  0.300000
   NL short-range parameter             ....  6.000000
   NL long-range parameter              ....  0.010000
 RI-approximation to the Coulomb term is turned on
   Number of AuxJ basis functions       .... 999
   RIJ-COSX (HFX calculated with COS-X)).... on


General Settings:
 Integral files         IntName         .... ./output/alpha_humulene/alpha_humulene
 Hartree-Fock type      HFTyp           .... RHF
 Total Charge           Charge          ....    0
 Multiplicity           Mult            ....    1
 Number of Electrons    NEL             ....   84
 Basis Dimension        Dim             ....  315
 Nuclear Repulsion      ENuc            ....    566.5188495880 Eh

Convergence Acceleration:
 AO-DIIS                CNVDIIS         .... on
   Start iteration      DIISMaxIt       ....    12
   Startup error        DIISStart       ....  0.200000
   # of expansion vecs  DIISMaxEq       ....     5
   Bias factor          DIISBfac        ....   1.050
   Max. coefficient     DIISMaxC        ....  10.000
 MO-DIIS                CNVKDIIS        .... off
 Trust-Rad. Augm. Hess. CNVTRAH         .... auto
   Auto Start mean grad. ratio tolernc. ....  1.125000
   Auto Start start iteration           ....    50
   Auto Start num. interpolation iter.  ....    10
   Max. Number of Micro iterations      ....    24
   Max. Number of Macro iterations      .... Maxiter - #DIIS iter
   Number of Davidson start vectors     ....     2
   Converg. threshold    (grad. norm)   ....   1.000e-05
   Grad. Scal. Fac. for Micro threshold ....   0.100
   Minimum threshold for Micro iter.    ....   1.000e-02
   NR start threshold (gradient norm)   ....   1.000e-04
   Initial trust radius                 ....   0.400
   Minimum AH scaling param. (alpha)    ....   1.000
   Maximum AH scaling param. (alpha)    .... 1000.000
   Quad. conv. algorithm                .... NR
   White noise on init. David. guess    .... on
   Maximum white noise                  ....   0.010
   Pseudo random numbers                .... off
   Inactive MOs                         .... canonical
   Orbital update algorithm             .... Taylor
   Preconditioner                       .... Diag
   Full preconditioner red. dimension   ....   250
 SOSCF                  CNVSOSCF        .... on
   Start iteration      SOSCFMaxIt      ....   150
   Startup grad/error   SOSCFStart      ....  0.003300
   Hessian update       SOSCFHessUp     .... L-BFGS
 Level Shifting         CNVShift        .... on
   Level shift para.    LevelShift      ....    0.2500
   Turn off err/grad.   ShiftErr        ....    0.0010
 Zerner damping         CNVZerner       .... off
 Static damping         CNVDamp         .... on
   Fraction old density DampFac         ....    0.7000
   Max. Damping (<1)    DampMax         ....    0.9800
   Min. Damping (>=0)   DampMin         ....    0.0000
   Turn off err/grad.   DampErr         ....    0.1000

SCF Procedure:
 Maximum # iterations   MaxIter         ....   125
 SCF integral mode      SCFMode         .... Direct
   Integral package                     .... SHARK and LIBINT hybrid scheme
 Reset frequency        DirectResetFreq ....    20
 Integral Threshold     Thresh          ....  2.500e-11 Eh
 Primitive CutOff       TCut            ....  2.500e-12 Eh

Convergence Tolerance:
 Convergence Check Mode ConvCheckMode   .... Total+1el-Energy
 Convergence forced     ConvForced      .... 0
 Energy Change          TolE            ....  1.000e-08 Eh
 1-El. energy change                    ....  1.000e-05 Eh
 Orbital Gradient       TolG            ....  1.000e-05
 Orbital Rotation angle TolX            ....  1.000e-05
 DIIS Error             TolErr          ....  5.000e-07

------------------------------
INITIAL GUESS: MODEL POTENTIAL
------------------------------
Loading Hartree-Fock densities                     ... done
Atomic calculation to generate a density for atom 0 (C  with ECP)
  Multiplicity assumed   :    1
  Atomic configuration   : 1s2 2s2 2p2 
  Number of open shells  : 1
  Command: /home/aspe232/Project/Software/ORCA/6_0_1/build/orca ./output/alpha_humulene/alpha_humulene_atom6.inp "" > ./output/alpha_humulene/alpha_humulene_atom6.out
Returned from the atomic calculation with res=0
Calculating cut-offs                               ... done
Initializing the effective Hamiltonian             ... done
Setting up the integral package (SHARK)            ... done
Starting the Coulomb interaction                   ... done (   0.1 sec)
Making the grid                                    ... done (   1.1 sec)
Mapping shells                                     ... done
Starting the XC term evaluation                    ... done (   0.1 sec)
  promolecular density results
     # of electrons  =    113.982732462
     EX              =    -55.338557139
     EC              =     -4.547720470
     EX+EC           =    -59.886277609
Transforming the Hamiltonian                       ... done (   0.1 sec)
Diagonalizing the Hamiltonian                      ... done (   0.0 sec)
Back transforming the eigenvectors                 ... done (   0.0 sec)
Now organizing SCF variables                       ... done
                      ------------------
                      INITIAL GUESS DONE (   1.9 sec)
                      ------------------
             **** ENERGY FILE WAS UPDATED (./output/alpha_humulene/alpha_humulene.en.tmp) ****
Finished Guess after   2.9 sec
Maximum memory used throughout the entire GUESS-calculation: 34.8 MB


           ************************************************************
           *        Program running with 40 parallel MPI-processes    *
           *              working on a common directory               *
           ************************************************************

-------------------------------------------------------------------------------------------
                                      ORCA LEAN-SCF
                              memory conserving SCF solver
-------------------------------------------------------------------------------------------

----------------------------------------D-I-I-S--------------------------------------------
Iteration    Energy (Eh)           Delta-E    RMSDP     MaxDP     DIISErr   Damp  Time(sec)
-------------------------------------------------------------------------------------------
               ***  Starting incremental Fock matrix formation  ***
    1    -99.1493364585704740     0.00e+00  3.38e-03  7.75e-02  1.75e-01  0.700   8.5
    2    -99.4194856404509437    -2.70e-01  2.48e-03  5.45e-02  1.09e-01  0.700   6.1
                               ***Turning on AO-DIIS***
    3    -99.5613443935030773    -1.42e-01  1.29e-03  2.83e-02  5.92e-02  0.700   5.9
    4    -99.6448666276551194    -8.35e-02  2.78e-03  5.77e-02  3.72e-02  0.000   5.9
    5    -99.8199264784904017    -1.75e-01  2.04e-04  3.53e-03  3.74e-03  0.000   6.0
                              *** Initializing SOSCF ***
---------------------------------------S-O-S-C-F--------------------------------------
Iteration    Energy (Eh)           Delta-E    RMSDP     MaxDP     MaxGrad    Time(sec)
--------------------------------------------------------------------------------------
    6    -99.8203939495383565    -4.67e-04  1.02e-04  1.51e-03  1.15e-03     5.7
               *** Restarting incremental Fock matrix formation ***
    7    -99.8204630639427251    -6.91e-05  5.48e-05  9.00e-04  2.54e-04     8.1
    8    -99.8204770611876029    -1.40e-05  3.54e-05  6.20e-04  1.41e-04     7.6
    9    -99.8204795289434514    -2.47e-06  1.08e-05  2.76e-04  7.84e-05     7.5
   10    -99.8204800544251611    -5.25e-07  3.42e-06  6.70e-05  2.08e-05     6.7
   11    -99.8204800780664527    -2.36e-08  1.35e-06  2.64e-05  9.12e-06     6.4
   12    -99.8204800978406865    -1.98e-08  2.72e-07  1.48e-05  3.10e-06     6.3
   13    -99.8204800992559740    -1.42e-09  1.46e-07  5.76e-06  1.35e-06     5.2
                 **** Energy Check signals convergence ****

               *****************************************************
               *                     SUCCESS                       *
               *           SCF CONVERGED AFTER  13 CYCLES          *
               *****************************************************

Recomputing exchange energy using gridx3       ... done (    9.739 sec)
Old exchange energy                            :    -15.865070570 Eh
New exchange energy                            :    -15.865107133 Eh
Exchange energy change after final integration :     -0.000036563 Eh
Total energy after final integration           :    -99.820516662 Eh
             **** ENERGY FILE WAS UPDATED (./output/alpha_humulene/alpha_humulene.en.tmp) ****

----------------
TOTAL SCF ENERGY
----------------

Total Energy       :        -99.82051666223721 Eh           -2716.25435 eV

Components:
Nuclear Repulsion  :        566.51884958802589 Eh           15415.76162 eV
Electronic Energy  :       -666.33932968728186 Eh          -18132.01497 eV
One Electron Energy:      -1271.90543751519886 Eh          -34610.30651 eV
Two Electron Energy:        605.56610782791699 Eh           16478.29153 eV

Virial components:
Potential Energy   :       -177.56964162114895 Eh           -4831.91560 eV
Kinetic Energy     :         77.74912495891172 Eh            2115.66125 eV
Virial Ratio       :          2.28387961555824

DFT components:
N(Alpha)           :       41.999949403415 electrons
N(Beta)            :       41.999949403415 electrons
N(Total)           :       83.999898806829 electrons
E(X)               :      -16.039048976587 Eh       
E(C)               :       -3.124355916935 Eh       
E(XC)              :      -19.163404893522 Eh       

---------------
SCF CONVERGENCE
---------------

  Last Energy change         ...    1.4153e-09  Tolerance :   1.0000e-08
  Last MAX-Density change    ...    5.7583e-06  Tolerance :   1.0000e-07
  Last RMS-Density change    ...    1.4565e-07  Tolerance :   5.0000e-09
  Last DIIS Error            ...    1.1475e-03  Tolerance :   5.0000e-07
  Last Orbital Gradient      ...    1.3487e-06  Tolerance :   1.0000e-05
  Last Orbital Rotation      ...    2.8064e-06  Tolerance :   1.0000e-05


----------------
ORBITAL ENERGIES
----------------

  NO   OCC          E(Eh)            E(eV) 
   0   2.0000      -0.980425       -26.6787 
   1   2.0000      -0.956856       -26.0374 
   2   2.0000      -0.947284       -25.7769 
   3   2.0000      -0.894701       -24.3460 
   4   2.0000      -0.875043       -23.8111 
   5   2.0000      -0.838589       -22.8192 
   6   2.0000      -0.818696       -22.2778 
   7   2.0000      -0.813161       -22.1272 
   8   2.0000      -0.805153       -21.9093 
   9   2.0000      -0.770933       -20.9782 
  10   2.0000      -0.729978       -19.8637 
  11   2.0000      -0.695963       -18.9381 
  12   2.0000      -0.653883       -17.7931 
  13   2.0000      -0.634663       -17.2701 
  14   2.0000      -0.619827       -16.8664 
  15   2.0000      -0.589296       -16.0356 
  16   2.0000      -0.588946       -16.0260 
  17   2.0000      -0.566866       -15.4252 
  18   2.0000      -0.561027       -15.2663 
  19   2.0000      -0.551852       -15.0167 
  20   2.0000      -0.540886       -14.7183 
  21   2.0000      -0.529264       -14.4020 
  22   2.0000      -0.524083       -14.2610 
  23   2.0000      -0.521503       -14.1908 
  24   2.0000      -0.510361       -13.8876 
  25   2.0000      -0.502814       -13.6823 
  26   2.0000      -0.499261       -13.5856 
  27   2.0000      -0.496680       -13.5153 
  28   2.0000      -0.483901       -13.1676 
  29   2.0000      -0.476671       -12.9709 
  30   2.0000      -0.471056       -12.8181 
  31   2.0000      -0.467058       -12.7093 
  32   2.0000      -0.454738       -12.3741 
  33   2.0000      -0.447381       -12.1739 
  34   2.0000      -0.435915       -11.8619 
  35   2.0000      -0.425901       -11.5893 
  36   2.0000      -0.423021       -11.5110 
  37   2.0000      -0.412955       -11.2371 
  38   2.0000      -0.410872       -11.1804 
  39   2.0000      -0.346162        -9.4196 
  40   2.0000      -0.318726        -8.6730 
  41   2.0000      -0.313735        -8.5372 
  42   0.0000       0.074570         2.0291 
  43   0.0000       0.081206         2.2097 
  44   0.0000       0.085315         2.3215 
  45   0.0000       0.087814         2.3895 
  46   0.0000       0.095745         2.6054 
  47   0.0000       0.102517         2.7896 
  48   0.0000       0.111862         3.0439 
  49   0.0000       0.118462         3.2235 
  50   0.0000       0.121037         3.2936 
  51   0.0000       0.125512         3.4153 
  52   0.0000       0.132184         3.5969 
*Only the first 10 virtual orbitals were printed.

                    ********************************
                    * MULLIKEN POPULATION ANALYSIS *
                    ********************************

-----------------------
MULLIKEN ATOMIC CHARGES
-----------------------
   0 C :   -0.087466
   1 C :   -0.079296
   2 C :    0.045509
   3 C :   -0.033467
   4 C :   -0.224803
   5 C :    0.038362
   6 C :   -0.024296
   7 C :   -0.063610
   8 C :   -0.062901
   9 C :   -0.004169
  10 C :   -0.086017
  11 C :   -0.058627
  12 C :   -0.080538
  13 C :   -0.043387
  14 C :   -0.035684
  15 H :    0.033295
  16 H :    0.057301
  17 H :    0.039904
  18 H :   -0.022986
  19 H :    0.022433
  20 H :    0.049570
  21 H :    0.007717
  22 H :    0.011308
  23 H :    0.054297
  24 H :    0.044576
  25 H :    0.002539
  26 H :    0.039164
  27 H :    0.043998
  28 H :    0.034229
  29 H :    0.039292
  30 H :    0.057638
  31 H :    0.037107
  32 H :    0.033914
  33 H :    0.037888
  34 H :    0.035449
  35 H :    0.035814
  36 H :    0.041696
  37 H :    0.032433
  38 H :    0.031814
Sum of atomic charges:   -0.0000000

--------------------------------
MULLIKEN REDUCED ORBITAL CHARGES
--------------------------------
  0 C s       :     0.954010  s :     0.954010
      pz      :     1.033684  p :     3.059977
      px      :     1.050377
      py      :     0.975917
      dz2     :     0.015368  d :     0.073479
      dxz     :     0.009442
      dyz     :     0.015160
      dx2y2   :     0.014921
      dxy     :     0.018588

  1 C s       :     1.091258  s :     1.091258
      pz      :     0.971611  p :     2.870556
      px      :     0.953396
      py      :     0.945549
      dz2     :     0.012578  d :     0.117481
      dxz     :     0.017216
      dyz     :     0.021471
      dx2y2   :     0.035511
      dxy     :     0.030705

  2 C s       :     1.031657  s :     1.031657
      pz      :     0.950237  p :     2.831935
      px      :     0.931827
      py      :     0.949871
      dz2     :     0.015360  d :     0.090898
      dxz     :     0.016673
      dyz     :     0.012773
      dx2y2   :     0.030036
      dxy     :     0.016056

  3 C s       :     0.989876  s :     0.989876
      pz      :     0.970671  p :     2.946038
      px      :     0.989228
      py      :     0.986139
      dz2     :     0.013144  d :     0.097552
      dxz     :     0.024762
      dyz     :     0.024587
      dx2y2   :     0.013925
      dxy     :     0.021134

  4 C s       :     1.086852  s :     1.086852
      pz      :     0.998496  p :     2.992082
      px      :     0.981940
      py      :     1.011646
      dz2     :     0.023917  d :     0.145869
      dxz     :     0.031394
      dyz     :     0.034041
      dx2y2   :     0.022558
      dxy     :     0.033959

  5 C s       :     1.025154  s :     1.025154
      pz      :     0.955590  p :     2.845831
      px      :     0.919982
      py      :     0.970260
      dz2     :     0.014714  d :     0.090652
      dxz     :     0.015998
      dyz     :     0.012724
      dx2y2   :     0.027872
      dxy     :     0.019344

  6 C s       :     1.067600  s :     1.067600
      pz      :     0.970729  p :     2.862455
      px      :     0.925674
      py      :     0.966052
      dz2     :     0.012031  d :     0.094241
      dxz     :     0.018714
      dyz     :     0.008854
      dx2y2   :     0.033542
      dxy     :     0.021099

  7 C s       :     0.979023  s :     0.979023
      pz      :     0.979880  p :     2.983040
      px      :     0.960574
      py      :     1.042586
      dz2     :     0.018847  d :     0.101547
      dxz     :     0.029438
      dyz     :     0.015593
      dx2y2   :     0.021403
      dxy     :     0.016267

  8 C s       :     1.095962  s :     1.095962
      pz      :     0.923177  p :     2.849489
      px      :     0.949068
      py      :     0.977245
      dz2     :     0.025488  d :     0.117449
      dxz     :     0.015367
      dyz     :     0.032253
      dx2y2   :     0.021614
      dxy     :     0.022727

  9 C s       :     1.036143  s :     1.036143
      pz      :     0.927852  p :     2.877274
      px      :     0.988619
      py      :     0.960803
      dz2     :     0.019132  d :     0.090752
      dxz     :     0.011757
      dyz     :     0.032767
      dx2y2   :     0.012931
      dxy     :     0.014165

 10 C s       :     0.997721  s :     0.997721
      pz      :     0.943660  p :     2.988840
      px      :     0.985900
      py      :     1.059280
      dz2     :     0.027298  d :     0.099456
      dxz     :     0.024035
      dyz     :     0.014906
      dx2y2   :     0.008448
      dxy     :     0.024769

 11 C s       :     0.994125  s :     0.994125
      pz      :     0.988641  p :     2.963345
      px      :     0.950355
      py      :     1.024349
      dz2     :     0.017187  d :     0.101157
      dxz     :     0.025061
      dyz     :     0.018832
      dx2y2   :     0.019796
      dxy     :     0.020281

 12 C s       :     0.952922  s :     0.952922
      pz      :     1.012160  p :     3.054494
      px      :     1.047487
      py      :     0.994847
      dz2     :     0.012357  d :     0.073121
      dxz     :     0.013771
      dyz     :     0.017091
      dx2y2   :     0.017820
      dxy     :     0.012083

 13 C s       :     0.954542  s :     0.954542
      pz      :     1.009171  p :     3.014750
      px      :     0.995563
      py      :     1.010017
      dz2     :     0.007759  d :     0.074095
      dxz     :     0.017825
      dyz     :     0.020813
      dx2y2   :     0.007333
      dxy     :     0.020364

 14 C s       :     0.954840  s :     0.954840
      pz      :     0.983744  p :     3.006088
      px      :     1.004949
      py      :     1.017394
      dz2     :     0.008790  d :     0.074757
      dxz     :     0.018213
      dyz     :     0.021410
      dx2y2   :     0.004390
      dxy     :     0.021954

 15 H s       :     0.922707  s :     0.922707
      pz      :     0.013593  p :     0.043999
      px      :     0.018237
      py      :     0.012169

 16 H s       :     0.898628  s :     0.898628
      pz      :     0.011837  p :     0.044072
      px      :     0.019275
      py      :     0.012960

 17 H s       :     0.915063  s :     0.915063
      pz      :     0.023102  p :     0.045033
      px      :     0.010742
      py      :     0.011189

 18 H s       :     0.972764  s :     0.972764
      pz      :     0.013247  p :     0.050222
      px      :     0.011845
      py      :     0.025130

 19 H s       :     0.934286  s :     0.934286
      pz      :     0.014626  p :     0.043281
      px      :     0.012342
      py      :     0.016312

 20 H s       :     0.907767  s :     0.907767
      pz      :     0.014168  p :     0.042663
      px      :     0.016699
      py      :     0.011797

 21 H s       :     0.943419  s :     0.943419
      pz      :     0.013186  p :     0.048864
      px      :     0.011247
      py      :     0.024432

 22 H s       :     0.940608  s :     0.940608
      pz      :     0.013786  p :     0.048085
      px      :     0.010303
      py      :     0.023995

 23 H s       :     0.902333  s :     0.902333
      pz      :     0.016527  p :     0.043370
      px      :     0.015333
      py      :     0.011510

 24 H s       :     0.911774  s :     0.911774
      pz      :     0.010713  p :     0.043650
      px      :     0.010593
      py      :     0.022344

 25 H s       :     0.949356  s :     0.949356
      pz      :     0.015546  p :     0.048104
      px      :     0.013664
      py      :     0.018895

 26 H s       :     0.918317  s :     0.918317
      pz      :     0.010085  p :     0.042519
      px      :     0.013052
      py      :     0.019381

 27 H s       :     0.912251  s :     0.912251
      pz      :     0.011404  p :     0.043751
      px      :     0.015578
      py      :     0.016769

 28 H s       :     0.922623  s :     0.922623
      pz      :     0.011369  p :     0.043148
      px      :     0.010739
      py      :     0.021039

 29 H s       :     0.918063  s :     0.918063
      pz      :     0.018172  p :     0.042645
      px      :     0.011800
      py      :     0.012673

 30 H s       :     0.897759  s :     0.897759
      pz      :     0.011393  p :     0.044603
      px      :     0.022686
      py      :     0.010524

 31 H s       :     0.917410  s :     0.917410
      pz      :     0.020555  p :     0.045483
      px      :     0.014222
      py      :     0.010706

 32 H s       :     0.921876  s :     0.921876
      pz      :     0.013278  p :     0.044210
      px      :     0.011845
      py      :     0.019087

 33 H s       :     0.919463  s :     0.919463
      pz      :     0.013879  p :     0.042649
      px      :     0.012035
      py      :     0.016735

 34 H s       :     0.921683  s :     0.921683
      pz      :     0.011992  p :     0.042868
      px      :     0.017441
      py      :     0.013435

 35 H s       :     0.920421  s :     0.920421
      pz      :     0.018122  p :     0.043765
      px      :     0.012592
      py      :     0.013050

 36 H s       :     0.915720  s :     0.915720
      pz      :     0.014892  p :     0.042585
      px      :     0.011713
      py      :     0.015980

 37 H s       :     0.923944  s :     0.923944
      pz      :     0.014408  p :     0.043623
      px      :     0.014439
      py      :     0.014776

 38 H s       :     0.925300  s :     0.925300
      pz      :     0.010911  p :     0.042886
      px      :     0.017620
      py      :     0.014355



                     *******************************
                     * LOEWDIN POPULATION ANALYSIS *
                     *******************************

----------------------
LOEWDIN ATOMIC CHARGES
----------------------
   0 C :   -0.117038
   1 C :   -0.048789
   2 C :   -0.038067
   3 C :   -0.075071
   4 C :   -0.082127
   5 C :   -0.028764
   6 C :   -0.028381
   7 C :   -0.093961
   8 C :   -0.033749
   9 C :   -0.046679
  10 C :   -0.091104
  11 C :   -0.086625
  12 C :   -0.114609
  13 C :   -0.113877
  14 C :   -0.111195
  15 H :    0.050824
  16 H :    0.056877
  17 H :    0.045815
  18 H :    0.029097
  19 H :    0.045592
  20 H :    0.048630
  21 H :    0.033724
  22 H :    0.032497
  23 H :    0.056143
  24 H :    0.054611
  25 H :    0.032089
  26 H :    0.048551
  27 H :    0.050472
  28 H :    0.048819
  29 H :    0.047066
  30 H :    0.056464
  31 H :    0.045374
  32 H :    0.049054
  33 H :    0.047686
  34 H :    0.047198
  35 H :    0.044393
  36 H :    0.049496
  37 H :    0.044276
  38 H :    0.045292

-------------------------------
LOEWDIN REDUCED ORBITAL CHARGES
-------------------------------
  0 C s       :     0.774820  s :     0.774820
      pz      :     1.059464  p :     3.104923
      px      :     1.061742
      py      :     0.983717
      dz2     :     0.050772  d :     0.237296
      dxz     :     0.030178
      dyz     :     0.047710
      dx2y2   :     0.045553
      dxy     :     0.063083

  1 C s       :     0.795877  s :     0.795877
      pz      :     0.908181  p :     2.878873
      px      :     0.989865
      py      :     0.980827
      dz2     :     0.039020  d :     0.374039
      dxz     :     0.056384
      dyz     :     0.065314
      dx2y2   :     0.110729
      dxy     :     0.102593

  2 C s       :     0.804380  s :     0.804380
      pz      :     0.926316  p :     2.934167
      px      :     0.972936
[...]
 81:   1513.77   0.000616    3.11  0.000127  ( 0.009030  0.005974 -0.003114)
 82:   1516.00   0.001305    6.59  0.000269  (-0.006715 -0.002732  0.014698)
 83:   1518.38   0.001898    9.59  0.000390  ( 0.011548 -0.015977 -0.001206)
 84:   1521.80   0.001447    7.31  0.000297  ( 0.003622 -0.016644  0.002574)
 85:   1524.30   0.001241    6.27  0.000254  ( 0.012233  0.008961  0.004915)
 86:   1527.24   0.002349   11.87  0.000480  (-0.014757 -0.002209 -0.016040)
 87:   1532.32   0.001229    6.21  0.000250  ( 0.012482  0.003772 -0.008954)
 88:   1536.12   0.001082    5.47  0.000220  ( 0.009878 -0.004792 -0.009967)
 89:   1540.00   0.003102   15.68  0.000629  (-0.009503  0.019203 -0.013020)
 90:   1787.79   0.001724    8.71  0.000301  (-0.014943 -0.005289  0.007053)
 91:   1798.54   0.001061    5.36  0.000184  ( 0.007824  0.009984  0.004822)
 92:   1799.81   0.000050    0.25  0.000009  (-0.002618 -0.001305 -0.000323)
 93:   3086.64   0.002652   13.40  0.000268  ( 0.010514 -0.010446  0.006959)
 94:   3090.34   0.009213   46.56  0.000930  ( 0.018519 -0.017957 -0.016277)
 95:   3092.37   0.005591   28.26  0.000564  ( 0.001499  0.000511 -0.023701)
 96:   3093.06   0.005921   29.92  0.000597  ( 0.004828  0.022130  0.009183)
 97:   3096.35   0.011138   56.29  0.001123  (-0.030221 -0.014030 -0.003524)
 98:   3097.22   0.004603   23.26  0.000464  ( 0.001042 -0.020362  0.006935)
 99:   3113.76   0.013247   66.95  0.001328  ( 0.028789  0.006497 -0.021369)
100:   3118.20   0.006871   34.72  0.000688  (-0.011103  0.011603 -0.020731)
101:   3153.78   0.002304   11.64  0.000228  ( 0.007831  0.008316  0.009872)
102:   3154.19   0.000261    1.32  0.000026  (-0.004733  0.001809  0.000402)
103:   3165.59   0.002908   14.70  0.000287  (-0.011275  0.010860 -0.006450)
104:   3166.22   0.001990   10.06  0.000196  ( 0.002101 -0.004840  0.012973)
105:   3170.45   0.004068   20.56  0.000400  (-0.006499 -0.018885  0.001218)
106:   3179.30   0.001258    6.36  0.000123  ( 0.004994  0.009894  0.000817)
107:   3179.67   0.001558    7.87  0.000153  ( 0.007798 -0.005098  0.008129)
108:   3184.23   0.004798   24.25  0.000470  (-0.005625  0.010849 -0.017914)
109:   3189.15   0.002945   14.88  0.000288  ( 0.005975  0.010590 -0.011845)
110:   3190.23   0.004135   20.90  0.000404  (-0.013497  0.014909 -0.000089)
111:   3192.57   0.004867   24.60  0.000476  (-0.017494 -0.013014  0.000571)
112:   3196.42   0.004197   21.21  0.000410  ( 0.005206  0.014445  0.013188)
113:   3210.87   0.003811   19.26  0.000370  (-0.001343  0.015998  0.010614)
114:   3216.09   0.002507   12.67  0.000243  (-0.007443  0.001137  0.013658)
115:   3219.55   0.001721    8.70  0.000167  ( 0.006659  0.011067 -0.000196)
116:   3220.18   0.003538   17.88  0.000343  (-0.010702  0.014280  0.004940)

* The epsilon (eps) is given for a Dirac delta lineshape.
** The dipole moment derivative (T) already includes vibrational overlap.

The first frequency considered to be a vibration is 6
The total number of vibrations considered is 111


--------------------------
THERMOCHEMISTRY AT 298.15K
--------------------------

Temperature         ...   298.15 K
Pressure            ...     1.00 atm
Total Mass          ...   204.36 AMU
Quasi RRHO          ...     True
Cut-Off Frequency   ...     1.00 cm^-1

Throughout the following assumptions are being made:
  (1) The electronic state is orbitally nondegenerate
  (2) There are no thermally accessible electronically excited states
  (3) Hindered rotations indicated by low frequency modes are not
      treated as such but are treated as vibrations and this may
      cause some error
  (4) All equations used are the standard statistical mechanics
      equations for an ideal gas
  (5) All vibrations are strictly harmonic

freq.      62.87  E(vib)   ...       0.51 
freq.      75.69  E(vib)   ...       0.49 
freq.     104.28  E(vib)   ...       0.46 
freq.     107.91  E(vib)   ...       0.45 
freq.     134.05  E(vib)   ...       0.42 
freq.     152.97  E(vib)   ...       0.40 
freq.     186.28  E(vib)   ...       0.37 
freq.     198.32  E(vib)   ...       0.35 
freq.     213.20  E(vib)   ...       0.34 
freq.     244.75  E(vib)   ...       0.31 
freq.     251.21  E(vib)   ...       0.30 
freq.     267.27  E(vib)   ...       0.29 
freq.     274.95  E(vib)   ...       0.28 
freq.     294.84  E(vib)   ...       0.27 
freq.     307.54  E(vib)   ...       0.26 
freq.     330.12  E(vib)   ...       0.24 
freq.     368.81  E(vib)   ...       0.21 
freq.     378.18  E(vib)   ...       0.21 
freq.     388.58  E(vib)   ...       0.20 
freq.     415.82  E(vib)   ...       0.18 
freq.     430.82  E(vib)   ...       0.18 
freq.     447.50  E(vib)   ...       0.17 
freq.     502.07  E(vib)   ...       0.14 
freq.     520.10  E(vib)   ...       0.13 
freq.     536.73  E(vib)   ...       0.12 
freq.     555.92  E(vib)   ...       0.12 
freq.     595.20  E(vib)   ...       0.10 
freq.     642.99  E(vib)   ...       0.09 
freq.     772.63  E(vib)   ...       0.05 
freq.     795.97  E(vib)   ...       0.05 
freq.     828.59  E(vib)   ...       0.04 
freq.     859.08  E(vib)   ...       0.04 
freq.     866.37  E(vib)   ...       0.04 
freq.     895.77  E(vib)   ...       0.03 
freq.     907.33  E(vib)   ...       0.03 
freq.     931.18  E(vib)   ...       0.03 
freq.     955.67  E(vib)   ...       0.03 
freq.     969.85  E(vib)   ...       0.03 
freq.     974.06  E(vib)   ...       0.03 
freq.     993.21  E(vib)   ...       0.02 
freq.    1004.86  E(vib)   ...       0.02 
freq.    1008.81  E(vib)   ...       0.02 
freq.    1027.60  E(vib)   ...       0.02 
freq.    1039.57  E(vib)   ...       0.02 
freq.    1047.20  E(vib)   ...       0.02 
freq.    1069.70  E(vib)   ...       0.02 
freq.    1077.05  E(vib)   ...       0.02 
freq.    1080.20  E(vib)   ...       0.02 
freq.    1089.20  E(vib)   ...       0.02 
freq.    1124.92  E(vib)   ...       0.01 
freq.    1150.32  E(vib)   ...       0.01 
freq.    1185.75  E(vib)   ...       0.01 
freq.    1197.78  E(vib)   ...       0.01 
freq.    1213.50  E(vib)   ...       0.01 
freq.    1235.67  E(vib)   ...       0.01 
freq.    1253.23  E(vib)   ...       0.01 
freq.    1263.21  E(vib)   ...       0.01 
freq.    1275.46  E(vib)   ...       0.01 
freq.    1291.18  E(vib)   ...       0.01 
freq.    1323.50  E(vib)   ...       0.01 
freq.    1330.47  E(vib)   ...       0.01 
freq.    1358.30  E(vib)   ...       0.01 
freq.    1373.91  E(vib)   ...       0.01 
freq.    1379.74  E(vib)   ...       0.01 
freq.    1382.66  E(vib)   ...       0.01 
freq.    1393.58  E(vib)   ...       0.00 
freq.    1416.13  E(vib)   ...       0.00 
freq.    1430.45  E(vib)   ...       0.00 
freq.    1431.96  E(vib)   ...       0.00 
freq.    1451.21  E(vib)   ...       0.00 
freq.    1458.60  E(vib)   ...       0.00 
freq.    1464.46  E(vib)   ...       0.00 
freq.    1502.69  E(vib)   ...       0.00 
freq.    1507.20  E(vib)   ...       0.00 
freq.    1512.50  E(vib)   ...       0.00 
freq.    1513.77  E(vib)   ...       0.00 
freq.    1516.00  E(vib)   ...       0.00 
freq.    1518.38  E(vib)   ...       0.00 
freq.    1521.80  E(vib)   ...       0.00 
freq.    1524.30  E(vib)   ...       0.00 
freq.    1527.24  E(vib)   ...       0.00 
freq.    1532.32  E(vib)   ...       0.00 
freq.    1536.12  E(vib)   ...       0.00 
freq.    1540.00  E(vib)   ...       0.00 
freq.    1787.79  E(vib)   ...       0.00 
freq.    1798.54  E(vib)   ...       0.00 
freq.    1799.81  E(vib)   ...       0.00 
freq.    3086.64  E(vib)   ...       0.00 
freq.    3090.34  E(vib)   ...       0.00 
freq.    3092.37  E(vib)   ...       0.00 
freq.    3093.06  E(vib)   ...       0.00 
freq.    3096.35  E(vib)   ...       0.00 
freq.    3097.22  E(vib)   ...       0.00 
freq.    3113.76  E(vib)   ...       0.00 
freq.    3118.20  E(vib)   ...       0.00 
freq.    3153.78  E(vib)   ...       0.00 
freq.    3154.19  E(vib)   ...       0.00 
freq.    3165.59  E(vib)   ...       0.00 
freq.    3166.22  E(vib)   ...       0.00 
freq.    3170.45  E(vib)   ...       0.00 
freq.    3179.30  E(vib)   ...       0.00 
freq.    3179.67  E(vib)   ...       0.00 
freq.    3184.23  E(vib)   ...       0.00 
freq.    3189.15  E(vib)   ...       0.00 
freq.    3190.23  E(vib)   ...       0.00 
freq.    3192.57  E(vib)   ...       0.00 
freq.    3196.42  E(vib)   ...       0.00 
freq.    3210.87  E(vib)   ...       0.00 
freq.    3216.09  E(vib)   ...       0.00 
freq.    3219.55  E(vib)   ...       0.00 
freq.    3220.18  E(vib)   ...       0.00 

------------
INNER ENERGY
------------

The inner energy is: U= E(el) + E(ZPE) + E(vib) + E(rot) + E(trans)
    E(el)   - is the total energy from the electronic structure calculation
              = E(kin-el) + E(nuc-el) + E(el-el) + E(nuc-nuc)
    E(ZPE)  - the the zero temperature vibrational energy from the frequency calculation
    E(vib)  - the the finite temperature correction to E(ZPE) due to population
              of excited vibrational states
    E(rot)  - is the rotational thermal energy
    E(trans)- is the translational thermal energy

Summary of contributions to the inner energy U:
Electronic energy                ...    -99.89261932 Eh
Zero point energy                ...      0.36219167 Eh     227.28 kcal/mol
Thermal vibrational correction   ...      0.01336948 Eh       8.39 kcal/mol
Thermal rotational correction    ...      0.00141627 Eh       0.89 kcal/mol
Thermal translational correction ...      0.00141627 Eh       0.89 kcal/mol
-----------------------------------------------------------------------
Total thermal energy                    -99.51422562 Eh


Summary of corrections to the electronic energy:
(perhaps to be used in another calculation)
Total thermal correction                  0.01620203 Eh      10.17 kcal/mol
Non-thermal (ZPE) correction              0.36219167 Eh     227.28 kcal/mol
-----------------------------------------------------------------------
Total correction                          0.37839370 Eh     237.45 kcal/mol


--------
ENTHALPY
--------

The enthalpy is H = U + kB*T
                kB is Boltzmann's constant
Total thermal energy              ...    -99.51422562 Eh 
Thermal Enthalpy correction       ...      0.00094421 Eh       0.59 kcal/mol
-----------------------------------------------------------------------
Total Enthalpy                    ...    -99.51328141 Eh


Note: Only C1 symmetry has been detected, increase convergence thresholds 
      if your molecule has a higher symmetry. Symmetry factor of 1.0 is   
      used for the rotational entropy correction. 
 

Note: Rotational entropy computed according to Herzberg 
Infrared and Raman Spectra, Chapter V,1, Van Nostrand Reinhold, 1945 
Point Group:  C1, Symmetry Number:   1  
Rotational constants in cm-1:     0.028006     0.016216     0.012879 

Vibrational entropy computed according to the QRRHO of S. Grimme
Chem.Eur.J. 2012 18 9955 using a reference frequency of 100.0 cm-1


-------
ENTROPY
-------

The entropy contributions are T*S = T*(S(el)+S(vib)+S(rot)+S(trans))
     S(el)   - electronic entropy
     S(vib)  - vibrational entropy
     S(rot)  - rotational entropy
     S(trans)- translational entropy
The entropies will be listed as multiplied by the temperature to get
units of energy

Electronic entropy                ...      0.00000000 Eh      0.00 kcal/mol
Vibrational entropy               ...      0.02270734 Eh     14.25 kcal/mol
Rotational entropy                ...      0.01519915 Eh      9.54 kcal/mol
Translational entropy             ...      0.01988345 Eh     12.48 kcal/mol
-----------------------------------------------------------------------
Final entropy term                ...      0.05778993 Eh     36.26 kcal/mol

In case the symmetry of your molecule has not been determined correctly
or in case you have a reason to use a different symmetry number we print 
out the resulting rotational entropy values for sn=1,12:

 non-linear molecules -----------------------------------
|  sn= 1 | S(rot)=       0.01519915 Eh      9.54 kcal/mol|
|  sn= 2 | S(rot)=       0.01454469 Eh      9.13 kcal/mol|
|  sn= 3 | S(rot)=       0.01416186 Eh      8.89 kcal/mol|
|  sn= 4 | S(rot)=       0.01389023 Eh      8.72 kcal/mol|
|  sn= 5 | S(rot)=       0.01367955 Eh      8.58 kcal/mol|
|  sn= 6 | S(rot)=       0.01350740 Eh      8.48 kcal/mol|
|  sn= 7 | S(rot)=       0.01336185 Eh      8.38 kcal/mol|
|  sn= 8 | S(rot)=       0.01323578 Eh      8.31 kcal/mol|
|  sn= 9 | S(rot)=       0.01312457 Eh      8.24 kcal/mol|
|  sn=10 | S(rot)=       0.01302509 Eh      8.17 kcal/mol|
|  sn=11 | S(rot)=       0.01293510 Eh      8.12 kcal/mol|
|  sn=12 | S(rot)=       0.01285294 Eh      8.07 kcal/mol|
 linear molecules ---------------------------------------
|  Dinfh | S(rot)=       0.00943504 Eh      5.92 kcal/mol|
|  Cinfv | S(rot)=       0.01008949 Eh      6.33 kcal/mol|
 --------------------------------------------------------


-------------------
GIBBS FREE ENERGY
-------------------

The Gibbs free energy is G = H - T*S

Total enthalpy                    ...    -99.51328141 Eh 
Total entropy correction          ...     -0.05778993 Eh    -36.26 kcal/mol
-----------------------------------------------------------------------
Final Gibbs free energy         ...    -99.57107135 Eh

For completeness - the Gibbs free energy minus the electronic energy
G-E(el)                           ...      0.32154798 Eh    201.77 kcal/mol


Maximum memory used throughout the entire PROP-calculation: 241.9 MB

--------------------------------
SUGGESTED CITATIONS FOR THIS RUN
--------------------------------

Below you find a list of papers that are relevant to this ORCA run
We neither can nor want to force you to cite these papers, but we appreciate if you do
You receive ORCA, which is the product of decades of hard work by many enthusiastic individuals, for free
The only thing we kindly ask in return is that you cite our papers,
We deeply appreciate it, if you show your appreciation for ORCA by not just citing the generic ORCA reference.

Please note that relegating all ORCA citations to the supporting information does *not* help us.
SI sections are not indexed - citations you put there will not count into any citation statistics
But we need these citations in order to attract the funding resources that allow us to do what we are doing

Therefore, if you are a happy ORCA user, please consider citing a few of the papers listed below in the main body of your paper

In addition to the list printed below, the program has created the file ./output/alpha_humulene/alpha_humulene.bibtex that contains the list in bibtex format
You can import this file easily into all common literature databanks and citation aid programs


List of essential papers. We consider these as the minimum necessary citations

  1. Neese,F.
     Software update: the ORCA program system, version 5.0
     WIRES Comput. Molec. Sci., 2022 12(1)e1606
     doi.org/10.1002/wcms.1606
  2. Mueller,M.; Hansen,A.; Grimme,S.
     wB97X-3c: A composite range-separated hybrid DFT method with a molecule-optimized polarized valence double-zeta basis set
     J. Chem. Phys., 2023 158 014103
     doi.org/10.1063/5.0133026

List of papers to cite with high priority. The work reported in these papers was absolutely
necessary for this run to complete.
Our perspective: the developers of density functionals and basis sets usually get cited in chemistry papers
Good! But without the algorithms to do something with them, the functionals or basis sets would not do anything.
Hence, in our opinion, the algorithm design and method developments papers are equally worthy of getting cited

  1. Neese,F.
     An improvement of the resolution of the identity approximation for the formation of the Coulomb matrix
     J. Comp. Chem., 2003 24(14)1740-1747
     doi.org/10.1002/jcc.10318
  2. Neese,F.; Wennmohs,F.; Hansen,A.; Becker,U.
     Efficient, approximate and parallel Hartree-Fock and hybrid DFT calculations. A 'chain-of-spheres' algorithm for the Hartree-Fock exchange
     Chem. Phys., 2009 356(1-3)98-109
     doi.org/10.1016/j.chemphys.2008.10.036
  3. Bykov,D.; Petrenko,T.; Izsak,R.; Kossmann,S.; Becker,U.; Valeev,E.; Neese,F.
     Efficient implementation of the analytic second derivatives of Hartree-Fock and hybrid DFT energies: a detailed analysis of different approximations
     Molec. Phys., 2015 113 1961-1977
     doi.org/10.1080/00268976.2015.1025114
  4. Helmich-Paris,B.; de Souza,B.; Neese,F.; Izsák,R.
     An improved chain of spheres for exchange algorithm
     J. Chem. Phys., 2021 155 104109
     doi.org/doi: 10.1063/5.0058766.
  5. Neese,F.
     The SHARK Integral Generation and Digestion System
     J. Comp. Chem., 2022  1-16
     doi.org/10.1002/jcc.26942
  6. Caldeweyher,E.; Bannwarth,C.; Grimme,S.
     Extension of the D3 dispersion coefficient model
     J. Chem. Phys., 2017 147 034112
     doi.org/10.1063/1.4993215
  7. Caldeweyher,E.; Ehlert,S.; Hansen,A.; Neugebauer,H.; Spicher,S.; Bannwarth,C.; Grimme,S.
     A generally applicable atomic-charge dependent London dispersion correction
     J. Chem. Phys., 2019 150 154122
     doi.org/10.1063/1.5090222
  8. Caldeweyher,E.; Mewes,J.; Ehlert,S.; Grimme,S.
     Extension and evaluation of the D4 London-dispersion model for periodic systems
     Phys. Chem. Chem. Phys., 2020 22(16)8499-8512
     doi.org/10.1039/D0CP00502A
  9. Wittmann,L.; Gordiy,I.; Friede,M.; Helmich-Paris,B.; Grimme,S.; Hansen,A.; Bursch,M.
     Extension of the D3 and D4 London Dispersion Corrections to the full Actinides Series
     Phys. Chem. Chem. Phys., 2024 26(32)21379-21394
     doi.org/https://doi.org/10.1039/D4CP01514B 

List of suggested additional citations. These are papers that are important in the 'surrounding' of 
of this run, or papers that preceded the highly important papers. If you like your results we are grateful for a citation.

  1. Izsak,R.; Neese,F.
     An overlap fitted chain of spheres exchange method
     J. Chem. Phys., 2011 135 144105
     doi.org/10.1063/1.3646921
  2. Izsak,R.; Hansen,A.; Neese,F.
     The resolution of identity and chain of spheres approximations for the LPNO-CCSD singles Fock term
     Molec. Phys., 2012 110 2413-2417
     doi.org/10.1080/00268976.2012.687466
  3. Neese,F.
     The ORCA program system
     WIRES Comput. Molec. Sci., 2012 2(1)73-78
     doi.org/10.1002/wcms.81
  4. Izsak,R.; Neese,F.; Klopper,W.
     Robust fitting techniques in the chain of spheres approximation to the Fock exchange: The role of the complementary space
     J. Chem. Phys., 2013 139 
     doi.org/10.1063/1.4819264
  5. Neese,F.
     Software update: the ORCA program system, version 4.0
     WIRES Comput. Molec. Sci., 2018 8(1)1-6
     doi.org/10.1002/wcms.1327
  6. Neese,F.; Wennmohs,F.; Becker,U.; Riplinger,C.
     The ORCA quantum chemistry program package
     J. Chem. Phys., 2020 152 Art. No. L224108
     doi.org/10.1063/5.0004608

List of optional additional citations

  1. Neese,F.
     Approximate second-order SCF convergence for spin unrestricted wavefunctions
     Chem. Phys. Lett., 2000 325(1-3)93-98
     doi.org/10.1016/s0009-2614(00)00662-x

Timings for individual modules:

Sum of individual times          ...     2264.146 sec (=  37.736 min)
Startup calculation              ...      100.475 sec (=   1.675 min)   4.4 %
SCF iterations                   ...     1427.190 sec (=  23.786 min)  63.0 %
Property integrals               ...      143.727 sec (=   2.395 min)   6.3 %
SCF Response                     ...       87.795 sec (=   1.463 min)   3.9 %
Property calculations            ...      205.545 sec (=   3.426 min)   9.1 %
SCF Gradient evaluation          ...      299.015 sec (=   4.984 min)  13.2 %
Geometry relaxation              ...        0.397 sec (=   0.007 min)   0.0 %
                             ****ORCA TERMINATED NORMALLY****
TOTAL RUN TIME: 0 days 0 hours 37 minutes 52 seconds 930 msec
