
                                 *****************
                                 * O   R   C   A *
                                 *****************

                                            #,                                       
                                            ###                                      
                                            ####                                     
                                            #####                                    
                                            ######                                   
                                           ########,                                 
                                     ,,################,,,,,                         
                               ,,#################################,,                 
                          ,,##########################################,,             
                       ,#########################################, ''#####,          
                    ,#############################################,,   '####,        
                  ,##################################################,,,,####,       
                ,###########''''           ''''###############################       
              ,#####''   ,,,,##########,,,,          '''####'''          '####       
            ,##' ,,,,###########################,,,                        '##       
           ' ,,###''''                  '''############,,,                           
         ,,##''                                '''############,,,,        ,,,,,,###''
      ,#''                                            '''#######################'''  
     '                                                          ''''####''''         
             ,#######,   #######,   ,#######,      ##                                
            ,#'     '#,  ##    ##  ,#'     '#,    #''#        ,####,   ,####,        
            ##       ##  ##   ,#'  ##            #'  '#       #'       #'  '#        
            ##       ##  #######   ##           ,######,      #####,   #    #        
            '#,     ,#'  ##    ##  '#,     ,#' ,#      #,     #,   #   #,  ,#        
             '#######'   ##     ##  '#######'  #'      '#     '####' # '####'        



                #########################################################
                #                        -***-                          #
                #          Department of theory and spectroscopy        #
                #                                                       #
                #                      Frank Neese                      #
                #                                                       #
                #     Directorship, Architecture, Infrastructure        #
                #                    SHARK, DRIVERS                     #
                #        Core code/Algorithms in most modules           #
                #                                                       #
                #        Max Planck Institute fuer Kohlenforschung      #
                #                Kaiser Wilhelm Platz 1                 #
                #                 D-45470 Muelheim/Ruhr                 #
                #                      Germany                          #
                #                                                       #
                #                  All rights reserved                  #
                #                        -***-                          #
                #########################################################


                         Program Version 6.0.1  -  RELEASE   -


 With contributions from (in alphabetic order):
[Max-Planck-Institut fuer Kohlenforschung]                               
  Daniel Aravena         : Magnetic Suceptibility                        
  Michael Atanasov       : Ab Initio Ligand Field Theory (pilot matlab implementation)
  Alexander A. Auer      : GIAO ZORA, VPT2 properties, NMR spectrum      
  Ute Becker             : All parallelization in ORCA, NUMFREQ, NUMCALC 
  Giovanni Bistoni       : ED, misc. LED, open-shell LED, HFLD           
  Martin Brehm           : Molecular dynamics                            
  Dmytro Bykov           : pre 5.0 version of the SCF Hessian            
  Marcos Casanova-Páez   : Triplet and SCS-CIS(D). UHF-(DLPNO)-IP/EA/STEOM-CCSD. UHF-CVS-IP/STEOM-CCSD   
  Vijay G. Chilkuri      : MRCI spin determinant printing, contributions to CSF-ICE 
  Pauline Colinet        : FMM embedding                                 
  Dipayan Datta          : RHF DLPNO-CCSD density                        
  Achintya Kumar Dutta   : EOM-CC, STEOM-CC                              
  Nicolas Foglia         : Exact transition moments, OPA infrastructure, MCD improvements    
  Dmitry Ganyushin       : Spin-Orbit,Spin-Spin,Magnetic field MRCI      
  Miquel Garcia-Rates    : C-PCM and meta-GGA Hessian, CCSD/C-PCM, Gaussian charge scheme 
  Tiago L. C. Gouveia    : GS-ROHF, GS-ROCIS                             
  Yang Guo               : DLPNO-NEVPT2, F12-NEVPT2, CIM, IAO-localization        
  Andreas Hansen         : Spin unrestricted coupled pair/coupled cluster methods 
  Ingolf Harden          : AUTO-CI MPn and infrastructure                
  Benjamin Helmich-Paris : MC-RPA, TRAH-(SCF,CASSCF), AVAS, COSX integrals, SCF dyn. polar. 
  Lee Huntington         : MR-EOM, pCC                                   
  Robert Izsak           : Overlap fitted RIJCOSX, COSX-SCS-MP3, EOM     
  Riya Kayal             : Wick's Theorem for AUTO-CI, AUTO-CI UHF-CCSDT 
  Emily Kempfer          : AUTO-CI, RHF CISDT and CCSDT                  
  Christian Kollmar      : KDIIS, OOCD, Brueckner-CCSD(T), CCSD density, CASPT2, CASPT2-K, improved NEVPT2 
  Axel Koslowski         : Symmetry handling                             
  Simone Kossmann        : meta-GGA functionals, TD-DFT gradient, OOMP2, (MP2 Hessian; deprecated post 5.0) 
  Lucas Lang             : DCDCAS                                        
  Marvin Lechner         : AUTO-CI (C++ implementation), FIC-MRCC        
  Spencer Leger          : CASSCF response                               
  Dagmar Lenk            : GEPOL surface, SMD, ORCA-2-JSON               
  Dimitrios Liakos       : Extrapolation schemes; Compound Job, initial MDCI parallelization 
  Dimitrios Manganas     : Further ROCIS development; embedding schemes. LFT, Crystal Embedding 
  Dimitrios Pantazis     : SARC Basis sets                               
  Anastasios Papadopoulos: AUTO-CI, single reference methods and gradients 
  Taras Petrenko         : pre 6.0 DFT Hessian and TD-DFT gradient, (ASA, deprecated), ECA, 1-Electron XAS/XES, NRVS 
  Peter Pinski           : DLPNO-MP2, DLPNO-MP2 Gradient                 
  Christoph Reimann      : Effective Core Potentials                     
  Marius Retegan         : Local ZFS, SOC                                
  Christoph Riplinger    : Optimizer, TS searches, QM/MM, DLPNO-CCSD(T), (RO)-DLPNO pert. Triples 
  Michael Roemelt        : Original ROCIS implementation                 
  Masaaki Saitow         : Open-shell DLPNO-CCSD energy and density      
  Barbara Sandhoefer     : DKH picture change effects                    
  Kantharuban Sivalingam : CASSCF convergence/infrastructure, NEVPT2 and variants, FIC-MRCI 
  Bernardo de Souza      : ESD, SOC TD-DFT                               
  Georgi L. Stoychev     : AutoAux, RI-MP2 NMR, DLPNO-MP2 response, X2C  
  Van Anh Tran           : RI-MP2 g-tensors                              
  Willem Van den Heuvel  : Paramagnetic NMR                              
  Zikuan Wang            : NOTCH, Electric field optimization            
  Frank Wennmohs         : Technical directorship and infrastructure     
  Hang Xu                : AUTO-CI-Response properties                   
                                                                         
[FACCTs GmbH]                                                            
  Markus Bursch, Miquel Garcia-Rates, Christoph Riplinger, Bernardo de Souza, Georgi L. Stoychev 
                                                                 
  APM, Basis sets (HGBS, AHGBS, def-TZVP (Ac-Lr), def2-XVPD (La-Lu)), CI-OPT, improved COSX, DLPNO-Multilevel,           
  DOCKER, DRACO, updates on ESD, GOAT, IRC, LR-CPCM, MBIS, meta-GGA TD-DFT gradient, ML-optimized integration grids, 
  MM, NACMEs, nearIR, NEB, NEB-TS, NL-DFT gradient (VV10), 2- and 3-layer-ONIOM, interface openCOSMO-RS, QMMM,   
  Crystal-QMMM, SF, symmetry and pop. for TD-DFT, r2SCAN hybrids, SOLVATOR                                   
                                                                         
[Other institutions]                                                     
  V. Asgeirsson          : NEB                                           
  Christoph Bannwarth    : sTDA-DFT, sTD-DFT, PBEh-3c, B97-3c, D3        
  Sebastian Ehlert       : rSCAN, r2SCAN, r2SCAN-3c, D4, dhf basis sets  
  Marvin Friede          : D4 for Fr, Ra, Ac-Lr                          
  Lars Goerigk           : TD-DFT with DH, B97 family of functionals     
  Stefan Grimme          : VdW corrections, initial TS optimization, DFT functionals, gCP, sTDA/sTD-DF 
  Waldemar Hujo          : DFT-NL                                        
  H. Jonsson             : NEB                                           
  Holger Kruse           : gCP                                           
  Marcel Mueller         : wB97X-3c, vDZP basis set                      
  Hagen Neugebauer       : wr2SCAN                                       
  Tobias Risthaus        : range-separated hybrid DFT                    
  Lukas Wittmann         : regularized MP2, r2SCAN double-hybrids, wr2SCAN        
                                                                         
We gratefully acknowledge several colleagues who have allowed us to      
interface, adapt or use parts of their codes:                            
  Ed Valeev, F. Pavosevic, A. Kumar             : LibInt (2-el integral package), F12 methods 
  Garnet Chan, S. Sharma, J. Yang, R. Olivares  : DMRG                   
  Ulf Ekstrom                                   : XCFun DFT Library      
  Mihaly Kallay                                 : mrcc  (arbitrary order and MRCC methods)
  Frank Weinhold                                : gennbo (NPA and NBO analysis)           
  Simon Mueller                                 : openCOSMO-RS                            
  Christopher J. Cramer and Donald G. Truhlar   : smd solvation model                     
  S Lehtola, MJT Oliveira, MAL Marques          : LibXC Library                           
  Liviu Ungur et al                             : ANISO software                          


 Your calculation uses the libint2 library for the computation of 2-el integrals
 For citations please refer to: http://libint.valeyev.net

 Your ORCA version has been built with support for libXC version: 6.2.2
 For citations please refer to: https://libxc.gitlab.io

 This ORCA versions uses:
   CBLAS   interface :  Fast vector & matrix operations
   LAPACKE interface :  Fast linear algebra routines
   SCALAPACK package :  Parallel linear algebra routines
   Shared memory     :  Shared parallel matrices
   BLAS/LAPACK       :  OpenBLAS 0.3.27  USE64BITINT DYNAMIC_ARCH NO_AFFINITY SkylakeX SINGLE_THREADED
        Core in use  :  SkylakeX
   Copyright (c) 2011-2014, The OpenBLAS Project


Your calculation utilizes the atom-pairwise dispersion correction
based on EEQ partial charges (D4)


================================================================================

cite the ECPs for C  [vDZP-ECP], O  [vDZP-ECP] as follows:
   B-Ne (ecp-2-mwb), Al-Ar (ecp-10-mwb), Ga-Kr (ecp-28-mwb), Y-Cd (ecp-28-mwb), In-Xe (ecp-46-mwb):
     A. Bergner, M. Dolg, W. Küchle, H. Stoll, and H. Preuß, Mol. Phys. 80, 1431 (1993)., T. Leininger, A. Berning, A. Nicklass, H. Stoll, H.-J. Werner, and H.-J.Flad, Chem. Phys. 217, 19 (1997).
   Na-Mg, K-Ca, Rb-Sr, Cs-Ba (CRENBL):
     L. Fernandez Pacios and P. A. Christiansen, J. Chem. Phys. 82, 2664 (1985)., M. M. Hurley, L. F. Pacios, P. A. Christiansen, R. B. Ross, and W. C. Ermler, J. Chem. Phys. 84, 6840 (1986)., L. A. LaJohn, P. A. Christiansen, R. B. Ross, T. Atashroo, and W. C. Ermler, J. Chem. Phys. 87, 2812 (1987)., R. B. Ross, J. M. Powers, T. Atashroo, W. C. Ermler, L. A. LaJohn, and P. A. Christiansen, J. Chem. Phys. 93, 6654 (1990). 
   Sc-Zn (ecp-10-mdf):
     M. Dolg, U. Wedig, H. Stoll, and H. Preuss, J. Chem. Phys. 86, 866 (1986). 
   Y-Cd (ecp-28-mwb), Hf-Hg (ecp-60-mwb):
     D. Andrae, U. Häußermann, M. Dolg, H. Stoll, and H. Preuß, Theor. Chim. Acta 77, 123 (1990). 
   La (ecp-46-mwb):
     M. Dolg, H. Stoll, and H. Preuss, J. Chem. Phys. 90, 1730 (1989)., M. Dolg, H. Stoll, and H. Preuss, Theor. Chim. Acta 85, 441 (1993).
   Ce-Lu (SBKJC-ecp):
     T. R. Cundari and W. J. Stevens, J. Chem. Phys. 98, 5555 (1993).
   Tl-Rn (ecp-78-mwb):
     W. Küchle, M. Dolg, H. Stoll, and H. Preuss, Mol. Phys. 74, 1245 (1991).

ECP parameters for C  [vDZP-ECP], O  [vDZP-ECP] have been obtained from:
MM, AH, SG, J. Chem. Phys. 158, 014103 (2023), 10.1063/5.0133026

----- Orbital basis set information -----
Your calculation utilizes the basis: vDZP
   Marcel Mueller, Andreas Hansen, Stefan Grimme 
   J. Chem. Phys. 158, 014103 (2023). DOI: 10.1063/5.0133026

----- AuxJ basis set information -----
Your calculation utilizes the auxiliary basis: def2/J
   F. Weigend, Phys. Chem. Chem. Phys. 8, 1057 (2006).

================================================================================
                                        WARNINGS
                       Please study these warnings very carefully!
================================================================================

WARNING: Frozen-Core approximation turned on, but there are no core electrons.
  ===> : Turning off frozen-core approximation


WARNING: Geometry Optimization
  ===> : Switching off AutoStart
         For restart on a previous wavefunction, please use MOREAD

================================================================================
                                       INPUT FILE
================================================================================
NAME = ./output/elemol/elemol.inp
|  1> ! wB97X-3c OPT FREQ TightSCF
|  2> %pal
|  3>   nprocs 40
|  4> end
|  5> * xyz 0 1
|  6> C      2.314160     2.692855     1.264842
|  7> C      1.767982     1.633394     0.335413
|  8> C      2.225551     1.635108    -0.928257
|  9> C      0.734609     0.620000     0.861437
| 10> C     -0.663247     0.804169     0.212509
| 11> C     -0.865155     0.044170    -1.125928
| 12> C     -0.451311    -1.437472    -0.968997
| 13> C      0.986446    -1.580132    -0.451164
| 14> C      1.193945    -0.887032     0.921982
| 15> C      2.686044    -0.978120     1.325322
| 16> C      0.365981    -1.615199     1.990517
| 17> C      0.515715    -2.913087     2.290593
| 18> C     -2.309526     0.214498    -1.734555
| 19> C     -2.570930     1.693870    -2.082192
| 20> C     -3.438827    -0.258886    -0.782137
| 21> O     -2.384130    -0.493585    -2.953273
| 22> H      1.891638     2.619675     2.287797
| 23> H      2.073703     3.701311     0.866113
| 24> H      3.417239     2.588436     1.343779
| 25> H      2.953860     2.374911    -1.248205
| 26> H      1.917324     0.919012    -1.668812
| 27> H      0.574072     0.916613     1.921674
| 28> H     -1.419585     0.449585     0.942855
| 29> H     -0.841005     1.890287     0.069044
| 30> H     -0.180433     0.485165    -1.875040
| 31> H     -1.138935    -1.966032    -0.277249
| 32> H     -0.498962    -1.951683    -1.951886
| 33> H      1.224204    -2.662886    -0.377149
| 34> H      1.692155    -1.185598    -1.206862
| 35> H      3.340477    -0.512607     0.559116
| 36> H      2.856708    -0.463677     2.295716
| 37> H      3.015067    -2.033527     1.426093
| 38> H     -0.393486    -1.070208     2.544257
| 39> H     -0.106752    -3.365192     3.055926
| 40> H      1.247045    -3.536190     1.788263
| 41> H     -1.745534     2.103460    -2.703101
| 42> H     -3.512907     1.787590    -2.664892
| 43> H     -2.679916     2.318904    -1.171546
| 44> H     -3.515402     0.387298     0.116678
| 45> H     -3.286917    -1.307397    -0.456795
| 46> H     -4.416699    -0.212994    -1.308121
| 47> H     -2.574269    -1.448806    -2.761054
| 48> *
| 49> 
| 50>                          ****END OF INPUT****
================================================================================

                       *****************************
                       * Geometry Optimization Run *
                       *****************************

Geometry optimization settings:
Update method            Update   .... BFGS
Choice of coordinates    CoordSys .... (2022) Redundant Internals
Initial Hessian          InHess   .... Almloef's Model
Max. no of cycles        MaxIter  .... 126

Convergence Tolerances:
Energy Change            TolE     ....  5.0000e-06 Eh
Max. Gradient            TolMAXG  ....  3.0000e-04 Eh/bohr
RMS Gradient             TolRMSG  ....  1.0000e-04 Eh/bohr
Max. Displacement        TolMAXD  ....  4.0000e-03 bohr
RMS Displacement         TolRMSD  ....  2.0000e-03 bohr
Strict Convergence                .... False

------------------------------------------------------------------------------
                        ORCA OPTIMIZATION COORDINATE SETUP
------------------------------------------------------------------------------

The optimization will be done in redundant internal coordinates (2022)
Making redundant internal coordinates   ...  (2022 redundants) done
Evaluating the initial hessian          ...  (Almloef) done
Evaluating the coordinates              ...  done
Calculating the B-matrix                .... done
Calculating the G-matrix                .... done
Diagonalizing the G-matrix              .... done
Small eigenvalue found = 1.023e-02
Small eigenvalue found = 1.436e-02
Small eigenvalue found = 1.667e-02
Small eigenvalue found = 1.833e-02
Small eigenvalue found = 2.527e-02
The first mode is                       ....   87
The number of degrees of freedom        ....  120

    -----------------------------------------------------------------
                    Redundant Internal Coordinates


    -----------------------------------------------------------------
         Definition                    Initial Value    Approx d2E/dq
    -----------------------------------------------------------------
      1. B(C   1,C   0)                  1.5115         0.399859   
      2. B(C   2,C   1)                  1.3440         0.739927   
      3. B(C   3,C   1)                  1.5400         0.360131   
      4. B(C   4,C   3)                  1.5521         0.344439   
      5. B(C   5,C   4)                  1.5523         0.344132   
      6. B(C   6,C   5)                  1.5463         0.351814   
      7. B(C   7,C   6)                  1.5348         0.367029   
      8. B(C   8,C   7)                  1.5521         0.344461   
      9. B(C   8,C   3)                  1.5766         0.314748   
     10. B(C   9,C   8)                  1.5483         0.349242   
     11. B(C  10,C   8)                  1.5354         0.366208   
     12. B(C  11,C  10)                  1.3405         0.749358   
     13. B(C  12,C   5)                  1.5766         0.314805   
     14. B(C  13,C  12)                  1.5420         0.357481   
     15. B(C  14,C  12)                  1.5513         0.345465   
     16. B(O  15,C  12)                  1.4115         0.517174   
     17. B(H  16,C   0)                  1.1092         0.335580   
     18. B(H  17,C   0)                  1.1108         0.333658   
     19. B(H  18,C   0)                  1.1108         0.333587   
     20. B(H  19,C   2)                  1.0863         0.364990   
     21. B(H  20,C   2)                  1.0753         0.380114   
     22. B(H  21,C   3)                  1.1126         0.331424   
     23. B(H  22,C   4)                  1.1096         0.335100   
     24. B(H  23,C   4)                  1.1099         0.334739   
     25. B(H  24,C   5)                  1.1066         0.338838   
     26. B(H  25,C   6)                  1.1094         0.335358   
     27. B(H  26,C   6)                  1.1103         0.334229   
     28. B(H  27,C   7)                  1.1110         0.333341   
     29. B(H  28,C   7)                  1.1067         0.338685   
     30. B(H  29,C   9)                  1.1100         0.334615   
     31. B(H  30,C   9)                  1.1115         0.332747   
     32. B(H  31,C   9)                  1.1101         0.334483   
     33. B(H  32,C  10)                  1.0865         0.364790   
     34. B(H  33,C  11)                  1.0852         0.366544   
     35. B(H  34,C  11)                  1.0842         0.367888   
     36. B(H  35,C  13)                  1.1111         0.333227   
     37. B(H  36,C  13)                  1.1116         0.332636   
     38. B(H  37,C  13)                  1.1099         0.334745   
     39. B(H  38,C  14)                  1.1096         0.335042   
     40. B(H  39,C  14)                  1.1083         0.336704   
     41. B(H  40,C  14)                  1.1113         0.332991   
     42. B(H  41,O  15)                  0.9927         0.461020   
     43. A(C   1,C   0,H  16)          112.5324         0.324184   
     44. A(H  17,C   0,H  18)          109.0155         0.283981   
     45. A(H  16,C   0,H  18)          107.8504         0.284234   
     46. A(H  16,C   0,H  17)          107.9686         0.284244   
     47. A(C   1,C   0,H  17)          109.7198         0.323879   
     48. A(C   1,C   0,H  18)          109.6723         0.323867   
     49. A(C   0,C   1,C   3)          119.5837         0.365305   
     50. A(C   2,C   1,C   3)          123.3995         0.406603   
     51. A(C   0,C   1,C   2)          117.0168         0.414215   
     52. A(C   1,C   2,H  20)          123.3069         0.367069   
     53. A(H  19,C   2,H  20)          116.2870         0.293950   
     54. A(C   1,C   2,H  19)          120.4012         0.364526   
     55. A(C   4,C   3,C   8)          113.0702         0.348109   
     56. A(C   8,C   3,H  21)          105.0861         0.311155   
     57. A(C   1,C   3,H  21)          104.2938         0.318032   
     58. A(C   4,C   3,H  21)          103.6999         0.315735   
     59. A(C   1,C   3,C   4)          112.5474         0.356130   
     60. A(C   1,C   3,C   8)          116.5273         0.350735   
     61. A(C   5,C   4,H  23)          110.2928         0.316200   
     62. A(H  22,C   4,H  23)          106.7762         0.284324   
     63. A(C   3,C   4,C   5)          114.8050         0.353397   
     64. A(C   3,C   4,H  23)          108.3248         0.316246   
     65. A(C   5,C   4,H  22)          108.8083         0.316256   
     66. A(C   3,C   4,H  22)          107.5046         0.316301   
     67. A(C  12,C   5,H  24)          105.2181         0.312280   
     68. A(C   4,C   5,C   6)          110.2909         0.354668   
     69. A(C   6,C   5,H  24)          106.5560         0.317968   
     70. A(C   4,C   5,H  24)          107.9443         0.316827   
     71. A(C   6,C   5,C  12)          112.8225         0.349365   
     72. A(C   4,C   5,C  12)          113.5226         0.348067   
     73. A(H  25,C   6,H  26)          107.7423         0.284290   
     74. A(C   5,C   6,C   7)          111.9629         0.358569   
     75. A(C   5,C   6,H  26)          110.0249         0.317259   
     76. A(C   7,C   6,H  25)          109.0243         0.319633   
     77. A(C   5,C   6,H  25)          110.7267         0.317434   
     78. A(C   7,C   6,H  26)          107.2074         0.319457   
     79. A(C   6,C   7,H  28)          109.5013         0.320149   
     80. A(C   8,C   7,H  28)          111.0800         0.316853   
     81. A(C   8,C   7,H  27)          110.3437         0.316034   
     82. A(C   6,C   7,H  27)          108.2720         0.319319   
     83. A(C   6,C   7,C   8)          112.4714         0.357283   
     84. A(H  27,C   7,H  28)          104.8600         0.284609   
     85. A(C   7,C   8,C  10)          109.3792         0.357148   
     86. A(C   3,C   8,C  10)          108.8402         0.351728   
     87. A(C   7,C   8,C   9)          109.4528         0.354284   
     88. A(C   3,C   8,C   9)          110.3035         0.348922   
     89. A(C   3,C   8,C   7)          110.7273         0.348113   
     90. A(C   9,C   8,C  10)          108.0875         0.357986   
     91. A(H  30,C   9,H  31)          108.3774         0.283978   
     92. A(H  29,C   9,H  31)          106.6570         0.284226   
     93. A(H  29,C   9,H  30)          108.5431         0.283996   
     94. A(C   8,C   9,H  30)          110.3752         0.316651   
     95. A(C   8,C   9,H  29)          111.3266         0.316940   
     96. A(C   8,C   9,H  31)          111.4204         0.316920   
     97. A(C  11,C  10,H  32)          116.7214         0.365282   
     98. A(C   8,C  10,H  32)          119.5867         0.323948   
     99. A(C   8,C  10,C  11)          123.6912         0.408723   
    100. A(H  33,C  11,H  34)          118.3109         0.292635   
    101. A(C  10,C  11,H  34)          121.8758         0.365812   
    102. A(C  10,C  11,H  33)          119.8133         0.365582   
    103. A(C  14,C  12,O  15)          109.7885         0.376741   
    104. A(C  13,C  12,O  15)          106.1214         0.378976   
    105. A(C   5,C  12,O  15)          109.1201         0.370751   
    106. A(C  13,C  12,C  14)          107.9247         0.355863   
    107. A(C   5,C  12,C  14)          113.3873         0.348294   
    108. A(C   5,C  12,C  13)          110.2420         0.350308   
    109. A(H  36,C  13,H  37)          107.4222         0.283998   
    110. A(H  35,C  13,H  37)          108.8963         0.284077   
    111. A(C  12,C  13,H  37)          111.8364         0.318166   
    112. A(H  35,C  13,H  36)          107.7877         0.283798   
    113. A(C  12,C  13,H  36)          110.0429         0.317839   
    114. A(C  12,C  13,H  35)          110.7146         0.317931   
    115. A(H  39,C  14,H  40)          107.3746         0.284303   
    116. A(H  38,C  14,H  40)          107.3741         0.284085   
    117. A(C  12,C  14,H  40)          109.7174         0.316130   
    118. A(H  38,C  14,H  39)          108.8207         0.284575   
    119. A(C  12,C  14,H  39)          111.6627         0.316700   
    120. A(C  12,C  14,H  38)          111.7058         0.316446   
    121. A(C  12,O  15,H  41)          109.0046         0.351564   
    122. D(C   3,C   1,C   0,H  16)      0.3212         0.011866   
    123. D(C   3,C   1,C   0,H  17)   -119.9112         0.011866   
    124. D(C   2,C   1,C   0,H  17)     60.0837         0.011866   
    125. D(C   2,C   1,C   0,H  18)    -59.6337         0.011866   
    126. D(C   2,C   1,C   0,H  16)   -179.6839         0.011866   
    127. D(H  20,C   2,C   1,C   3)     -0.9680         0.038944   
    128. D(H  19,C   2,C   1,C   3)    179.8662         0.038944   
    129. D(H  20,C   2,C   1,C   0)    179.0374         0.038944   
    130. D(H  19,C   2,C   1,C   0)     -0.1285         0.038944   
    131. D(C   8,C   3,C   1,C   2)     65.6720         0.009752   
    132. D(C   8,C   3,C   1,C   0)   -114.3335         0.009752   
    133. D(C   4,C   3,C   1,C   2)    -67.2863         0.009752   
    134. D(H  21,C   3,C   1,C   0)      0.9672         0.009752   
    135. D(C   4,C   3,C   1,C   0)    112.7083         0.009752   
    136. D(C   5,C   4,C   3,C   1)     86.8596         0.009584   
    137. D(H  22,C   4,C   3,H  21)    -39.8214         0.009584   
    138. D(H  22,C   4,C   3,C   1)   -151.9302         0.009584   
    139. D(C   5,C   4,C   3,H  21)   -161.0316         0.009584   
    140. D(C   5,C   4,C   3,C   8)    -47.7652         0.009584   
    141. D(H  22,C   4,C   3,C   8)     73.4450         0.009584   
    142. D(C  12,C   5,C   4,H  23)    -59.1677         0.009568   
    143. D(C  12,C   5,C   4,H  22)     57.6422         0.009568   
    144. D(C  12,C   5,C   4,C   3)    178.1367         0.009568   
    145. D(C   6,C   5,C   4,H  23)    173.1013         0.009568   
    146. D(C   6,C   5,C   4,H  22)    -70.0888         0.009568   
    147. D(C   6,C   5,C   4,C   3)     50.4057         0.009568   
    148. D(H  25,C   6,C   5,C   4)     66.7364         0.009964   
    149. D(C   7,C   6,C   5,H  24)     61.7494         0.009964   
    150. D(C   7,C   6,C   5,C  12)    176.7235         0.009964   
    151. D(H  25,C   6,C   5,C  12)    -61.3793         0.009964   
    152. D(C   7,C   6,C   5,C   4)    -55.1609         0.009964   
    153. D(H  25,C   6,C   5,H  24)   -176.3533         0.009964   
    154. D(H  27,C   7,C   6,H  26)    -58.3521         0.010780   
    155. D(H  27,C   7,C   6,H  25)     58.0220         0.010780   
    156. D(H  27,C   7,C   6,C   5)   -179.1103         0.010780   
    157. D(C   8,C   7,C   6,H  26)    179.4555         0.010780   
    158. D(C   8,C   7,C   6,H  25)    -64.1705         0.010780   
    159. D(C   8,C   7,C   6,C   5)     58.6973         0.010780   
    160. D(C   9,C   8,C   7,H  28)    -52.5127         0.009585   
    161. D(C   9,C   8,C   7,H  27)     63.3399         0.009585   
    162. D(C   9,C   8,C   7,C   6)   -175.6474         0.009585   
    163. D(C   3,C   8,C   7,H  27)   -174.8491         0.009585   
    164. D(C   3,C   8,C   7,C   6)    -53.8364         0.009585   
    165. D(C   9,C   8,C   3,H  21)    -78.2880         0.008152   
    166. D(C   9,C   8,C   3,C   4)    169.2900         0.008152   
    167. D(C   3,C   8,C   7,H  28)     69.2983         0.009585   
    168. D(C   9,C   8,C   3,C   1)     36.5689         0.008152   
    169. D(C   7,C   8,C   3,H  21)    160.4018         0.008152   
    170. D(C   7,C   8,C   3,C   4)     47.9798         0.008152   
    171. D(C   7,C   8,C   3,C   1)    -84.7414         0.008152   
    172. D(H  30,C   9,C   8,C  10)    -62.3618         0.009830   
    173. D(H  30,C   9,C   8,C   7)    178.5892         0.009830   
    174. D(H  30,C   9,C   8,C   3)     56.5238         0.009830   
    175. D(H  29,C   9,C   8,C  10)    177.0287         0.009830   
    176. D(H  29,C   9,C   8,C   7)     57.9797         0.009830   
    177. D(H  29,C   9,C   8,C   3)    -64.0857         0.009830   
    178. D(H  32,C  10,C   8,C   7)   -120.6028         0.010058   
    179. D(H  32,C  10,C   8,C   3)      0.4907         0.010058   
    180. D(C  11,C  10,C   8,C   9)    -60.0272         0.010058   
    181. D(C  11,C  10,C   8,C   7)     59.0684         0.010058   
    182. D(C  11,C  10,C   8,C   3)   -179.8380         0.010058   
    183. D(H  33,C  11,C  10,H  32)     -0.1056         0.040040   
    184. D(H  33,C  11,C  10,C   8)   -179.7856         0.040040   
    185. D(H  34,C  11,C  10,H  32)    179.8746         0.040040   
    186. D(H  34,C  11,C  10,C   8)      0.1946         0.040040   
    187. D(C  14,C  12,C   5,H  24)   -175.9985         0.008155   
    188. D(C  14,C  12,C   5,C   6)     68.2247         0.008155   
    189. D(C  14,C  12,C   5,C   4)    -58.1823         0.008155   
    190. D(C  13,C  12,C   5,H  24)    -54.8760         0.008155   
    191. D(C  13,C  12,C   5,C   6)   -170.6528         0.008155   
    192. D(C  13,C  12,C   5,C   4)     62.9402         0.008155   
    193. D(H  36,C  13,C  12,O  15)     52.4299         0.010263   
    194. D(H  36,C  13,C  12,C  14)    -65.2079         0.010263   
    195. D(H  36,C  13,C  12,C   5)    170.4634         0.010263   
    196. D(H  35,C  13,C  12,O  15)    -66.6232         0.010263   
    197. D(H  35,C  13,C  12,C  14)    175.7390         0.010263   
    198. D(H  35,C  13,C  12,C   5)     51.4103         0.010263   
    199. D(H  39,C  14,C  12,O  15)     67.2007         0.009636   
    200. D(H  39,C  14,C  12,C  13)   -177.5513         0.009636   
    201. D(H  39,C  14,C  12,C   5)    -55.1342         0.009636   
    202. D(H  38,C  14,C  12,O  15)   -170.6772         0.009636   
    203. D(H  38,C  14,C  12,C  13)    -55.4292         0.009636   
    204. D(H  38,C  14,C  12,C   5)     66.9879         0.009636   
    205. D(H  41,O  15,C  12,C  14)    -41.9016         0.021196   
    206. D(H  41,O  15,C  12,C  13)   -158.2908         0.021196   
    207. D(H  41,O  15,C  12,C   5)     82.9336         0.021196   
    -----------------------------------------------------------------

Number of atoms                         .... 42
Number of degrees of freedom            .... 207


         *************************************************************
         *                GEOMETRY OPTIMIZATION CYCLE   1            *
         *************************************************************
---------------------------------
CARTESIAN COORDINATES (ANGSTROEM)
---------------------------------
  C      2.314160    2.692855    1.264842
  C      1.767982    1.633394    0.335413
  C      2.225551    1.635108   -0.928257
  C      0.734609    0.620000    0.861437
  C     -0.663247    0.804169    0.212509
  C     -0.865155    0.044170   -1.125928
  C     -0.451311   -1.437472   -0.968997
  C      0.986446   -1.580132   -0.451164
  C      1.193945   -0.887032    0.921982
  C      2.686044   -0.978120    1.325322
  C      0.365981   -1.615199    1.990517
  C      0.515715   -2.913087    2.290593
  C     -2.309526    0.214498   -1.734555
  C     -2.570930    1.693870   -2.082192
  C     -3.438827   -0.258886   -0.782137
  O     -2.384130   -0.493585   -2.953273
  H      1.891638    2.619675    2.287797
  H      2.073703    3.701311    0.866113
  H      3.417239    2.588436    1.343779
  H      2.953860    2.374911   -1.248205
  H      1.917324    0.919012   -1.668812
  H      0.574072    0.916613    1.921674
  H     -1.419585    0.449585    0.942855
  H     -0.841005    1.890287    0.069044
  H     -0.180433    0.485165   -1.875040
  H     -1.138935   -1.966032   -0.277249
  H     -0.498962   -1.951683   -1.951886
  H      1.224204   -2.662886   -0.377149
  H      1.692155   -1.185598   -1.206862
  H      3.340477   -0.512607    0.559116
  H      2.856708   -0.463677    2.295716
  H      3.015067   -2.033527    1.426093
  H     -0.393486   -1.070208    2.544257
  H     -0.106752   -3.365192    3.055926
  H      1.247045   -3.536190    1.788263
  H     -1.745534    2.103460   -2.703101
  H     -3.512907    1.787590   -2.664892
  H     -2.679916    2.318904   -1.171546
  H     -3.515402    0.387298    0.116678
  H     -3.286917   -1.307397   -0.456795
  H     -4.416699   -0.212994   -1.308121
  H     -2.574269   -1.448806   -2.761054

----------------------------
CARTESIAN COORDINATES (A.U.)
----------------------------
  NO LB      ZA    FRAG     MASS         X           Y           Z
   0 C     4.0000*   0    12.011    4.373129    5.088758    2.390205
   1 C     4.0000*   0    12.011    3.341002    3.086667    0.633839
   2 C     4.0000*   0    12.011    4.205682    3.089906   -1.754152
   3 C     4.0000*   0    12.011    1.388210    1.171630    1.627880
   4 C     4.0000*   0    12.011   -1.253355    1.519659    0.401584
   5 C     4.0000*   0    12.011   -1.634906    0.083469   -2.127696
   6 C     4.0000*   0    12.011   -0.852854   -2.716428   -1.831139
   7 C     4.0000*   0    12.011    1.864113   -2.986017   -0.852576
   8 C     4.0000*   0    12.011    2.256229   -1.676248    1.742293
   9 C     4.0000*   0    12.011    5.075888   -1.848379    2.504496
  10 C     4.0000*   0    12.011    0.691604   -3.052284    3.761532
  11 C     4.0000*   0    12.011    0.974560   -5.504937    4.328593
  12 C     4.0000*   0    12.011   -4.364372    0.405342   -3.277834
  13 C     4.0000*   0    12.011   -4.858354    3.200950   -3.934773
  14 C     4.0000*   0    12.011   -6.498441   -0.489224   -1.478025
  15 O     6.0000*   0    15.999   -4.505353   -0.932740   -5.580877
  16 H     1.0000    0     1.008    3.574678    4.950468    4.323310
  17 H     1.0000    0     1.008    3.918731    6.994464    1.636716
  18 H     1.0000    0     1.008    6.457646    4.891435    2.539374
  19 H     1.0000    0     1.008    5.581986    4.487931   -2.358766
  20 H     1.0000    0     1.008    3.623217    1.736681   -3.153598
  21 H     1.0000    0     1.008    1.084839    1.732148    3.631438
  22 H     1.0000    0     1.008   -2.682627    0.849593    1.781738
  23 H     1.0000    0     1.008   -1.589269    3.572125    0.130474
  24 H     1.0000    0     1.008   -0.340969    0.916829   -3.543312
  25 H     1.0000    0     1.008   -2.152275   -3.715262   -0.523925
  26 H     1.0000    0     1.008   -0.942902   -3.688146   -3.688530
  27 H     1.0000    0     1.008    2.313410   -5.032125   -0.712708
  28 H     1.0000    0     1.008    3.197710   -2.240456   -2.280639
  29 H     1.0000    0     1.008    6.312587   -0.968687    1.056576
  30 H     1.0000    0     1.008    5.398396   -0.876223    4.338275
  31 H     1.0000    0     1.008    5.697651   -3.842809    2.694925
  32 H     1.0000    0     1.008   -0.743581   -2.022400    4.807949
  33 H     1.0000    0     1.008   -0.201732   -6.359291    5.774863
  34 H     1.0000    0     1.008    2.356574   -6.682431    3.379327
  35 H     1.0000    0     1.008   -3.298581    3.974963   -5.108121
  36 H     1.0000    0     1.008   -6.638432    3.378056   -5.035916
  37 H     1.0000    0     1.008   -5.064307    4.382093   -2.213901
  38 H     1.0000    0     1.008   -6.643147    0.731887    0.220489
  39 H     1.0000    0     1.008   -6.211373   -2.470622   -0.863217
  40 H     1.0000    0     1.008   -8.346352   -0.402500   -2.471990
  41 H     1.0000    0     1.008   -4.864663   -2.737847   -5.217636
* core charge reduced due to ECP

--------------------------------
INTERNAL COORDINATES (ANGSTROEM)
--------------------------------
 C      0   0   0     0.000000000000     0.00000000     0.00000000
 C      1   0   0     1.511491410576     0.00000000     0.00000000
 C      2   1   0     1.343962126124   117.01681072     0.00000000
 C      2   1   3     1.539976754676   119.58373808   180.00511846
 C      4   2   1     1.552104109421   112.54742777   112.70825865
 C      5   4   2     1.552346264026   114.80498221    86.85959437
 C      6   5   4     1.546336706950   110.29094226    50.40570956
 C      7   6   5     1.534812067498   111.96289643   304.83908702
 C      8   7   6     1.552086783114   112.47141944    58.69730204
 C      9   8   7     1.548334461654   109.45278272   184.35260547
 C      9   8   7     1.535421313975   109.37922085    66.10547898
 C     11   9   8     1.340514504612   123.69115017    59.06844300
 C      6   5   4     1.576593174650   113.52256838   178.13668986
 C     13   6   5     1.541987370042   110.24204950    62.94016418
 C     13   6   5     1.551294042656   113.38732667   301.81767491
 O     13   6   5     1.411460539735   109.12006876   179.11245338
 H      1   2   3     1.109196594346   112.53240597   180.31605200
 H      1   2   3     1.110760049797   109.71981149    60.08368631
 H      1   2   3     1.110818463013   109.67229290   300.36626040
 H      3   2   1     1.086328311789   120.40123209   359.87151552
 H      3   2   1     1.075276277414   123.30687653   179.03735591
 H      4   2   1     1.112588826255   104.29380268     0.96722406
 H      5   4   2     1.109586527954   107.50462545   208.06981975
 H      5   4   2     1.109879463146   108.32484588   323.11113746
 H      6   5   4     1.106566579946   107.94428414   294.36090459
 H      7   6   5     1.109377183144   110.72673104    66.73635352
 H      7   6   5     1.110294716120   110.02486133   185.72930307
 H      8   7   6     1.111019041828   108.27203262   180.88974331
 H      8   7   6     1.106689539591   109.50133618   294.68325897
 H     10   9   8     1.109980422843   111.32660588    57.97969800
 H     10   9   8     1.111504528277   110.37517073   178.58919875
 H     10   9   8     1.110087773385   111.42038243   299.05174388
 H     11   9   8     1.086477474120   119.58670057   239.39717966
 H     12  11   9     1.085172197397   119.81328424   180.21443603
 H     12  11   9     1.084175422341   121.87577827     0.19463608
 H     14  13   6     1.111112285594   110.71462896    51.41025697
 H     14  13   6     1.111594978816   110.04292286   170.46336183
 H     14  13   6     1.109874581504   111.83639877   289.77339913
 H     15  13   6     1.109633226209   111.70575423    66.98789118
 H     15  13   6     1.108286687723   111.66270748   304.86580495
 H     15  13   6     1.111305040169   109.71735562   185.94005282
 H     16  13   6     0.992747773668   109.00458906    82.93364845

---------------------------
INTERNAL COORDINATES (A.U.)
---------------------------
 C      0   0   0     0.000000000000     0.00000000     0.00000000
 C      1   0   0     2.856304819764     0.00000000     0.00000000
 C      2   1   0     2.539720352738   117.01681072     0.00000000
 C      2   1   3     2.910134318942   119.58373808   180.00511846
 C      4   2   1     2.933051698139   112.54742777   112.70825865
 C      5   4   2     2.933509304024   114.80498221    86.85959437
 C      6   5   4     2.922152886965   110.29094226    50.40570956
 C      7   6   5     2.900374474609   111.96289643   304.83908702
 C      8   7   6     2.933018956164   112.47141944    58.69730204
 C      9   8   7     2.925928096238   109.45278272   184.35260547
 C      9   8   7     2.901525783599   109.37922085    66.10547898
 C     11   9   8     2.533205292266   123.69115017    59.06844300
 C      6   5   4     2.979329324699   113.52256838   178.13668986
 C     13   6   5     2.913933831345   110.24204950    62.94016418
 C     13   6   5     2.931520893804   113.38732667   301.81767491
 O     13   6   5     2.667273868936   109.12006876   179.11245338
 H      1   2   3     2.096077791992   112.53240597   180.31605200
 H      1   2   3     2.099032294618   109.71981149    60.08368631
 H      1   2   3     2.099142679598   109.67229290   300.36626040
 H      3   2   1     2.052863000806   120.40123209   359.87151552
 H      3   2   1     2.031977682615   123.30687653   179.03735591
 H      4   2   1     2.102488181282   104.29380268     0.96722406
 H      5   4   2     2.096814659721   107.50462545   208.06981975
 H      5   4   2     2.097368227009   108.32484588   323.11113746
 H      6   5   4     2.091107785047   107.94428414   294.36090459
 H      7   6   5     2.096419055363   110.72673104    66.73635352
 H      7   6   5     2.098152941406   110.02486133   185.72930307
 H      8   7   6     2.099521718627   108.27203262   180.88974331
 H      8   7   6     2.091340145103   109.50133618   294.68325897
 H     10   9   8     2.097559013187   111.32660588    57.97969800
 H     10   9   8     2.100439155057   110.37517073   178.58919875
 H     10   9   8     2.097761876312   111.42038243   299.05174388
 H     11   9   8     2.053144876761   119.58670057   239.39717966
 H     12  11   9     2.050678261225   119.81328424   180.21443603
 H     12  11   9     2.048794629354   121.87577827     0.19463608
 H     14  13   6     2.099697923807   110.71462896    51.41025697
 H     14  13   6     2.100610081804   110.04292286   170.46336183
 H     14  13   6     2.097359002042   111.83639877   289.77339913
 H     15  13   6     2.096902906634   111.70575423    66.98789118
 H     15  13   6     2.094358317668   111.66270748   304.86580495
 H     15  13   6     2.100062177165   109.71735562   185.94005282
 H     16  13   6     1.876021412293   109.00458906    82.93364845

---------------------
BASIS SET INFORMATION
---------------------
There are 3 groups of distinct atoms

 Group   1 Type C   : 6s6p2d contracted to 2s2p1d pattern {42/42/2}
 Group   2 Type O   : 6s6p2d contracted to 2s2p1d pattern {42/42/2}
 Group   3 Type H   : 8s2p contracted to 2s1p pattern {53/2}

Atom   0C    basis set group =>   1
Atom   1C    basis set group =>   1
Atom   2C    basis set group =>   1
Atom   3C    basis set group =>   1
Atom   4C    basis set group =>   1
Atom   5C    basis set group =>   1
Atom   6C    basis set group =>   1
Atom   7C    basis set group =>   1
Atom   8C    basis set group =>   1
Atom   9C    basis set group =>   1
Atom  10C    basis set group =>   1
Atom  11C    basis set group =>   1
Atom  12C    basis set group =>   1
Atom  13C    basis set group =>   1
Atom  14C    basis set group =>   1
Atom  15O    basis set group =>   2
Atom  16H    basis set group =>   3
Atom  17H    basis set group =>   3
Atom  18H    basis set group =>   3
Atom  19H    basis set group =>   3
Atom  20H    basis set group =>   3
Atom  21H    basis set group =>   3
Atom  22H    basis set group =>   3
Atom  23H    basis set group =>   3
Atom  24H    basis set group =>   3
Atom  25H    basis set group =>   3
Atom  26H    basis set group =>   3
Atom  27H    basis set group =>   3
Atom  28H    basis set group =>   3
Atom  29H    basis set group =>   3
Atom  30H    basis set group =>   3
Atom  31H    basis set group =>   3
Atom  32H    basis set group =>   3
Atom  33H    basis set group =>   3
Atom  34H    basis set group =>   3
Atom  35H    basis set group =>   3
Atom  36H    basis set group =>   3
Atom  37H    basis set group =>   3
Atom  38H    basis set group =>   3
Atom  39H    basis set group =>   3
Atom  40H    basis set group =>   3
Atom  41H    basis set group =>   3
---------------------------------
AUXILIARY/J BASIS SET INFORMATION
---------------------------------
There are 3 groups of distinct atoms

 Group   1 Type C   : 12s5p4d2f1g contracted to 6s4p3d1f1g pattern {711111/2111/211/2/1}
 Group   2 Type O   : 12s5p4d2f1g contracted to 6s4p3d1f1g pattern {711111/2111/211/2/1}
 Group   3 Type H   : 5s2p1d contracted to 3s1p1d pattern {311/2/1}

Atom   0C    basis set group =>   1
Atom   1C    basis set group =>   1
Atom   2C    basis set group =>   1
Atom   3C    basis set group =>   1
Atom   4C    basis set group =>   1
Atom   5C    basis set group =>   1
Atom   6C    basis set group =>   1
Atom   7C    basis set group =>   1
Atom   8C    basis set group =>   1
Atom   9C    basis set group =>   1
Atom  10C    basis set group =>   1
Atom  11C    basis set group =>   1
Atom  12C    basis set group =>   1
Atom  13C    basis set group =>   1
Atom  14C    basis set group =>   1
Atom  15O    basis set group =>   2
Atom  16H    basis set group =>   3
Atom  17H    basis set group =>   3
Atom  18H    basis set group =>   3
Atom  19H    basis set group =>   3
Atom  20H    basis set group =>   3
Atom  21H    basis set group =>   3
Atom  22H    basis set group =>   3
Atom  23H    basis set group =>   3
Atom  24H    basis set group =>   3
Atom  25H    basis set group =>   3
Atom  26H    basis set group =>   3
Atom  27H    basis set group =>   3
Atom  28H    basis set group =>   3
Atom  29H    basis set group =>   3
Atom  30H    basis set group =>   3
Atom  31H    basis set group =>   3
Atom  32H    basis set group =>   3
Atom  33H    basis set group =>   3
Atom  34H    basis set group =>   3
Atom  35H    basis set group =>   3
Atom  36H    basis set group =>   3
Atom  37H    basis set group =>   3
Atom  38H    basis set group =>   3
Atom  39H    basis set group =>   3
Atom  40H    basis set group =>   3
Atom  41H    basis set group =>   3
-------------------------
ECP PARAMETER INFORMATION
-------------------------

 Group 1, Type C  ECP vDZP-ECP (replacing 2 core electrons, lmax=3)
 Group 2, Type O  ECP vDZP-ECP (replacing 2 core electrons, lmax=3)

Atom   0C    ECP group =>   1
Atom   1C    ECP group =>   1
Atom   2C    ECP group =>   1
Atom   3C    ECP group =>   1
Atom   4C    ECP group =>   1
Atom   5C    ECP group =>   1
Atom   6C    ECP group =>   1
Atom   7C    ECP group =>   1
Atom   8C    ECP group =>   1
Atom   9C    ECP group =>   1
Atom  10C    ECP group =>   1
Atom  11C    ECP group =>   1
Atom  12C    ECP group =>   1
Atom  13C    ECP group =>   1
Atom  14C    ECP group =>   1
Atom  15O    ECP group =>   2



           ************************************************************
           *        Program running with 40 parallel MPI-processes    *
           *              working on a common directory               *
           ************************************************************
------------------------------------------------------------------------------
                             ORCA STARTUP CALCULATIONS
                           -- RI-GTO INTEGRALS CHOSEN --
------------------------------------------------------------------------------
------------------------------------------------------------------------------
                   ___                                                        
                  /   \      - P O W E R E D   B Y -                         
                 /     \                                                     
                 |  |  |   _    _      __       _____    __    __             
                 |  |  |  | |  | |    /  \     |  _  \  |  |  /  |          
                  \  \/   | |  | |   /    \    | | | |  |  | /  /          
                 / \  \   | |__| |  /  /\  \   | |_| |  |  |/  /          
                |  |  |   |  __  | /  /__\  \  |    /   |      \           
                |  |  |   | |  | | |   __   |  |    \   |  |\   \          
                \     /   | |  | | |  |  |  |  | |\  \  |  | \   \       
                 \___/    |_|  |_| |__|  |__|  |_| \__\ |__|  \__/        
                                                                              
                      - O R C A' S   B I G   F R I E N D -                    
                                      &                                       
                       - I N T E G R A L  F E E D E R -                       
                                                                              
 v1 FN, 2020, v2 2021, v3 2022-2024                                           
------------------------------------------------------------------------------


----------------------
SHARK INTEGRAL PACKAGE
----------------------

Number of atoms                             ...     42
Number of basis functions                   ...    338
Number of shells                            ...    158
Maximum angular momentum                    ...      2
Integral batch strategy                     ... SHARK/LIBINT Hybrid
RI-J (if used) integral strategy            ... SPLIT-RIJ (Revised 2003 algorithm where possible)
Printlevel                                  ...      1
Contraction scheme used                     ... SEGMENTED contraction
Prescreening option                         ... SCHWARTZ
   Thresh                                   ... 2.500e-11
   Tcut                                     ... 2.500e-12
   Tpresel                                  ... 2.500e-12 
Coulomb Range Separation                    ... NOT USED
Exchange Range Separation                   ... Long Range
   Mu parameter                             ... 3.000e-01
   Scaling (regular/separated)              ... 1.670e-01 8.330e-01
Multipole approximations                    ... NOT USED
Finite Nucleus Model                        ... NOT USED
CABS basis                                  ... NOT available
Auxiliary Coulomb fitting basis             ... AVAILABLE
   # of basis functions in Aux-J            ...   1070
   # of shells in Aux-J                     ...    370
   Maximum angular momentum in Aux-J        ...      4
Auxiliary J/K fitting basis                 ... NOT available
Auxiliary Correlation fitting basis         ... NOT available
Auxiliary 'external' fitting basis          ... NOT available

Checking pre-screening integrals            ... done (  0.0 sec) Dimension = 158
Check shell pair data                       ... done (  0.0 sec)
Shell pair information
Shell pair cut-off parameter TPreSel        ...   2.5e-12
Total number of shell pairs                 ...     12561
Shell pairs after pre-screening             ...     12426
Total number of primitive shell pairs       ...    117974
Primitive shell pairs kept                  ...     88715
          la=0 lb=0:   3557 shell pairs
          la=1 lb=0:   4812 shell pairs
          la=1 lb=1:   1662 shell pairs
          la=2 lb=0:   1340 shell pairs
          la=2 lb=1:    919 shell pairs
          la=2 lb=2:    136 shell pairs

Calculating one electron integrals          ... done (  0.0 sec)
Calculating ECP integrals                   ... done (  0.2 sec)
Calculating RI/J V-Matrix + Cholesky decomp.... done (  0.1 sec)
Calculating Nuclear repulsion               ... done (  0.0 sec) ENN=    661.112044185430 Eh

Diagonalization of the overlap matrix:
Smallest eigenvalue                        ... 9.588e-04
Time for diagonalization                   ...    0.016 sec
Threshold for overlap eigenvalues          ... 1.000e-07
Number of eigenvalues below threshold      ... 0
Time for construction of square roots      ...    0.009 sec
Total time needed                          ...    0.029 sec

-------------------
DFT GRID GENERATION
-------------------

General Integration Accuracy     IntAcc      ... 4.388
Radial Grid Type                 RadialGrid  ... OptM3 with GC (2021)
Angular Grid (max. ang.)         AngularGrid ... 4 (Lebedev-302)
Angular grid pruning method      GridPruning ... 4 (adaptive)
Weight generation scheme         WeightScheme... mBecke (2022)
Basis function cutoff            BFCut       ... 1.0000e-11
Integration weight cutoff        WCut        ... 1.0000e-14
Partially contracted basis set               ... off
Rotationally invariant grid construction     ... off
Angular grids for H and He will be reduced by one unit

Total number of grid points                  ...   176922
Total number of batches                      ...     2788
Average number of points per batch           ...       63
Average number of grid points per atom       ...     4212

--------------------
COSX GRID GENERATION
--------------------

GRIDX 1
-------
General Integration Accuracy     IntAcc      ... 3.816
Radial Grid Type                 RadialGrid  ... OptM3 with GC (2021)
Angular Grid (max. ang.)         AngularGrid ... 1 (Lebedev-50)
Angular grid pruning method      GridPruning ... 4 (adaptive)
Weight generation scheme         WeightScheme... mBecke (2022)
Basis function cutoff            BFCut       ... 1.0000e-11
Integration weight cutoff        WCut        ... 1.0000e-14
Partially contracted basis set               ... on
Rotationally invariant grid construction     ... off
Angular grids for H and He will be reduced by one unit

Total number of grid points                  ...    22592
Total number of batches                      ...      199
Average number of points per batch           ...      113
Average number of grid points per atom       ...      538
UseSFitting                                  ... on

GRIDX 2
-------
General Integration Accuracy     IntAcc      ... 4.020
Radial Grid Type                 RadialGrid  ... OptM3 with GC (2021)
Angular Grid (max. ang.)         AngularGrid ... 2 (Lebedev-110)
Angular grid pruning method      GridPruning ... 4 (adaptive)
Weight generation scheme         WeightScheme... mBecke (2022)
Basis function cutoff            BFCut       ... 1.0000e-11
Integration weight cutoff        WCut        ... 1.0000e-14
Partially contracted basis set               ... on
Rotationally invariant grid construction     ... off
Angular grids for H and He will be reduced by one unit

Total number of grid points                  ...    46543
Total number of batches                      ...      384
Average number of points per batch           ...      121
Average number of grid points per atom       ...     1108
UseSFitting                                  ... on

GRIDX 3
-------
General Integration Accuracy     IntAcc      ... 4.338
Radial Grid Type                 RadialGrid  ... OptM3 with GC (2021)
Angular Grid (max. ang.)         AngularGrid ... 3 (Lebedev-194)
Angular grid pruning method      GridPruning ... 4 (adaptive)
Weight generation scheme         WeightScheme... mBecke (2022)
Basis function cutoff            BFCut       ... 1.0000e-11
Integration weight cutoff        WCut        ... 1.0000e-14
Partially contracted basis set               ... on
Rotationally invariant grid construction     ... off
Angular grids for H and He will be reduced by one unit

Total number of grid points                  ...   100823
Total number of batches                      ...      807
Average number of points per batch           ...      124
Average number of grid points per atom       ...     2401
UseSFitting                                  ... on
Initializing property integral containers    ... done (  0.0 sec)

SHARK setup successfully completed in   5.6 seconds

Maximum memory used throughout the entire STARTUP-calculation: 59.0 MB


           ************************************************************
           *        Program running with 40 parallel MPI-processes    *
           *              working on a common directory               *
           ************************************************************
-------------------------------------------------------------------------------
                                 ORCA GUESS
                   Start orbitals & Density for SCF / CASSCF
-------------------------------------------------------------------------------

------------
SCF SETTINGS
------------
Hamiltonian:
 Density Functional     Method          .... DFT(GTOs)
 Exchange Functional    Exchange        .... WB97X-V
 Correlation Functional Correlation     .... WB97X-V
 Gradients option       PostSCFGGA      .... off
 Hybrid DFT is turned on
   Fraction HF Exchange ScalHFX         ....  0.167000
   Scaling of DF-GGA-X  ScalDFX         ....  0.000000
   Scaling of DF-GGA-C  ScalDFC         ....  1.000000
   Scaling of DF-LDA-C  ScalLDAC        ....  1.000000
   Perturbative correction              ....  0.000000
 Long-range corrected/Screened/Range-Separated Hybrid DFT is turned on
   Amount of maximum screened exact exchange              ....  0.833000
   Range separation parameter mu (erf(mu*r12)/r12)        ....  0.300000
   NL short-range parameter             ....  6.000000
   NL long-range parameter              ....  0.010000
 RI-approximation to the Coulomb term is turned on
   Number of AuxJ basis functions       .... 1070
   RIJ-COSX (HFX calculated with COS-X)).... on


General Settings:
 Integral files         IntName         .... ./output/elemol/elemol
 Hartree-Fock type      HFTyp           .... RHF
 Total Charge           Charge          ....    0
 Multiplicity           Mult            ....    1
 Number of Electrons    NEL             ....   92
 Basis Dimension        Dim             ....  338
 Nuclear Repulsion      ENuc            ....    661.1120441854 Eh

Convergence Acceleration:
 AO-DIIS                CNVDIIS         .... on
   Start iteration      DIISMaxIt       ....    12
   Startup error        DIISStart       ....  0.200000
   # of expansion vecs  DIISMaxEq       ....     5
   Bias factor          DIISBfac        ....   1.050
   Max. coefficient     DIISMaxC        ....  10.000
 MO-DIIS                CNVKDIIS        .... off
 Trust-Rad. Augm. Hess. CNVTRAH         .... auto
   Auto Start mean grad. ratio tolernc. ....  1.125000
   Auto Start start iteration           ....    50
   Auto Start num. interpolation iter.  ....    10
   Max. Number of Micro iterations      ....    24
   Max. Number of Macro iterations      .... Maxiter - #DIIS iter
   Number of Davidson start vectors     ....     2
   Converg. threshold    (grad. norm)   ....   1.000e-05
   Grad. Scal. Fac. for Micro threshold ....   0.100
   Minimum threshold for Micro iter.    ....   1.000e-02
   NR start threshold (gradient norm)   ....   1.000e-04
   Initial trust radius                 ....   0.400
   Minimum AH scaling param. (alpha)    ....   1.000
   Maximum AH scaling param. (alpha)    .... 1000.000
   Quad. conv. algorithm                .... NR
   White noise on init. David. guess    .... on
   Maximum white noise                  ....   0.010
   Pseudo random numbers                .... off
   Inactive MOs                         .... canonical
   Orbital update algorithm             .... Taylor
   Preconditioner                       .... Diag
   Full preconditioner red. dimension   ....   250
 SOSCF                  CNVSOSCF        .... on
   Start iteration      SOSCFMaxIt      ....   150
   Startup grad/error   SOSCFStart      ....  0.003300
   Hessian update       SOSCFHessUp     .... L-BFGS
 Level Shifting         CNVShift        .... on
   Level shift para.    LevelShift      ....    0.2500
   Turn off err/grad.   ShiftErr        ....    0.0010
 Zerner damping         CNVZerner       .... off
 Static damping         CNVDamp         .... on
   Fraction old density DampFac         ....    0.7000
   Max. Damping (<1)    DampMax         ....    0.9800
   Min. Damping (>=0)   DampMin         ....    0.0000
   Turn off err/grad.   DampErr         ....    0.1000

SCF Procedure:
 Maximum # iterations   MaxIter         ....   125
 SCF integral mode      SCFMode         .... Direct
   Integral package                     .... SHARK and LIBINT hybrid scheme
 Reset frequency        DirectResetFreq ....    20
 Integral Threshold     Thresh          ....  2.500e-11 Eh
 Primitive CutOff       TCut            ....  2.500e-12 Eh

Convergence Tolerance:
 Convergence Check Mode ConvCheckMode   .... Total+1el-Energy
 Convergence forced     ConvForced      .... 0
 Energy Change          TolE            ....  1.000e-08 Eh
 1-El. energy change                    ....  1.000e-05 Eh
 Orbital Gradient       TolG            ....  1.000e-05
 Orbital Rotation angle TolX            ....  1.000e-05
 DIIS Error             TolErr          ....  5.000e-07

------------------------------
INITIAL GUESS: MODEL POTENTIAL
------------------------------
Loading Hartree-Fock densities                     ... done
Atomic calculation to generate a density for atom 0 (C  with ECP)
  Multiplicity assumed   :    1
  Atomic configuration   : 1s2 2s2 2p2 
  Number of open shells  : 1
  Command: /home/aspe232/Project/Software/ORCA/6_0_1/build/orca ./output/elemol/elemol_atom6.inp "" > ./output/elemol/elemol_atom6.out
Returned from the atomic calculation with res=0
Atomic calculation to generate a density for atom 15 (O  with ECP)
  Multiplicity assumed   :    3
  Atomic configuration   : 1s2 2s2 2p4 
  Number of open shells  : 1
  Command: /home/aspe232/Project/Software/ORCA/6_0_1/build/orca ./output/elemol/elemol_atom8.inp "" > ./output/elemol/elemol_atom8.out
Returned from the atomic calculation with res=0
Calculating cut-offs                               ... done
Initializing the effective Hamiltonian             ... done
Setting up the integral package (SHARK)            ... done
Starting the Coulomb interaction                   ... done (   0.1 sec)
Making the grid                                    ... done (   1.3 sec)
Mapping shells                                     ... done
Starting the XC term evaluation                    ... done (   0.1 sec)
  promolecular density results
     # of electrons  =    123.983295357
     EX              =    -61.322635030
     EC              =     -4.980961674
     EX+EC           =    -66.303596703
Transforming the Hamiltonian                       ... done (   0.0 sec)
Diagonalizing the Hamiltonian                      ... done (   0.0 sec)
Back transforming the eigenvectors                 ... done (   0.0 sec)
Now organizing SCF variables                       ... done
                      ------------------
                      INITIAL GUESS DONE (   2.6 sec)
                      ------------------
             **** ENERGY FILE WAS UPDATED (./output/elemol/elemol.en.tmp) ****
Finished Guess after   3.7 sec
Maximum memory used throughout the entire GUESS-calculation: 39.1 MB


           ************************************************************
           *        Program running with 40 parallel MPI-processes    *
           *              working on a common directory               *
           ************************************************************

-------------------------------------------------------------------------------------------
                                      ORCA LEAN-SCF
                              memory conserving SCF solver
-------------------------------------------------------------------------------------------

----------------------------------------D-I-I-S--------------------------------------------
Iteration    Energy (Eh)           Delta-E    RMSDP     MaxDP     DIISErr   Damp  Time(sec)
-------------------------------------------------------------------------------------------
               ***  Starting incremental Fock matrix formation  ***
    1    -116.4124882226039972     0.00e+00  3.23e-03  7.44e-02  2.29e-01  0.700   9.2
    2    -116.6982053452791206    -2.86e-01  2.35e-03  5.37e-02  1.32e-01  0.700   6.4
                               ***Turning on AO-DIIS***
    3    -116.8459438440247595    -1.48e-01  1.22e-03  2.90e-02  6.51e-02  0.700   6.4
    4    -116.9329133465749919    -8.70e-02  2.64e-03  6.26e-02  4.46e-02  0.000   6.9
    5    -117.1156728273058434    -1.83e-01  2.04e-04  5.13e-03  5.15e-03  0.000   6.7
                              *** Initializing SOSCF ***
---------------------------------------S-O-S-C-F--------------------------------------
Iteration    Energy (Eh)           Delta-E    RMSDP     MaxDP     MaxGrad    Time(sec)
--------------------------------------------------------------------------------------
    6    -117.1161522086856621    -4.79e-04  9.24e-05  3.14e-03  2.78e-03     6.6
               *** Restarting incremental Fock matrix formation ***
    7    -117.1161991944143210    -4.70e-05  5.68e-05  1.43e-03  2.95e-04     9.2
    8    -117.1162126675923218    -1.35e-05  3.29e-05  9.26e-04  2.86e-04     7.8
    9    -117.1162163828454368    -3.72e-06  1.03e-05  2.08e-04  5.81e-05     8.1
   10    -117.1162167359109390    -3.53e-07  2.23e-06  5.47e-05  2.19e-05     7.7
   11    -117.1162167400999579    -4.19e-09  7.44e-07  1.67e-05  6.08e-06     6.7
                 **** Energy Check signals convergence ****

               *****************************************************
               *                     SUCCESS                       *
               *           SCF CONVERGED AFTER  11 CYCLES          *
               *****************************************************

Recomputing exchange energy using gridx3       ... done (   11.716 sec)
Old exchange energy                            :    -17.574220833 Eh
New exchange energy                            :    -17.574238710 Eh
Exchange energy change after final integration :     -0.000017877 Eh
Total energy after final integration           :   -117.116234617 Eh
             **** ENERGY FILE WAS UPDATED (./output/elemol/elemol.en.tmp) ****

----------------
TOTAL SCF ENERGY
----------------

Total Energy       :       -117.11623461693509 Eh           -3186.89476 eV

Components:
Nuclear Repulsion  :        661.11204418543036 Eh           17989.77330 eV
Electronic Energy  :       -778.22826092553032 Eh          -21176.66758 eV
One Electron Energy:      -1488.47828748461461 Eh          -40503.55336 eV
Two Electron Energy:        710.25002655908429 Eh           19326.88578 eV

Virial components:
Potential Energy   :       -208.51924823027446 Eh           -5674.09721 eV
Kinetic Energy     :         91.40301361333935 Eh            2487.20245 eV
Virial Ratio       :          2.28131699368655

DFT components:
N(Alpha)           :       46.000261378026 electrons
N(Beta)            :       46.000261378026 electrons
N(Total)           :       92.000522756052 electrons
E(X)               :      -18.304607180054 Eh       
E(C)               :       -3.449971977972 Eh       
E(XC)              :      -21.754579158026 Eh       

---------------
SCF CONVERGENCE
---------------

  Last Energy change         ...    4.1890e-09  Tolerance :   1.0000e-08
  Last MAX-Density change    ...    1.6656e-05  Tolerance :   1.0000e-07
  Last RMS-Density change    ...    7.4405e-07  Tolerance :   5.0000e-09
  Last DIIS Error            ...    2.7805e-03  Tolerance :   5.0000e-07
  Last Orbital Gradient      ...    6.0790e-06  Tolerance :   1.0000e-05
  Last Orbital Rotation      ...    2.1124e-05  Tolerance :   1.0000e-05


----------------
ORBITAL ENERGIES
----------------

  NO   OCC          E(Eh)            E(eV) 
   0   2.0000      -1.143782       -31.1239 
   1   2.0000      -0.993659       -27.0388 
   2   2.0000      -0.936581       -25.4857 
   3   2.0000      -0.934904       -25.4400 
   4   2.0000      -0.892523       -24.2868 
   5   2.0000      -0.870732       -23.6938 
   6   2.0000      -0.863998       -23.5106 
   7   2.0000      -0.819861       -22.3096 
   8   2.0000      -0.811466       -22.0811 
   9   2.0000      -0.805419       -21.9166 
  10   2.0000      -0.749294       -20.3893 
  11   2.0000      -0.739475       -20.1222 
  12   2.0000      -0.716964       -19.5096 
  13   2.0000      -0.675603       -18.3841 
  14   2.0000      -0.651141       -17.7185 
  15   2.0000      -0.636317       -17.3151 
  16   2.0000      -0.613956       -16.7066 
  17   2.0000      -0.602114       -16.3843 
  18   2.0000      -0.578713       -15.7476 
  19   2.0000      -0.566813       -15.4238 
  20   2.0000      -0.561380       -15.2759 
  21   2.0000      -0.554398       -15.0859 
  22   2.0000      -0.541651       -14.7391 
  23   2.0000      -0.535224       -14.5642 
  24   2.0000      -0.533446       -14.5158 
  25   2.0000      -0.527872       -14.3641 
  26   2.0000      -0.515817       -14.0361 
  27   2.0000      -0.507025       -13.7969 
  28   2.0000      -0.499800       -13.6003 
  29   2.0000      -0.493748       -13.4356 
  30   2.0000      -0.488561       -13.2944 
  31   2.0000      -0.479483       -13.0474 
  32   2.0000      -0.474850       -12.9213 
  33   2.0000      -0.468688       -12.7536 
  34   2.0000      -0.461929       -12.5697 
  35   2.0000      -0.458993       -12.4898 
  36   2.0000      -0.449221       -12.2239 
  37   2.0000      -0.440829       -11.9956 
  38   2.0000      -0.437199       -11.8968 
  39   2.0000      -0.422767       -11.5041 
  40   2.0000      -0.413671       -11.2566 
  41   2.0000      -0.399006       -10.8575 
  42   2.0000      -0.392031       -10.6677 
  43   2.0000      -0.370524       -10.0825 
  44   2.0000      -0.357426        -9.7261 
  45   2.0000      -0.340681        -9.2704 
  46   0.0000       0.074552         2.0287 
  47   0.0000       0.079675         2.1681 
  48   0.0000       0.082670         2.2496 
  49   0.0000       0.090051         2.4504 
  50   0.0000       0.094106         2.5608 
  51   0.0000       0.100121         2.7244 
  52   0.0000       0.115746         3.1496 
  53   0.0000       0.117159         3.1880 
  54   0.0000       0.119639         3.2555 
  55   0.0000       0.124681         3.3927 
  56   0.0000       0.134514         3.6603 
*Only the first 10 virtual orbitals were printed.

                    ********************************
                    * MULLIKEN POPULATION ANALYSIS *
                    ********************************

-----------------------
MULLIKEN ATOMIC CHARGES
-----------------------
   0 C :   -0.080769
   1 C :   -0.085286
   2 C :   -0.007594
   3 C :   -0.085916
   4 C :   -0.007377
   5 C :   -0.048591
   6 C :   -0.042495
   7 C :    0.000383
   8 C :   -0.199399
   9 C :   -0.012944
  10 C :    0.010758
  11 C :   -0.044029
  12 C :   -0.040025
  13 C :   -0.039815
  14 C :   -0.054868
  15 O :   -0.306740
  16 H :    0.034245
  17 H :    0.055476
  18 H :    0.054224
  19 H :    0.019059
  20 H :    0.010957
  21 H :    0.033554
  22 H :    0.022878
  23 H :    0.056118
  24 H :    0.038890
  25 H :    0.029313
  26 H :    0.044196
  27 H :    0.035843
  28 H :    0.025686
  29 H :    0.041323
  30 H :    0.038423
  31 H :    0.032561
  32 H :    0.008760
  33 H :    0.031010
  34 H :    0.018476
  35 H :    0.044368
  36 H :    0.044141
  37 H :    0.032201
  38 H :    0.042265
  39 H :    0.029950
  40 H :    0.047423
  41 H :    0.173365
Sum of atomic charges:   -0.0000000

--------------------------------
MULLIKEN REDUCED ORBITAL CHARGES
--------------------------------
  0 C s       :     0.957385  s :     0.957385
      pz      :     1.012590  p :     3.050556
      px      :     1.033563
      py      :     1.004402
      dz2     :     0.019707  d :     0.072828
      dxz     :     0.011557
      dyz     :     0.013305
      dx2y2   :     0.020925
      dxy     :     0.007333

  1 C s       :     1.093029  s :     1.093029
      pz      :     1.002572  p :     2.874073
      px      :     0.951852
      py      :     0.919649
      dz2     :     0.028151  d :     0.118184
      dxz     :     0.027260
      dyz     :     0.031330
      dx2y2   :     0.016270
      dxy     :     0.015172

  2 C s       :     0.969423  s :     0.969423
      pz      :     0.976902  p :     2.973942
      px      :     1.001113
      py      :     0.995927
      dz2     :     0.014201  d :     0.064229
      dxz     :     0.014796
      dyz     :     0.023610
      dx2y2   :     0.003141
      dxy     :     0.008481

  3 C s       :     1.019530  s :     1.019530
      pz      :     1.046204  p :     2.948642
      px      :     0.960792
      py      :     0.941645
      dz2     :     0.026263  d :     0.117744
      dxz     :     0.017678
      dyz     :     0.018282
      dx2y2   :     0.027828
      dxy     :     0.027692

  4 C s       :     0.981921  s :     0.981921
      pz      :     0.960109  p :     2.928911
      px      :     0.950240
      py      :     1.018562
      dz2     :     0.020325  d :     0.096544
      dxz     :     0.027541
      dyz     :     0.013437
      dx2y2   :     0.022974
      dxy     :     0.012267

  5 C s       :     1.032765  s :     1.032765
      pz      :     0.977905  p :     2.901399
      px      :     0.976613
      py      :     0.946882
      dz2     :     0.018981  d :     0.114427
      dxz     :     0.025304
      dyz     :     0.024999
      dx2y2   :     0.024989
      dxy     :     0.020153

  6 C s       :     0.988375  s :     0.988375
      pz      :     1.032816  p :     2.956621
      px      :     0.970615
      py      :     0.953191
      dz2     :     0.014411  d :     0.097499
      dxz     :     0.017752
      dyz     :     0.022595
      dx2y2   :     0.020730
      dxy     :     0.022011

  7 C s       :     0.980021  s :     0.980021
      pz      :     0.944691  p :     2.920865
      px      :     0.954470
      py      :     1.021704
      dz2     :     0.020396  d :     0.098731
      dxz     :     0.027440
      dyz     :     0.013697
      dx2y2   :     0.022998
      dxy     :     0.014200

  8 C s       :     1.073808  s :     1.073808
      pz      :     0.984104  p :     2.984895
      px      :     1.026267
      py      :     0.974524
      dz2     :     0.028797  d :     0.140696
      dxz     :     0.028505
      dyz     :     0.027953
      dx2y2   :     0.030339
      dxy     :     0.025103

  9 C s       :     0.945332  s :     0.945332
      pz      :     1.031082  p :     2.993849
      px      :     0.934201
      py      :     1.028567
      dz2     :     0.013562  d :     0.073763
      dxz     :     0.017319
      dyz     :     0.011279
      dx2y2   :     0.017282
      dxy     :     0.014320

 10 C s       :     1.038134  s :     1.038134
      pz      :     0.942352  p :     2.858416
      px      :     0.947414
      py      :     0.968650
      dz2     :     0.013398  d :     0.092691
      dxz     :     0.010793
      dyz     :     0.025887
      dx2y2   :     0.016358
      dxy     :     0.026255

 11 C s       :     1.008400  s :     1.008400
      pz      :     0.987242  p :     2.970707
      px      :     0.992440
      py      :     0.991025
      dz2     :     0.005406  d :     0.064923
      dxz     :     0.007428
      dyz     :     0.020374
      dx2y2   :     0.009140
      dxy     :     0.022575

 12 C s       :     1.106540  s :     1.106540
      pz      :     0.785478  p :     2.742091
      px      :     0.983330
      py      :     0.973283
      dz2     :     0.037931  d :     0.191395
      dxz     :     0.049192
      dyz     :     0.037438
      dx2y2   :     0.038797
      dxy     :     0.028038

 13 C s       :     0.952765  s :     0.952765
      pz      :     1.030007  p :     3.017770
      px      :     1.049620
      py      :     0.938142
      dz2     :     0.006855  d :     0.069280
      dxz     :     0.016280
      dyz     :     0.017815
      dx2y2   :     0.016463
      dxy     :     0.011867

 14 C s       :     0.950429  s :     0.950429
      pz      :     1.014327  p :     3.035045
      px      :     0.993838
      py      :     1.026880
      dz2     :     0.010105  d :     0.069394
      dxz     :     0.015113
      dyz     :     0.016653
      dx2y2   :     0.022806
      dxy     :     0.004717

 15 O s       :     1.654938  s :     1.654938
      pz      :     1.473270  p :     4.620631
      px      :     1.868582
      py      :     1.278780
      dz2     :     0.010862  d :     0.031170
      dxz     :     0.004262
      dyz     :     0.007982
      dx2y2   :     0.006090
      dxy     :     0.001975

 16 H s       :     0.921433  s :     0.921433
      pz      :     0.022055  p :     0.044321
      px      :     0.012191
      py      :     0.010075

 17 H s       :     0.900513  s :     0.900513
      pz      :     0.011532  p :     0.044011
      px      :     0.010923
      py      :     0.021555

 18 H s       :     0.901816  s :     0.901816
      pz      :     0.010051  p :     0.043960
      px      :     0.023761
      py      :     0.010148

 19 H s       :     0.931308  s :     0.931308
      pz      :     0.011361  p :     0.049633
      px      :     0.019227
      py      :     0.019045

 20 H s       :     0.934697  s :     0.934697
      pz      :     0.018433  p :     0.054347
      px      :     0.015612
      py      :     0.020302

 21 H s       :     0.925119  s :     0.925119
      pz      :     0.021793  p :     0.041327
      px      :     0.009652
      py      :     0.009882

 22 H s       :     0.934081  s :     0.934081
      pz      :     0.015407  p :     0.043041
      px      :     0.016429
      py      :     0.011206

 23 H s       :     0.900727  s :     0.900727
      pz      :     0.010208  p :     0.043156
      px      :     0.009798
      py      :     0.023149

 24 H s       :     0.920810  s :     0.920810
      pz      :     0.015157  p :     0.040300
      px      :     0.014038
      py      :     0.011105

 25 H s       :     0.927736  s :     0.927736
      pz      :     0.015906  p :     0.042951
      px      :     0.014840
      py      :     0.012206

 26 H s       :     0.912478  s :     0.912478
      pz      :     0.020848  p :     0.043326
      px      :     0.010302
      py      :     0.012176

 27 H s       :     0.921398  s :     0.921398
      pz      :     0.009484  p :     0.042759
      px      :     0.010504
      py      :     0.022771

 28 H s       :     0.930952  s :     0.930952
      pz      :     0.015850  p :     0.043362
      px      :     0.015316
      py      :     0.012196

 29 H s       :     0.913595  s :     0.913595
      pz      :     0.016931  p :     0.045082
      px      :     0.014416
[...]
 95:   1534.71   0.003435   17.36  0.000698  (-0.021073  0.008279  0.013631)
 96:   1539.77   0.001471    7.43  0.000298  ( 0.012234  0.004329  0.011388)
 97:   1545.34   0.003693   18.66  0.000746  ( 0.008651 -0.012195 -0.022852)
 98:   1763.76   0.003228   16.31  0.000571  ( 0.010064  0.020608 -0.006712)
 99:   1774.91   0.004315   21.81  0.000759  ( 0.013799 -0.002210 -0.023736)
100:   3081.04   0.003096   15.64  0.000314  ( 0.004520  0.003514  0.016756)
101:   3094.59   0.005215   26.35  0.000526  ( 0.002009  0.017491  0.014694)
102:   3099.83   0.004862   24.57  0.000490  ( 0.019922 -0.002423  0.009314)
103:   3101.59   0.003427   17.32  0.000345  ( 0.012772  0.002666  0.013213)
104:   3103.90   0.004265   21.56  0.000429  (-0.004807 -0.013873 -0.014603)
105:   3107.44   0.006718   33.95  0.000675  ( 0.022416  0.009074 -0.009480)
106:   3113.18   0.004871   24.62  0.000488  (-0.017092  0.007128  0.012056)
107:   3115.28   0.004620   23.35  0.000463  ( 0.010194 -0.018761  0.002623)
108:   3117.52   0.004758   24.04  0.000476  ( 0.003832 -0.020805 -0.005361)
109:   3156.16   0.002360   11.92  0.000233  (-0.003627  0.011481  0.009398)
110:   3164.84   0.003622   18.30  0.000357  (-0.001403 -0.018433  0.003924)
111:   3171.34   0.006255   31.61  0.000616  ( 0.014564  0.010114 -0.017352)
112:   3171.73   0.002729   13.79  0.000268  (-0.008599  0.009822 -0.009903)
113:   3184.81   0.001472    7.44  0.000144  ( 0.003465 -0.010481 -0.004734)
114:   3187.95   0.004633   23.41  0.000454  (-0.002674 -0.014039 -0.015788)
115:   3194.94   0.003486   17.62  0.000341  ( 0.008646 -0.015828  0.003906)
116:   3206.14   0.001831    9.26  0.000178  (-0.012496  0.002421  0.004030)
117:   3207.28   0.002276   11.50  0.000221  ( 0.008076  0.010433 -0.006882)
118:   3208.78   0.003078   15.56  0.000299  ( 0.013178  0.004935  0.010068)
119:   3215.10   0.002685   13.57  0.000261  ( 0.005482  0.009785 -0.011609)
120:   3218.28   0.000781    3.95  0.000076  (-0.002517 -0.007182  0.004225)
121:   3221.13   0.002316   11.71  0.000224  ( 0.003695  0.007373  0.012506)
122:   3221.33   0.003485   17.61  0.000338  (-0.008668 -0.004763  0.015486)
123:   3307.76   0.000924    4.67  0.000087  ( 0.001006 -0.000703 -0.009254)
124:   3325.11   0.001091    5.51  0.000102  ( 0.003601  0.009229  0.002056)
125:   3966.33   0.005578   28.19  0.000439  (-0.000425 -0.020363 -0.004905)

* The epsilon (eps) is given for a Dirac delta lineshape.
** The dipole moment derivative (T) already includes vibrational overlap.

The first frequency considered to be a vibration is 6
The total number of vibrations considered is 120


--------------------------
THERMOCHEMISTRY AT 298.15K
--------------------------

Temperature         ...   298.15 K
Pressure            ...     1.00 atm
Total Mass          ...   222.37 AMU
Quasi RRHO          ...     True
Cut-Off Frequency   ...     1.00 cm^-1

Throughout the following assumptions are being made:
  (1) The electronic state is orbitally nondegenerate
  (2) There are no thermally accessible electronically excited states
  (3) Hindered rotations indicated by low frequency modes are not
      treated as such but are treated as vibrations and this may
      cause some error
  (4) All equations used are the standard statistical mechanics
      equations for an ideal gas
  (5) All vibrations are strictly harmonic

freq.      35.38  E(vib)   ...       0.54 
freq.      37.64  E(vib)   ...       0.54 
freq.      68.91  E(vib)   ...       0.50 
freq.     103.70  E(vib)   ...       0.46 
freq.     114.04  E(vib)   ...       0.44 
freq.     175.70  E(vib)   ...       0.38 
freq.     181.79  E(vib)   ...       0.37 
freq.     196.49  E(vib)   ...       0.36 
freq.     218.07  E(vib)   ...       0.33 
freq.     237.41  E(vib)   ...       0.32 
freq.     239.79  E(vib)   ...       0.31 
freq.     252.15  E(vib)   ...       0.30 
freq.     260.13  E(vib)   ...       0.30 
freq.     275.07  E(vib)   ...       0.28 
freq.     283.38  E(vib)   ...       0.28 
freq.     289.67  E(vib)   ...       0.27 
freq.     330.70  E(vib)   ...       0.24 
freq.     336.64  E(vib)   ...       0.24 
freq.     348.59  E(vib)   ...       0.23 
freq.     361.96  E(vib)   ...       0.22 
freq.     373.58  E(vib)   ...       0.21 
freq.     388.67  E(vib)   ...       0.20 
freq.     425.07  E(vib)   ...       0.18 
freq.     466.27  E(vib)   ...       0.16 
freq.     477.18  E(vib)   ...       0.15 
freq.     499.80  E(vib)   ...       0.14 
freq.     509.03  E(vib)   ...       0.14 
freq.     535.17  E(vib)   ...       0.13 
freq.     576.92  E(vib)   ...       0.11 
freq.     610.86  E(vib)   ...       0.10 
freq.     643.71  E(vib)   ...       0.09 
freq.     715.19  E(vib)   ...       0.07 
freq.     749.21  E(vib)   ...       0.06 
freq.     756.21  E(vib)   ...       0.06 
freq.     803.87  E(vib)   ...       0.05 
freq.     832.79  E(vib)   ...       0.04 
freq.     864.59  E(vib)   ...       0.04 
freq.     926.49  E(vib)   ...       0.03 
freq.     939.42  E(vib)   ...       0.03 
freq.     944.09  E(vib)   ...       0.03 
freq.     949.50  E(vib)   ...       0.03 
freq.     961.05  E(vib)   ...       0.03 
freq.     964.71  E(vib)   ...       0.03 
freq.     965.59  E(vib)   ...       0.03 
freq.     993.98  E(vib)   ...       0.02 
freq.    1003.79  E(vib)   ...       0.02 
freq.    1029.94  E(vib)   ...       0.02 
freq.    1036.40  E(vib)   ...       0.02 
freq.    1056.07  E(vib)   ...       0.02 
freq.    1061.56  E(vib)   ...       0.02 
freq.    1064.92  E(vib)   ...       0.02 
freq.    1068.21  E(vib)   ...       0.02 
freq.    1082.18  E(vib)   ...       0.02 
freq.    1090.98  E(vib)   ...       0.02 
freq.    1113.70  E(vib)   ...       0.01 
freq.    1137.17  E(vib)   ...       0.01 
freq.    1166.01  E(vib)   ...       0.01 
freq.    1174.32  E(vib)   ...       0.01 
freq.    1217.82  E(vib)   ...       0.01 
freq.    1226.60  E(vib)   ...       0.01 
freq.    1236.05  E(vib)   ...       0.01 
freq.    1270.66  E(vib)   ...       0.01 
freq.    1290.66  E(vib)   ...       0.01 
freq.    1298.78  E(vib)   ...       0.01 
freq.    1319.53  E(vib)   ...       0.01 
freq.    1330.87  E(vib)   ...       0.01 
freq.    1345.84  E(vib)   ...       0.01 
freq.    1359.45  E(vib)   ...       0.01 
freq.    1373.55  E(vib)   ...       0.01 
freq.    1375.30  E(vib)   ...       0.01 
freq.    1394.31  E(vib)   ...       0.00 
freq.    1418.93  E(vib)   ...       0.00 
freq.    1436.11  E(vib)   ...       0.00 
freq.    1440.40  E(vib)   ...       0.00 
freq.    1441.89  E(vib)   ...       0.00 
freq.    1444.76  E(vib)   ...       0.00 
freq.    1453.43  E(vib)   ...       0.00 
freq.    1461.08  E(vib)   ...       0.00 
freq.    1467.68  E(vib)   ...       0.00 
freq.    1475.27  E(vib)   ...       0.00 
freq.    1482.04  E(vib)   ...       0.00 
freq.    1508.10  E(vib)   ...       0.00 
freq.    1511.66  E(vib)   ...       0.00 
freq.    1513.54  E(vib)   ...       0.00 
freq.    1520.22  E(vib)   ...       0.00 
freq.    1522.32  E(vib)   ...       0.00 
freq.    1524.57  E(vib)   ...       0.00 
freq.    1527.79  E(vib)   ...       0.00 
freq.    1529.45  E(vib)   ...       0.00 
freq.    1534.71  E(vib)   ...       0.00 
freq.    1539.77  E(vib)   ...       0.00 
freq.    1545.34  E(vib)   ...       0.00 
freq.    1763.76  E(vib)   ...       0.00 
freq.    1774.91  E(vib)   ...       0.00 
freq.    3081.04  E(vib)   ...       0.00 
freq.    3094.59  E(vib)   ...       0.00 
freq.    3099.83  E(vib)   ...       0.00 
freq.    3101.59  E(vib)   ...       0.00 
freq.    3103.90  E(vib)   ...       0.00 
freq.    3107.44  E(vib)   ...       0.00 
freq.    3113.18  E(vib)   ...       0.00 
freq.    3115.28  E(vib)   ...       0.00 
freq.    3117.52  E(vib)   ...       0.00 
freq.    3156.16  E(vib)   ...       0.00 
freq.    3164.84  E(vib)   ...       0.00 
freq.    3171.34  E(vib)   ...       0.00 
freq.    3171.73  E(vib)   ...       0.00 
freq.    3184.81  E(vib)   ...       0.00 
freq.    3187.95  E(vib)   ...       0.00 
freq.    3194.94  E(vib)   ...       0.00 
freq.    3206.14  E(vib)   ...       0.00 
freq.    3207.28  E(vib)   ...       0.00 
freq.    3208.78  E(vib)   ...       0.00 
freq.    3215.10  E(vib)   ...       0.00 
freq.    3218.28  E(vib)   ...       0.00 
freq.    3221.13  E(vib)   ...       0.00 
freq.    3221.33  E(vib)   ...       0.00 
freq.    3307.76  E(vib)   ...       0.00 
freq.    3325.11  E(vib)   ...       0.00 
freq.    3966.33  E(vib)   ...       0.00 

------------
INNER ENERGY
------------

The inner energy is: U= E(el) + E(ZPE) + E(vib) + E(rot) + E(trans)
    E(el)   - is the total energy from the electronic structure calculation
              = E(kin-el) + E(nuc-el) + E(el-el) + E(nuc-nuc)
    E(ZPE)  - the the zero temperature vibrational energy from the frequency calculation
    E(vib)  - the the finite temperature correction to E(ZPE) due to population
              of excited vibrational states
    E(rot)  - is the rotational thermal energy
    E(trans)- is the translational thermal energy

Summary of contributions to the inner energy U:
Electronic energy                ...   -117.19318176 Eh
Zero point energy                ...      0.39058260 Eh     245.09 kcal/mol
Thermal vibrational correction   ...      0.01500582 Eh       9.42 kcal/mol
Thermal rotational correction    ...      0.00141627 Eh       0.89 kcal/mol
Thermal translational correction ...      0.00141627 Eh       0.89 kcal/mol
-----------------------------------------------------------------------
Total thermal energy                   -116.78476080 Eh


Summary of corrections to the electronic energy:
(perhaps to be used in another calculation)
Total thermal correction                  0.01783836 Eh      11.19 kcal/mol
Non-thermal (ZPE) correction              0.39058260 Eh     245.09 kcal/mol
-----------------------------------------------------------------------
Total correction                          0.40842096 Eh     256.29 kcal/mol


--------
ENTHALPY
--------

The enthalpy is H = U + kB*T
                kB is Boltzmann's constant
Total thermal energy              ...   -116.78476080 Eh 
Thermal Enthalpy correction       ...      0.00094421 Eh       0.59 kcal/mol
-----------------------------------------------------------------------
Total Enthalpy                    ...   -116.78381659 Eh


Note: Only C1 symmetry has been detected, increase convergence thresholds 
      if your molecule has a higher symmetry. Symmetry factor of 1.0 is   
      used for the rotational entropy correction. 
 

Note: Rotational entropy computed according to Herzberg 
Infrared and Raman Spectra, Chapter V,1, Van Nostrand Reinhold, 1945 
Point Group:  C1, Symmetry Number:   1  
Rotational constants in cm-1:     0.022735     0.014097     0.010833 

Vibrational entropy computed according to the QRRHO of S. Grimme
Chem.Eur.J. 2012 18 9955 using a reference frequency of 100.0 cm-1


-------
ENTROPY
-------

The entropy contributions are T*S = T*(S(el)+S(vib)+S(rot)+S(trans))
     S(el)   - electronic entropy
     S(vib)  - vibrational entropy
     S(rot)  - rotational entropy
     S(trans)- translational entropy
The entropies will be listed as multiplied by the temperature to get
units of energy

Electronic entropy                ...      0.00000000 Eh      0.00 kcal/mol
Vibrational entropy               ...      0.02558153 Eh     16.05 kcal/mol
Rotational entropy                ...      0.01544539 Eh      9.69 kcal/mol
Translational entropy             ...      0.02000310 Eh     12.55 kcal/mol
-----------------------------------------------------------------------
Final entropy term                ...      0.06103002 Eh     38.30 kcal/mol

In case the symmetry of your molecule has not been determined correctly
or in case you have a reason to use a different symmetry number we print 
out the resulting rotational entropy values for sn=1,12:

 non-linear molecules -----------------------------------
|  sn= 1 | S(rot)=       0.01544539 Eh      9.69 kcal/mol|
|  sn= 2 | S(rot)=       0.01479093 Eh      9.28 kcal/mol|
|  sn= 3 | S(rot)=       0.01440810 Eh      9.04 kcal/mol|
|  sn= 4 | S(rot)=       0.01413648 Eh      8.87 kcal/mol|
|  sn= 5 | S(rot)=       0.01392579 Eh      8.74 kcal/mol|
|  sn= 6 | S(rot)=       0.01375365 Eh      8.63 kcal/mol|
|  sn= 7 | S(rot)=       0.01360810 Eh      8.54 kcal/mol|
|  sn= 8 | S(rot)=       0.01348202 Eh      8.46 kcal/mol|
|  sn= 9 | S(rot)=       0.01337081 Eh      8.39 kcal/mol|
|  sn=10 | S(rot)=       0.01327133 Eh      8.33 kcal/mol|
|  sn=11 | S(rot)=       0.01318134 Eh      8.27 kcal/mol|
|  sn=12 | S(rot)=       0.01309919 Eh      8.22 kcal/mol|
 linear molecules ---------------------------------------
|  Dinfh | S(rot)=       0.00959840 Eh      6.02 kcal/mol|
|  Cinfv | S(rot)=       0.01025285 Eh      6.43 kcal/mol|
 --------------------------------------------------------


-------------------
GIBBS FREE ENERGY
-------------------

The Gibbs free energy is G = H - T*S

Total enthalpy                    ...   -116.78381659 Eh 
Total entropy correction          ...     -0.06103002 Eh    -38.30 kcal/mol
-----------------------------------------------------------------------
Final Gibbs free energy         ...   -116.84484662 Eh

For completeness - the Gibbs free energy minus the electronic energy
G-E(el)                           ...      0.34833515 Eh    218.58 kcal/mol


Maximum memory used throughout the entire PROP-calculation: 279.8 MB

--------------------------------
SUGGESTED CITATIONS FOR THIS RUN
--------------------------------

Below you find a list of papers that are relevant to this ORCA run
We neither can nor want to force you to cite these papers, but we appreciate if you do
You receive ORCA, which is the product of decades of hard work by many enthusiastic individuals, for free
The only thing we kindly ask in return is that you cite our papers,
We deeply appreciate it, if you show your appreciation for ORCA by not just citing the generic ORCA reference.

Please note that relegating all ORCA citations to the supporting information does *not* help us.
SI sections are not indexed - citations you put there will not count into any citation statistics
But we need these citations in order to attract the funding resources that allow us to do what we are doing

Therefore, if you are a happy ORCA user, please consider citing a few of the papers listed below in the main body of your paper

In addition to the list printed below, the program has created the file ./output/elemol/elemol.bibtex that contains the list in bibtex format
You can import this file easily into all common literature databanks and citation aid programs


List of essential papers. We consider these as the minimum necessary citations

  1. Neese,F.
     Software update: the ORCA program system, version 5.0
     WIRES Comput. Molec. Sci., 2022 12(1)e1606
     doi.org/10.1002/wcms.1606
  2. Mueller,M.; Hansen,A.; Grimme,S.
     wB97X-3c: A composite range-separated hybrid DFT method with a molecule-optimized polarized valence double-zeta basis set
     J. Chem. Phys., 2023 158 014103
     doi.org/10.1063/5.0133026

List of papers to cite with high priority. The work reported in these papers was absolutely
necessary for this run to complete.
Our perspective: the developers of density functionals and basis sets usually get cited in chemistry papers
Good! But without the algorithms to do something with them, the functionals or basis sets would not do anything.
Hence, in our opinion, the algorithm design and method developments papers are equally worthy of getting cited

  1. Neese,F.
     An improvement of the resolution of the identity approximation for the formation of the Coulomb matrix
     J. Comp. Chem., 2003 24(14)1740-1747
     doi.org/10.1002/jcc.10318
  2. Neese,F.; Wennmohs,F.; Hansen,A.; Becker,U.
     Efficient, approximate and parallel Hartree-Fock and hybrid DFT calculations. A 'chain-of-spheres' algorithm for the Hartree-Fock exchange
     Chem. Phys., 2009 356(1-3)98-109
     doi.org/10.1016/j.chemphys.2008.10.036
  3. Bykov,D.; Petrenko,T.; Izsak,R.; Kossmann,S.; Becker,U.; Valeev,E.; Neese,F.
     Efficient implementation of the analytic second derivatives of Hartree-Fock and hybrid DFT energies: a detailed analysis of different approximations
     Molec. Phys., 2015 113 1961-1977
     doi.org/10.1080/00268976.2015.1025114
  4. Helmich-Paris,B.; de Souza,B.; Neese,F.; Izsák,R.
     An improved chain of spheres for exchange algorithm
     J. Chem. Phys., 2021 155 104109
     doi.org/doi: 10.1063/5.0058766.
  5. Neese,F.
     The SHARK Integral Generation and Digestion System
     J. Comp. Chem., 2022  1-16
     doi.org/10.1002/jcc.26942
  6. Caldeweyher,E.; Bannwarth,C.; Grimme,S.
     Extension of the D3 dispersion coefficient model
     J. Chem. Phys., 2017 147 034112
     doi.org/10.1063/1.4993215
  7. Caldeweyher,E.; Ehlert,S.; Hansen,A.; Neugebauer,H.; Spicher,S.; Bannwarth,C.; Grimme,S.
     A generally applicable atomic-charge dependent London dispersion correction
     J. Chem. Phys., 2019 150 154122
     doi.org/10.1063/1.5090222
  8. Caldeweyher,E.; Mewes,J.; Ehlert,S.; Grimme,S.
     Extension and evaluation of the D4 London-dispersion model for periodic systems
     Phys. Chem. Chem. Phys., 2020 22(16)8499-8512
     doi.org/10.1039/D0CP00502A
  9. Wittmann,L.; Gordiy,I.; Friede,M.; Helmich-Paris,B.; Grimme,S.; Hansen,A.; Bursch,M.
     Extension of the D3 and D4 London Dispersion Corrections to the full Actinides Series
     Phys. Chem. Chem. Phys., 2024 26(32)21379-21394
     doi.org/https://doi.org/10.1039/D4CP01514B 

List of suggested additional citations. These are papers that are important in the 'surrounding' of 
of this run, or papers that preceded the highly important papers. If you like your results we are grateful for a citation.

  1. Izsak,R.; Neese,F.
     An overlap fitted chain of spheres exchange method
     J. Chem. Phys., 2011 135 144105
     doi.org/10.1063/1.3646921
  2. Izsak,R.; Hansen,A.; Neese,F.
     The resolution of identity and chain of spheres approximations for the LPNO-CCSD singles Fock term
     Molec. Phys., 2012 110 2413-2417
     doi.org/10.1080/00268976.2012.687466
  3. Neese,F.
     The ORCA program system
     WIRES Comput. Molec. Sci., 2012 2(1)73-78
     doi.org/10.1002/wcms.81
  4. Izsak,R.; Neese,F.; Klopper,W.
     Robust fitting techniques in the chain of spheres approximation to the Fock exchange: The role of the complementary space
     J. Chem. Phys., 2013 139 
     doi.org/10.1063/1.4819264
  5. Neese,F.
     Software update: the ORCA program system, version 4.0
     WIRES Comput. Molec. Sci., 2018 8(1)1-6
     doi.org/10.1002/wcms.1327
  6. Neese,F.; Wennmohs,F.; Becker,U.; Riplinger,C.
     The ORCA quantum chemistry program package
     J. Chem. Phys., 2020 152 Art. No. L224108
     doi.org/10.1063/5.0004608

List of optional additional citations

  1. Neese,F.
     Approximate second-order SCF convergence for spin unrestricted wavefunctions
     Chem. Phys. Lett., 2000 325(1-3)93-98
     doi.org/10.1016/s0009-2614(00)00662-x

Timings for individual modules:

Sum of individual times          ...     3993.408 sec (=  66.557 min)
Startup calculation              ...      180.817 sec (=   3.014 min)   4.5 %
SCF iterations                   ...     2657.574 sec (=  44.293 min)  66.5 %
Property integrals               ...      189.951 sec (=   3.166 min)   4.8 %
SCF Response                     ...      108.144 sec (=   1.802 min)   2.7 %
Property calculations            ...      274.384 sec (=   4.573 min)   6.9 %
SCF Gradient evaluation          ...      581.570 sec (=   9.693 min)  14.6 %
Geometry relaxation              ...        0.968 sec (=   0.016 min)   0.0 %
                             ****ORCA TERMINATED NORMALLY****
TOTAL RUN TIME: 0 days 1 hours 6 minutes 48 seconds 736 msec
