
                                 *****************
                                 * O   R   C   A *
                                 *****************

                                            #,                                       
                                            ###                                      
                                            ####                                     
                                            #####                                    
                                            ######                                   
                                           ########,                                 
                                     ,,################,,,,,                         
                               ,,#################################,,                 
                          ,,##########################################,,             
                       ,#########################################, ''#####,          
                    ,#############################################,,   '####,        
                  ,##################################################,,,,####,       
                ,###########''''           ''''###############################       
              ,#####''   ,,,,##########,,,,          '''####'''          '####       
            ,##' ,,,,###########################,,,                        '##       
           ' ,,###''''                  '''############,,,                           
         ,,##''                                '''############,,,,        ,,,,,,###''
      ,#''                                            '''#######################'''  
     '                                                          ''''####''''         
             ,#######,   #######,   ,#######,      ##                                
            ,#'     '#,  ##    ##  ,#'     '#,    #''#        ,####,   ,####,        
            ##       ##  ##   ,#'  ##            #'  '#       #'       #'  '#        
            ##       ##  #######   ##           ,######,      #####,   #    #        
            '#,     ,#'  ##    ##  '#,     ,#' ,#      #,     #,   #   #,  ,#        
             '#######'   ##     ##  '#######'  #'      '#     '####' # '####'        



                #########################################################
                #                        -***-                          #
                #          Department of theory and spectroscopy        #
                #                                                       #
                #                      Frank Neese                      #
                #                                                       #
                #     Directorship, Architecture, Infrastructure        #
                #                    SHARK, DRIVERS                     #
                #        Core code/Algorithms in most modules           #
                #                                                       #
                #        Max Planck Institute fuer Kohlenforschung      #
                #                Kaiser Wilhelm Platz 1                 #
                #                 D-45470 Muelheim/Ruhr                 #
                #                      Germany                          #
                #                                                       #
                #                  All rights reserved                  #
                #                        -***-                          #
                #########################################################


                         Program Version 6.0.1  -  RELEASE   -


 With contributions from (in alphabetic order):
[Max-Planck-Institut fuer Kohlenforschung]                               
  Daniel Aravena         : Magnetic Suceptibility                        
  Michael Atanasov       : Ab Initio Ligand Field Theory (pilot matlab implementation)
  Alexander A. Auer      : GIAO ZORA, VPT2 properties, NMR spectrum      
  Ute Becker             : All parallelization in ORCA, NUMFREQ, NUMCALC 
  Giovanni Bistoni       : ED, misc. LED, open-shell LED, HFLD           
  Martin Brehm           : Molecular dynamics                            
  Dmytro Bykov           : pre 5.0 version of the SCF Hessian            
  Marcos Casanova-Páez   : Triplet and SCS-CIS(D). UHF-(DLPNO)-IP/EA/STEOM-CCSD. UHF-CVS-IP/STEOM-CCSD   
  Vijay G. Chilkuri      : MRCI spin determinant printing, contributions to CSF-ICE 
  Pauline Colinet        : FMM embedding                                 
  Dipayan Datta          : RHF DLPNO-CCSD density                        
  Achintya Kumar Dutta   : EOM-CC, STEOM-CC                              
  Nicolas Foglia         : Exact transition moments, OPA infrastructure, MCD improvements    
  Dmitry Ganyushin       : Spin-Orbit,Spin-Spin,Magnetic field MRCI      
  Miquel Garcia-Rates    : C-PCM and meta-GGA Hessian, CCSD/C-PCM, Gaussian charge scheme 
  Tiago L. C. Gouveia    : GS-ROHF, GS-ROCIS                             
  Yang Guo               : DLPNO-NEVPT2, F12-NEVPT2, CIM, IAO-localization        
  Andreas Hansen         : Spin unrestricted coupled pair/coupled cluster methods 
  Ingolf Harden          : AUTO-CI MPn and infrastructure                
  Benjamin Helmich-Paris : MC-RPA, TRAH-(SCF,CASSCF), AVAS, COSX integrals, SCF dyn. polar. 
  Lee Huntington         : MR-EOM, pCC                                   
  Robert Izsak           : Overlap fitted RIJCOSX, COSX-SCS-MP3, EOM     
  Riya Kayal             : Wick's Theorem for AUTO-CI, AUTO-CI UHF-CCSDT 
  Emily Kempfer          : AUTO-CI, RHF CISDT and CCSDT                  
  Christian Kollmar      : KDIIS, OOCD, Brueckner-CCSD(T), CCSD density, CASPT2, CASPT2-K, improved NEVPT2 
  Axel Koslowski         : Symmetry handling                             
  Simone Kossmann        : meta-GGA functionals, TD-DFT gradient, OOMP2, (MP2 Hessian; deprecated post 5.0) 
  Lucas Lang             : DCDCAS                                        
  Marvin Lechner         : AUTO-CI (C++ implementation), FIC-MRCC        
  Spencer Leger          : CASSCF response                               
  Dagmar Lenk            : GEPOL surface, SMD, ORCA-2-JSON               
  Dimitrios Liakos       : Extrapolation schemes; Compound Job, initial MDCI parallelization 
  Dimitrios Manganas     : Further ROCIS development; embedding schemes. LFT, Crystal Embedding 
  Dimitrios Pantazis     : SARC Basis sets                               
  Anastasios Papadopoulos: AUTO-CI, single reference methods and gradients 
  Taras Petrenko         : pre 6.0 DFT Hessian and TD-DFT gradient, (ASA, deprecated), ECA, 1-Electron XAS/XES, NRVS 
  Peter Pinski           : DLPNO-MP2, DLPNO-MP2 Gradient                 
  Christoph Reimann      : Effective Core Potentials                     
  Marius Retegan         : Local ZFS, SOC                                
  Christoph Riplinger    : Optimizer, TS searches, QM/MM, DLPNO-CCSD(T), (RO)-DLPNO pert. Triples 
  Michael Roemelt        : Original ROCIS implementation                 
  Masaaki Saitow         : Open-shell DLPNO-CCSD energy and density      
  Barbara Sandhoefer     : DKH picture change effects                    
  Kantharuban Sivalingam : CASSCF convergence/infrastructure, NEVPT2 and variants, FIC-MRCI 
  Bernardo de Souza      : ESD, SOC TD-DFT                               
  Georgi L. Stoychev     : AutoAux, RI-MP2 NMR, DLPNO-MP2 response, X2C  
  Van Anh Tran           : RI-MP2 g-tensors                              
  Willem Van den Heuvel  : Paramagnetic NMR                              
  Zikuan Wang            : NOTCH, Electric field optimization            
  Frank Wennmohs         : Technical directorship and infrastructure     
  Hang Xu                : AUTO-CI-Response properties                   
                                                                         
[FACCTs GmbH]                                                            
  Markus Bursch, Miquel Garcia-Rates, Christoph Riplinger, Bernardo de Souza, Georgi L. Stoychev 
                                                                 
  APM, Basis sets (HGBS, AHGBS, def-TZVP (Ac-Lr), def2-XVPD (La-Lu)), CI-OPT, improved COSX, DLPNO-Multilevel,           
  DOCKER, DRACO, updates on ESD, GOAT, IRC, LR-CPCM, MBIS, meta-GGA TD-DFT gradient, ML-optimized integration grids, 
  MM, NACMEs, nearIR, NEB, NEB-TS, NL-DFT gradient (VV10), 2- and 3-layer-ONIOM, interface openCOSMO-RS, QMMM,   
  Crystal-QMMM, SF, symmetry and pop. for TD-DFT, r2SCAN hybrids, SOLVATOR                                   
                                                                         
[Other institutions]                                                     
  V. Asgeirsson          : NEB                                           
  Christoph Bannwarth    : sTDA-DFT, sTD-DFT, PBEh-3c, B97-3c, D3        
  Sebastian Ehlert       : rSCAN, r2SCAN, r2SCAN-3c, D4, dhf basis sets  
  Marvin Friede          : D4 for Fr, Ra, Ac-Lr                          
  Lars Goerigk           : TD-DFT with DH, B97 family of functionals     
  Stefan Grimme          : VdW corrections, initial TS optimization, DFT functionals, gCP, sTDA/sTD-DF 
  Waldemar Hujo          : DFT-NL                                        
  H. Jonsson             : NEB                                           
  Holger Kruse           : gCP                                           
  Marcel Mueller         : wB97X-3c, vDZP basis set                      
  Hagen Neugebauer       : wr2SCAN                                       
  Tobias Risthaus        : range-separated hybrid DFT                    
  Lukas Wittmann         : regularized MP2, r2SCAN double-hybrids, wr2SCAN        
                                                                         
We gratefully acknowledge several colleagues who have allowed us to      
interface, adapt or use parts of their codes:                            
  Ed Valeev, F. Pavosevic, A. Kumar             : LibInt (2-el integral package), F12 methods 
  Garnet Chan, S. Sharma, J. Yang, R. Olivares  : DMRG                   
  Ulf Ekstrom                                   : XCFun DFT Library      
  Mihaly Kallay                                 : mrcc  (arbitrary order and MRCC methods)
  Frank Weinhold                                : gennbo (NPA and NBO analysis)           
  Simon Mueller                                 : openCOSMO-RS                            
  Christopher J. Cramer and Donald G. Truhlar   : smd solvation model                     
  S Lehtola, MJT Oliveira, MAL Marques          : LibXC Library                           
  Liviu Ungur et al                             : ANISO software                          


 Your calculation uses the libint2 library for the computation of 2-el integrals
 For citations please refer to: http://libint.valeyev.net

 Your ORCA version has been built with support for libXC version: 6.2.2
 For citations please refer to: https://libxc.gitlab.io

 This ORCA versions uses:
   CBLAS   interface :  Fast vector & matrix operations
   LAPACKE interface :  Fast linear algebra routines
   SCALAPACK package :  Parallel linear algebra routines
   Shared memory     :  Shared parallel matrices
   BLAS/LAPACK       :  OpenBLAS 0.3.27  USE64BITINT DYNAMIC_ARCH NO_AFFINITY SkylakeX SINGLE_THREADED
        Core in use  :  SkylakeX
   Copyright (c) 2011-2014, The OpenBLAS Project


Your calculation utilizes the atom-pairwise dispersion correction
based on EEQ partial charges (D4)


================================================================================

cite the ECPs for C  [vDZP-ECP], O  [vDZP-ECP] as follows:
   B-Ne (ecp-2-mwb), Al-Ar (ecp-10-mwb), Ga-Kr (ecp-28-mwb), Y-Cd (ecp-28-mwb), In-Xe (ecp-46-mwb):
     A. Bergner, M. Dolg, W. Küchle, H. Stoll, and H. Preuß, Mol. Phys. 80, 1431 (1993)., T. Leininger, A. Berning, A. Nicklass, H. Stoll, H.-J. Werner, and H.-J.Flad, Chem. Phys. 217, 19 (1997).
   Na-Mg, K-Ca, Rb-Sr, Cs-Ba (CRENBL):
     L. Fernandez Pacios and P. A. Christiansen, J. Chem. Phys. 82, 2664 (1985)., M. M. Hurley, L. F. Pacios, P. A. Christiansen, R. B. Ross, and W. C. Ermler, J. Chem. Phys. 84, 6840 (1986)., L. A. LaJohn, P. A. Christiansen, R. B. Ross, T. Atashroo, and W. C. Ermler, J. Chem. Phys. 87, 2812 (1987)., R. B. Ross, J. M. Powers, T. Atashroo, W. C. Ermler, L. A. LaJohn, and P. A. Christiansen, J. Chem. Phys. 93, 6654 (1990). 
   Sc-Zn (ecp-10-mdf):
     M. Dolg, U. Wedig, H. Stoll, and H. Preuss, J. Chem. Phys. 86, 866 (1986). 
   Y-Cd (ecp-28-mwb), Hf-Hg (ecp-60-mwb):
     D. Andrae, U. Häußermann, M. Dolg, H. Stoll, and H. Preuß, Theor. Chim. Acta 77, 123 (1990). 
   La (ecp-46-mwb):
     M. Dolg, H. Stoll, and H. Preuss, J. Chem. Phys. 90, 1730 (1989)., M. Dolg, H. Stoll, and H. Preuss, Theor. Chim. Acta 85, 441 (1993).
   Ce-Lu (SBKJC-ecp):
     T. R. Cundari and W. J. Stevens, J. Chem. Phys. 98, 5555 (1993).
   Tl-Rn (ecp-78-mwb):
     W. Küchle, M. Dolg, H. Stoll, and H. Preuss, Mol. Phys. 74, 1245 (1991).

ECP parameters for C  [vDZP-ECP], O  [vDZP-ECP] have been obtained from:
MM, AH, SG, J. Chem. Phys. 158, 014103 (2023), 10.1063/5.0133026

----- Orbital basis set information -----
Your calculation utilizes the basis: vDZP
   Marcel Mueller, Andreas Hansen, Stefan Grimme 
   J. Chem. Phys. 158, 014103 (2023). DOI: 10.1063/5.0133026

----- AuxJ basis set information -----
Your calculation utilizes the auxiliary basis: def2/J
   F. Weigend, Phys. Chem. Chem. Phys. 8, 1057 (2006).

================================================================================
                                        WARNINGS
                       Please study these warnings very carefully!
================================================================================

WARNING: Frozen-Core approximation turned on, but there are no core electrons.
  ===> : Turning off frozen-core approximation


WARNING: Geometry Optimization
  ===> : Switching off AutoStart
         For restart on a previous wavefunction, please use MOREAD

================================================================================
                                       INPUT FILE
================================================================================
NAME = ./output/citronellyl_formate/citronellyl_formate.inp
|  1> ! wB97X-3c OPT FREQ TightSCF
|  2> %pal
|  3>   nprocs 40
|  4> end
|  5> * xyz 0 1
|  6> C      1.818481    -2.119731    -0.222023
|  7> C      1.312028    -0.722388     0.179956
|  8> C     -0.187131    -0.760924     0.563456
|  9> C     -1.105854    -1.071702    -0.629698
| 10> C     -2.551828    -0.838540    -0.266910
| 11> C     -3.180854     0.353964    -0.375637
| 12> C     -4.622475     0.482382     0.043535
| 13> C     -2.497303     1.571404    -0.948047
| 14> C      2.132123    -0.149015     1.363240
| 15> C      3.601742     0.148171     1.022959
| 16> O      3.716587     0.973948    -0.135639
| 17> C      3.417796     2.339952    -0.140467
| 18> O      3.067961     2.935573     0.913329
| 19> H      1.247472    -2.513381    -1.086922
| 20> H      2.878732    -2.077724    -0.542996
| 21> H      1.724557    -2.830383     0.626769
| 22> H      1.426511    -0.041389    -0.692021
| 23> H     -0.353726    -1.515689     1.363915
| 24> H     -0.474225     0.228533     0.980749
| 25> H     -0.819140    -0.472995    -1.519707
| 26> H     -0.998802    -2.141727    -0.904886
| 27> H     -3.096678    -1.692837     0.126414
| 28> H     -4.721320     1.302473     0.785373
| 29> H     -5.011388    -0.450572     0.505130
| 30> H     -5.244915     0.722027    -0.843891
| 31> H     -2.205106     1.383293    -2.002271
| 32> H     -3.178451     2.448621    -0.934836
| 33> H     -1.597837     1.828447    -0.352258
| 34> H      2.099002    -0.857701     2.219740
| 35> H      1.666636     0.799013     1.709365
| 36> H      4.149254    -0.799588     0.845124
| 37> H      4.092748     0.642780     1.889319
| 38> H      3.495406     2.895705    -1.064613
| 39> *
| 40> 
| 41>                          ****END OF INPUT****
================================================================================

                       *****************************
                       * Geometry Optimization Run *
                       *****************************

Geometry optimization settings:
Update method            Update   .... BFGS
Choice of coordinates    CoordSys .... (2022) Redundant Internals
Initial Hessian          InHess   .... Almloef's Model
Max. no of cycles        MaxIter  .... 99

Convergence Tolerances:
Energy Change            TolE     ....  5.0000e-06 Eh
Max. Gradient            TolMAXG  ....  3.0000e-04 Eh/bohr
RMS Gradient             TolRMSG  ....  1.0000e-04 Eh/bohr
Max. Displacement        TolMAXD  ....  4.0000e-03 bohr
RMS Displacement         TolRMSD  ....  2.0000e-03 bohr
Strict Convergence                .... False

------------------------------------------------------------------------------
                        ORCA OPTIMIZATION COORDINATE SETUP
------------------------------------------------------------------------------

The optimization will be done in redundant internal coordinates (2022)
Making redundant internal coordinates   ...  (2022 redundants) done
Evaluating the initial hessian          ...  (Almloef) done
Evaluating the coordinates              ...  done
Calculating the B-matrix                .... done
Calculating the G-matrix                .... done
Diagonalizing the G-matrix              .... done
Small eigenvalue found = 6.667e-03
Small eigenvalue found = 9.204e-03
Small eigenvalue found = 1.553e-02
Small eigenvalue found = 2.460e-02
Small eigenvalue found = 2.823e-02
The first mode is                       ....   52
The number of degrees of freedom        ....   93

    -----------------------------------------------------------------
                    Redundant Internal Coordinates


    -----------------------------------------------------------------
         Definition                    Initial Value    Approx d2E/dq
    -----------------------------------------------------------------
      1. B(C   1,C   0)                  1.5397         0.360509   
      2. B(C   2,C   1)                  1.5479         0.349783   
      3. B(C   3,C   2)                  1.5376         0.363273   
      4. B(C   4,C   3)                  1.5089         0.403663   
      5. B(C   5,C   4)                  1.3526         0.716783   
      6. B(C   6,C   5)                  1.5068         0.406799   
      7. B(C   7,C   5)                  1.5090         0.403548   
      8. B(C   8,C   1)                  1.5497         0.347534   
      9. B(C   9,C   8)                  1.5375         0.363429   
     10. B(O  10,C   9)                  1.4274         0.487775   
     11. B(C  11,O  10)                  1.3983         0.542775   
     12. B(O  12,C  11)                  1.2600         0.902111   
     13. B(H  13,C   0)                  1.1086         0.336279   
     14. B(H  14,C   0)                  1.1086         0.336357   
     15. B(H  15,C   0)                  1.1110         0.333378   
     16. B(H  16,C   1)                  1.1123         0.331777   
     17. B(H  17,C   2)                  1.1127         0.331257   
     18. B(H  18,C   2)                  1.1116         0.332670   
     19. B(H  19,C   3)                  1.1103         0.334220   
     20. B(H  20,C   3)                  1.1100         0.334568   
     21. B(H  21,C   4)                  1.0869         0.364202   
     22. B(H  22,C   6)                  1.1102         0.334291   
     23. B(H  23,C   6)                  1.1112         0.333141   
     24. B(H  24,C   6)                  1.1101         0.334433   
     25. B(H  25,C   7)                  1.1100         0.334562   
     26. B(H  26,C   7)                  1.1107         0.333736   
     27. B(H  27,C   7)                  1.1091         0.335715   
     28. B(H  27,O  12)                  4.9595         0.000000   
     29. B(H  28,C   8)                  1.1122         0.331933   
     30. B(H  29,C   8)                  1.1114         0.332859   
     31. B(H  30,C   9)                  1.1089         0.335956   
     32. B(H  31,C   9)                  1.1119         0.332273   
     33. B(H  32,C  11)                  1.0812         0.371971   
     34. A(C   1,C   0,H  15)          110.6861         0.318392   
     35. A(H  14,C   0,H  15)          109.0444         0.284309   
     36. A(H  13,C   0,H  14)          106.2710         0.284692   
     37. A(C   1,C   0,H  14)          110.8423         0.318854   
     38. A(H  13,C   0,H  15)          108.9875         0.284299   
     39. A(C   1,C   0,H  13)          110.8861         0.318842   
     40. A(C   0,C   1,H  16)          108.4886         0.318142   
     41. A(C   0,C   1,C   8)          111.1659         0.356735   
     42. A(C   2,C   1,H  16)          108.0079         0.316581   
     43. A(C   0,C   1,C   2)          111.1407         0.357126   
     44. A(C   2,C   1,C   8)          109.4250         0.354911   
     45. A(C   8,C   1,H  16)          108.5178         0.316249   
     46. A(C   3,C   2,H  18)          108.4757         0.318678   
     47. A(C   1,C   2,H  17)          109.8838         0.316500   
     48. A(C   3,C   2,H  17)          109.3696         0.318457   
     49. A(C   1,C   2,C   3)          113.0455         0.357590   
     50. A(H  17,C   2,H  18)          107.1613         0.283541   
     51. A(C   1,C   2,H  18)          108.7229         0.316719   
     52. A(C   2,C   3,H  20)          109.2437         0.318974   
     53. A(C   4,C   3,H  19)          110.9076         0.324472   
     54. A(C   2,C   3,H  19)          111.0227         0.318920   
     55. A(C   2,C   3,C   4)          110.7798         0.366442   
     56. A(C   4,C   3,H  20)          107.5165         0.324528   
     57. A(H  19,C   3,H  20)          107.2278         0.284185   
     58. A(C   5,C   4,H  21)          119.2693         0.362417   
     59. A(C   3,C   4,H  21)          116.4824         0.329096   
     60. A(C   3,C   4,C   5)          124.2325         0.412577   
     61. A(C   6,C   5,C   7)          118.0443         0.373622   
     62. A(C   4,C   5,C   7)          122.0814         0.412556   
     63. A(C   4,C   5,C   6)          119.8481         0.413144   
     64. A(H  23,C   6,H  24)          108.4863         0.284024   
     65. A(H  22,C   6,H  24)          108.9510         0.284176   
     66. A(C   5,C   6,H  24)          109.4178         0.324919   
     67. A(H  22,C   6,H  23)          108.1469         0.284005   
     68. A(C   5,C   6,H  23)          112.2633         0.324713   
     69. A(C   5,C   6,H  22)          109.5122         0.324896   
     70. A(H  26,C   7,H  27)          107.9340         0.284272   
     71. A(H  25,C   7,H  27)          109.6320         0.284381   
     72. A(C   5,C   7,H  27)          110.5227         0.324695   
     73. A(H  25,C   7,H  26)          107.8527         0.284120   
     74. A(C   5,C   7,H  26)          110.7864         0.324380   
     75. A(C   5,C   7,H  25)          110.0465         0.324512   
     76. A(H  28,C   8,H  29)          106.9315         0.283656   
     77. A(C   9,C   8,H  29)          107.7211         0.318730   
     78. A(C   1,C   8,H  29)          109.3755         0.316416   
     79. A(C   9,C   8,H  28)          108.7886         0.318585   
     80. A(C   1,C   8,H  28)          109.6646         0.316273   
     81. A(C   1,C   8,C   9)          114.1022         0.357224   
     82. A(H  30,C   9,H  31)          106.6855         0.284110   
     83. A(O  10,C   9,H  31)          109.8508         0.332435   
     84. A(C   8,C   9,H  31)          109.6111         0.318638   
     85. A(O  10,C   9,H  30)          108.9389         0.333043   
     86. A(C   8,C   9,H  30)          110.0133         0.319212   
     87. A(C   8,C   9,O  10)          111.6154         0.376231   
     88. A(C   9,O  10,C  11)          123.4196         0.400940   
     89. A(O  12,C  11,H  32)          119.4599         0.376023   
     90. A(O  10,C  11,H  32)          119.3252         0.344846   
     91. A(O  10,C  11,O  12)          121.2135         0.447519   
     92. D(C   2,C   1,C   0,H  15)    -61.6392         0.010425   
     93. D(C   2,C   1,C   0,H  14)    177.2320         0.010425   
     94. D(C   8,C   1,C   0,H  15)     60.5073         0.010425   
     95. D(C   2,C   1,C   0,H  13)     59.4469         0.010425   
     96. D(C   8,C   1,C   0,H  14)    -60.6215         0.010425   
     97. D(C   8,C   1,C   0,H  13)   -178.4066         0.010425   
     98. D(C   3,C   2,C   1,C   0)    -67.3390         0.009858   
     99. D(H  17,C   2,C   1,H  16)    174.0453         0.009858   
    100. D(H  17,C   2,C   1,C   8)    -68.0015         0.009858   
    101. D(H  17,C   2,C   1,C   0)     55.1498         0.009858   
    102. D(C   3,C   2,C   1,H  16)     51.5565         0.009858   
    103. D(C   3,C   2,C   1,C   8)    169.5097         0.009858   
    104. D(C   4,C   3,C   2,H  18)    -48.4865         0.010574   
    105. D(C   4,C   3,C   2,H  17)     68.0793         0.010574   
    106. D(C   4,C   3,C   2,C   1)   -169.1455         0.010574   
    107. D(H  19,C   3,C   2,H  18)     75.2065         0.010574   
    108. D(H  19,C   3,C   2,H  17)   -168.2277         0.010574   
    109. D(H  19,C   3,C   2,C   1)    -45.4525         0.010574   
    110. D(H  21,C   4,C   3,C   2)    -91.3262         0.012083   
    111. D(C   5,C   4,C   3,H  20)   -153.4806         0.012083   
    112. D(C   5,C   4,C   3,H  19)    -36.5422         0.012083   
    113. D(H  21,C   4,C   3,H  19)    144.9148         0.012083   
    114. D(C   5,C   4,C   3,C   2)     87.2168         0.012083   
    115. D(C   7,C   5,C   4,H  21)   -178.2854         0.036334   
    116. D(C   7,C   5,C   4,C   3)      3.2097         0.036334   
    117. D(C   6,C   5,C   4,H  21)     -0.1808         0.036334   
    118. D(C   6,C   5,C   4,C   3)   -178.6858         0.036334   
    119. D(H  23,C   6,C   5,C   7)   -176.6374         0.012264   
    120. D(H  23,C   6,C   5,C   4)      5.1823         0.012264   
    121. D(H  22,C   6,C   5,C   7)    -56.4973         0.012264   
    122. D(H  22,C   6,C   5,C   4)    125.3223         0.012264   
    123. D(H  24,C   6,C   5,C   4)   -115.3213         0.012264   
    124. D(H  27,C   7,C   5,C   4)    -59.5450         0.012076   
    125. D(H  26,C   7,C   5,C   6)      2.7288         0.012076   
    126. D(H  26,C   7,C   5,C   4)   -179.1340         0.012076   
    127. D(H  25,C   7,C   5,C   6)   -116.4523         0.012076   
    128. D(H  25,C   7,C   5,C   4)     61.6849         0.012076   
    129. D(H  28,C   8,C   1,C   2)     66.9705         0.009742   
    130. D(H  28,C   8,C   1,C   0)    -56.1659         0.009742   
    131. D(C   9,C   8,C   1,H  16)    -53.0814         0.009742   
    132. D(C   9,C   8,C   1,C   2)   -170.7154         0.009742   
    133. D(H  28,C   8,C   1,H  16)   -175.3954         0.009742   
    134. D(C   9,C   8,C   1,C   0)     66.1481         0.009742   
    135. D(H  30,C   9,C   8,H  29)    170.0668         0.010583   
    136. D(H  30,C   9,C   8,H  28)     54.4942         0.010583   
    137. D(H  30,C   9,C   8,C   1)    -68.2984         0.010583   
    138. D(O  10,C   9,C   8,H  29)    -68.8777         0.010583   
    139. D(O  10,C   9,C   8,H  28)    175.5497         0.010583   
    140. D(O  10,C   9,C   8,C   1)     52.7571         0.010583   
    141. D(C  11,O  10,C   9,H  31)    -48.0763         0.018783   
    142. D(C  11,O  10,C   9,H  30)   -164.6025         0.018783   
    143. D(C  11,O  10,C   9,C   8)     73.7187         0.018783   
    144. D(H  32,C  11,O  10,C   9)   -177.8914         0.021282   
    145. D(O  12,C  11,O  10,C   9)      2.5406         0.021282   
    -----------------------------------------------------------------

Number of atoms                         .... 33
Number of degrees of freedom            .... 145


         *************************************************************
         *                GEOMETRY OPTIMIZATION CYCLE   1            *
         *************************************************************
---------------------------------
CARTESIAN COORDINATES (ANGSTROEM)
---------------------------------
  C      1.818481   -2.119731   -0.222023
  C      1.312028   -0.722388    0.179956
  C     -0.187131   -0.760924    0.563456
  C     -1.105854   -1.071702   -0.629698
  C     -2.551828   -0.838540   -0.266910
  C     -3.180854    0.353964   -0.375637
  C     -4.622475    0.482382    0.043535
  C     -2.497303    1.571404   -0.948047
  C      2.132123   -0.149015    1.363240
  C      3.601742    0.148171    1.022959
  O      3.716587    0.973948   -0.135639
  C      3.417796    2.339952   -0.140467
  O      3.067961    2.935573    0.913329
  H      1.247472   -2.513381   -1.086922
  H      2.878732   -2.077724   -0.542996
  H      1.724557   -2.830383    0.626769
  H      1.426511   -0.041389   -0.692021
  H     -0.353726   -1.515689    1.363915
  H     -0.474225    0.228533    0.980749
  H     -0.819140   -0.472995   -1.519707
  H     -0.998802   -2.141727   -0.904886
  H     -3.096678   -1.692837    0.126414
  H     -4.721320    1.302473    0.785373
  H     -5.011388   -0.450572    0.505130
  H     -5.244915    0.722027   -0.843891
  H     -2.205106    1.383293   -2.002271
  H     -3.178451    2.448621   -0.934836
  H     -1.597837    1.828447   -0.352258
  H      2.099002   -0.857701    2.219740
  H      1.666636    0.799013    1.709365
  H      4.149254   -0.799588    0.845124
  H      4.092748    0.642780    1.889319
  H      3.495406    2.895705   -1.064613

----------------------------
CARTESIAN COORDINATES (A.U.)
----------------------------
  NO LB      ZA    FRAG     MASS         X           Y           Z
   0 C     4.0000*   0    12.011    3.436431   -4.005711   -0.419563
   1 C     4.0000*   0    12.011    2.479374   -1.365115    0.340068
   2 C     4.0000*   0    12.011   -0.353626   -1.437938    1.064778
   3 C     4.0000*   0    12.011   -2.089761   -2.025223   -1.189957
   4 C     4.0000*   0    12.011   -4.822256   -1.584611   -0.504387
   5 C     4.0000*   0    12.011   -6.010943    0.668895   -0.709851
   6 C     4.0000*   0    12.011   -8.735212    0.911570    0.082269
   7 C     4.0000*   0    12.011   -4.719219    2.969523   -1.791549
   8 C     4.0000*   0    12.011    4.029129   -0.281598    2.576150
   9 C     4.0000*   0    12.011    6.806306    0.280003    1.933112
  10 O     6.0000*   0    15.999    7.023332    1.840495   -0.256321
  11 C     4.0000*   0    12.011    6.458698    4.421868   -0.265444
  12 O     6.0000*   0    15.999    5.797606    5.547429    1.725942
  13 H     1.0000    0     1.008    2.357380   -4.749602   -2.053985
  14 H     1.0000    0     1.008    5.440015   -3.926329   -1.026114
  15 H     1.0000    0     1.008    3.258940   -5.348649    1.184422
  16 H     1.0000    0     1.008    2.695715   -0.078214   -1.307730
  17 H     1.0000    0     1.008   -0.668445   -2.864237    2.577426
  18 H     1.0000    0     1.008   -0.896155    0.431865    1.853347
  19 H     1.0000    0     1.008   -1.547950   -0.893831   -2.871830
  20 H     1.0000    0     1.008   -1.887462   -4.047277   -1.709987
  21 H     1.0000    0     1.008   -5.851873   -3.198998    0.238888
  22 H     1.0000    0     1.008   -8.922002    2.461317    1.484140
  23 H     1.0000    0     1.008   -9.470151   -0.851458    0.954557
  24 H     1.0000    0     1.008   -9.911453    1.364433   -1.594723
  25 H     1.0000    0     1.008   -4.167046    2.614045   -3.783744
  26 H     1.0000    0     1.008   -6.006402    4.627223   -1.766584
  27 H     1.0000    0     1.008   -3.019474    3.455264   -0.665671
  28 H     1.0000    0     1.008    3.966539   -1.620820    4.194701
  29 H     1.0000    0     1.008    3.149486    1.509916    3.230232
  30 H     1.0000    0     1.008    7.840954   -1.511002    1.597053
  31 H     1.0000    0     1.008    7.734173    1.214678    3.570295
  32 H     1.0000    0     1.008    6.605360    5.472089   -2.011827
* core charge reduced due to ECP

--------------------------------
INTERNAL COORDINATES (ANGSTROEM)
--------------------------------
 C      0   0   0     0.000000000000     0.00000000     0.00000000
 C      1   0   0     1.539691273372     0.00000000     0.00000000
 C      2   1   0     1.547913104983   111.14074829     0.00000000
 C      3   2   1     1.537612234515   113.04546316   292.66099268
 C      4   3   2     1.508913668791   110.77975998   190.85452698
 C      5   4   3     1.352612678937   124.23253826    87.21680377
 C      6   5   4     1.506807040052   119.84812107   181.31418238
 C      6   5   4     1.508991494774   122.08143116     3.20967308
 C      2   1   3     1.549668813266   111.16585351   122.14647066
 C      9   2   1     1.537494937461   114.10224335    66.14810673
 O     10   9   2     1.427391450639   111.61538483    52.75713415
 C     11  10   9     1.398308370597   123.41963060    73.71869402
 O     12  11  10     1.260013854083   121.21349600     2.54055860
 H      1   2   3     1.108630633161   110.88607934    59.44691532
 H      1   2   3     1.108566839563   110.84234036   177.23202393
 H      1   2   3     1.110988677775   110.68614710   298.36078284
 H      2   1   3     1.112299367895   108.48861535   241.39341486
 H      3   2   1     1.112725801773   109.88384522    55.14980952
 H      3   2   1     1.111567167352   108.72292240   172.14277685
 H      4   3   2     1.110302215492   111.02269291   314.54750281
 H      4   3   2     1.110018948790   109.24366310    72.59678084
 H      5   4   3     1.086917041768   116.48241940   268.67383669
 H      7   6   5     1.110244657970   109.51219123   125.32233668
 H      7   6   5     1.111182447535   112.26328013     5.18228515
 H      7   6   5     1.110128904723   109.41781770   244.67865799
 H      8   6   5     1.110023908439   110.04647777    61.68492774
 H      8   6   5     1.110696535294   110.78636268   180.86602362
 H      8   6   5     1.109087337195   110.52271662   300.45500194
 H      9   2   1     1.112171343471   109.66455955   303.83409478
 H      9   2   1     1.111412502889   109.37552795   186.86539699
 H     10   9   2     1.108892149602   110.01328887   291.70160141
 H     10   9   2     1.111892352936   109.61112277   174.69040447
 H     12  11  10     1.081170910830   119.32520816   182.10864420

---------------------------
INTERNAL COORDINATES (A.U.)
---------------------------
 C      0   0   0     0.000000000000     0.00000000     0.00000000
 C      1   0   0     2.909594837462     0.00000000     0.00000000
 C      2   1   0     2.925131847525   111.14074829     0.00000000
 C      3   2   1     2.905666023399   113.04546316   292.66099268
 C      4   3   2     2.851433593745   110.77975998   190.85452698
 C      5   4   3     2.556067528460   124.23253826    87.21680377
 C      6   5   4     2.847452642362   119.84812107   181.31418238
 C      6   5   4     2.851580663540   122.08143116     3.20967308
 C      2   1   3     2.928449655352   111.16585351   122.14647066
 C      9   2   1     2.905444364092   114.10224335    66.14810673
 O     10   9   2     2.697378927609   111.61538483    52.75713415
 C     11  10   9     2.642419871198   123.41963060    73.71869402
 O     12  11  10     2.381081109164   121.21349600     2.54055860
 H      1   2   3     2.095008280349   110.88607934    59.44691532
 H      1   2   3     2.094887727921   110.84234036   177.23202393
 H      1   2   3     2.099464338882   110.68614710   298.36078284
 H      2   1   3     2.101941184255   108.48861535   241.39341486
 H      3   2   1     2.102747027499   109.88384522    55.14980952
 H      3   2   1     2.100557525753   108.72292240   172.14277685
 H      4   3   2     2.098167113166   111.02269291   314.54750281
 H      4   3   2     2.097631816676   109.24366310    72.59678084
 H      5   4   3     2.053975539233   116.48241940   268.67383669
 H      7   6   5     2.098058345212   109.51219123   125.32233668
 H      7   6   5     2.099830510662   112.26328013     5.18228515
 H      7   6   5     2.097839603276   109.41781770   244.67865799
 H      8   6   5     2.097641189054   110.04647777    61.68492774
 H      8   6   5     2.098912269601   110.78636268   180.86602362
 H      8   6   5     2.095871325898   110.52271662   300.45500194
 H      9   2   1     2.101699253155   109.66455955   303.83409478
 H      9   2   1     2.100265252276   109.37552795   186.86539699
 H     10   9   2     2.095502474804   110.01328887   291.70160141
 H     10   9   2     2.101172037450   109.61112277   174.69040447
 H     12  11  10     2.043116925431   119.32520816   182.10864420

---------------------
BASIS SET INFORMATION
---------------------
There are 3 groups of distinct atoms

 Group   1 Type C   : 6s6p2d contracted to 2s2p1d pattern {42/42/2}
 Group   2 Type O   : 6s6p2d contracted to 2s2p1d pattern {42/42/2}
 Group   3 Type H   : 8s2p contracted to 2s1p pattern {53/2}

Atom   0C    basis set group =>   1
Atom   1C    basis set group =>   1
Atom   2C    basis set group =>   1
Atom   3C    basis set group =>   1
Atom   4C    basis set group =>   1
Atom   5C    basis set group =>   1
Atom   6C    basis set group =>   1
Atom   7C    basis set group =>   1
Atom   8C    basis set group =>   1
Atom   9C    basis set group =>   1
Atom  10O    basis set group =>   2
Atom  11C    basis set group =>   1
Atom  12O    basis set group =>   2
Atom  13H    basis set group =>   3
Atom  14H    basis set group =>   3
Atom  15H    basis set group =>   3
Atom  16H    basis set group =>   3
Atom  17H    basis set group =>   3
Atom  18H    basis set group =>   3
Atom  19H    basis set group =>   3
Atom  20H    basis set group =>   3
Atom  21H    basis set group =>   3
Atom  22H    basis set group =>   3
Atom  23H    basis set group =>   3
Atom  24H    basis set group =>   3
Atom  25H    basis set group =>   3
Atom  26H    basis set group =>   3
Atom  27H    basis set group =>   3
Atom  28H    basis set group =>   3
Atom  29H    basis set group =>   3
Atom  30H    basis set group =>   3
Atom  31H    basis set group =>   3
Atom  32H    basis set group =>   3
---------------------------------
AUXILIARY/J BASIS SET INFORMATION
---------------------------------
There are 3 groups of distinct atoms

 Group   1 Type C   : 12s5p4d2f1g contracted to 6s4p3d1f1g pattern {711111/2111/211/2/1}
 Group   2 Type O   : 12s5p4d2f1g contracted to 6s4p3d1f1g pattern {711111/2111/211/2/1}
 Group   3 Type H   : 5s2p1d contracted to 3s1p1d pattern {311/2/1}

Atom   0C    basis set group =>   1
Atom   1C    basis set group =>   1
Atom   2C    basis set group =>   1
Atom   3C    basis set group =>   1
Atom   4C    basis set group =>   1
Atom   5C    basis set group =>   1
Atom   6C    basis set group =>   1
Atom   7C    basis set group =>   1
Atom   8C    basis set group =>   1
Atom   9C    basis set group =>   1
Atom  10O    basis set group =>   2
Atom  11C    basis set group =>   1
Atom  12O    basis set group =>   2
Atom  13H    basis set group =>   3
Atom  14H    basis set group =>   3
Atom  15H    basis set group =>   3
Atom  16H    basis set group =>   3
Atom  17H    basis set group =>   3
Atom  18H    basis set group =>   3
Atom  19H    basis set group =>   3
Atom  20H    basis set group =>   3
Atom  21H    basis set group =>   3
Atom  22H    basis set group =>   3
Atom  23H    basis set group =>   3
Atom  24H    basis set group =>   3
Atom  25H    basis set group =>   3
Atom  26H    basis set group =>   3
Atom  27H    basis set group =>   3
Atom  28H    basis set group =>   3
Atom  29H    basis set group =>   3
Atom  30H    basis set group =>   3
Atom  31H    basis set group =>   3
Atom  32H    basis set group =>   3
-------------------------
ECP PARAMETER INFORMATION
-------------------------

 Group 1, Type C  ECP vDZP-ECP (replacing 2 core electrons, lmax=3)
 Group 2, Type O  ECP vDZP-ECP (replacing 2 core electrons, lmax=3)

Atom   0C    ECP group =>   1
Atom   1C    ECP group =>   1
Atom   2C    ECP group =>   1
Atom   3C    ECP group =>   1
Atom   4C    ECP group =>   1
Atom   5C    ECP group =>   1
Atom   6C    ECP group =>   1
Atom   7C    ECP group =>   1
Atom   8C    ECP group =>   1
Atom   9C    ECP group =>   1
Atom  10O    ECP group =>   2
Atom  11C    ECP group =>   1
Atom  12O    ECP group =>   2



           ************************************************************
           *        Program running with 40 parallel MPI-processes    *
           *              working on a common directory               *
           ************************************************************
------------------------------------------------------------------------------
                             ORCA STARTUP CALCULATIONS
                           -- RI-GTO INTEGRALS CHOSEN --
------------------------------------------------------------------------------
------------------------------------------------------------------------------
                   ___                                                        
                  /   \      - P O W E R E D   B Y -                         
                 /     \                                                     
                 |  |  |   _    _      __       _____    __    __             
                 |  |  |  | |  | |    /  \     |  _  \  |  |  /  |          
                  \  \/   | |  | |   /    \    | | | |  |  | /  /          
                 / \  \   | |__| |  /  /\  \   | |_| |  |  |/  /          
                |  |  |   |  __  | /  /__\  \  |    /   |      \           
                |  |  |   | |  | | |   __   |  |    \   |  |\   \          
                \     /   | |  | | |  |  |  |  | |\  \  |  | \   \       
                 \___/    |_|  |_| |__|  |__|  |_| \__\ |__|  \__/        
                                                                              
                      - O R C A' S   B I G   F R I E N D -                    
                                      &                                       
                       - I N T E G R A L  F E E D E R -                       
                                                                              
 v1 FN, 2020, v2 2021, v3 2022-2024                                           
------------------------------------------------------------------------------


----------------------
SHARK INTEGRAL PACKAGE
----------------------

Number of atoms                             ...     33
Number of basis functions                   ...    269
Number of shells                            ...    125
Maximum angular momentum                    ...      2
Integral batch strategy                     ... SHARK/LIBINT Hybrid
RI-J (if used) integral strategy            ... SPLIT-RIJ (Revised 2003 algorithm where possible)
Printlevel                                  ...      1
Contraction scheme used                     ... SEGMENTED contraction
Prescreening option                         ... SCHWARTZ
   Thresh                                   ... 2.500e-11
   Tcut                                     ... 2.500e-12
   Tpresel                                  ... 2.500e-12 
Coulomb Range Separation                    ... NOT USED
Exchange Range Separation                   ... Long Range
   Mu parameter                             ... 3.000e-01
   Scaling (regular/separated)              ... 1.670e-01 8.330e-01
Multipole approximations                    ... NOT USED
Finite Nucleus Model                        ... NOT USED
CABS basis                                  ... NOT available
Auxiliary Coulomb fitting basis             ... AVAILABLE
   # of basis functions in Aux-J            ...    857
   # of shells in Aux-J                     ...    295
   Maximum angular momentum in Aux-J        ...      4
Auxiliary J/K fitting basis                 ... NOT available
Auxiliary Correlation fitting basis         ... NOT available
Auxiliary 'external' fitting basis          ... NOT available

Checking pre-screening integrals            ... done (  0.0 sec) Dimension = 125
Check shell pair data                       ... done (  0.0 sec)
Shell pair information
Shell pair cut-off parameter TPreSel        ...   2.5e-12
Total number of shell pairs                 ...      7875
Shell pairs after pre-screening             ...      7644
Total number of primitive shell pairs       ...     73628
Primitive shell pairs kept                  ...     53580
          la=0 lb=0:   2179 shell pairs
          la=1 lb=0:   2953 shell pairs
          la=1 lb=1:   1017 shell pairs
          la=2 lb=0:    837 shell pairs
          la=2 lb=1:    569 shell pairs
          la=2 lb=2:     89 shell pairs

Calculating one electron integrals          ... done (  0.0 sec)
Calculating ECP integrals                   ... done (  0.1 sec)
Calculating RI/J V-Matrix + Cholesky decomp.... done (  0.0 sec)
Calculating Nuclear repulsion               ... done (  0.0 sec) ENN=    442.514100021359 Eh

Diagonalization of the overlap matrix:
Smallest eigenvalue                        ... 1.143e-03
Time for diagonalization                   ...    0.010 sec
Threshold for overlap eigenvalues          ... 1.000e-07
Number of eigenvalues below threshold      ... 0
Time for construction of square roots      ...    0.006 sec
Total time needed                          ...    0.019 sec

-------------------
DFT GRID GENERATION
-------------------

General Integration Accuracy     IntAcc      ... 4.388
Radial Grid Type                 RadialGrid  ... OptM3 with GC (2021)
Angular Grid (max. ang.)         AngularGrid ... 4 (Lebedev-302)
Angular grid pruning method      GridPruning ... 4 (adaptive)
Weight generation scheme         WeightScheme... mBecke (2022)
Basis function cutoff            BFCut       ... 1.0000e-11
Integration weight cutoff        WCut        ... 1.0000e-14
Partially contracted basis set               ... off
Rotationally invariant grid construction     ... off
Angular grids for H and He will be reduced by one unit

Total number of grid points                  ...   141644
Total number of batches                      ...     2231
Average number of points per batch           ...       63
Average number of grid points per atom       ...     4292

--------------------
COSX GRID GENERATION
--------------------

GRIDX 1
-------
General Integration Accuracy     IntAcc      ... 3.816
Radial Grid Type                 RadialGrid  ... OptM3 with GC (2021)
Angular Grid (max. ang.)         AngularGrid ... 1 (Lebedev-50)
Angular grid pruning method      GridPruning ... 4 (adaptive)
Weight generation scheme         WeightScheme... mBecke (2022)
Basis function cutoff            BFCut       ... 1.0000e-11
Integration weight cutoff        WCut        ... 1.0000e-14
Partially contracted basis set               ... on
Rotationally invariant grid construction     ... off
Angular grids for H and He will be reduced by one unit

Total number of grid points                  ...    18069
Total number of batches                      ...      164
Average number of points per batch           ...      110
Average number of grid points per atom       ...      548
UseSFitting                                  ... on

GRIDX 2
-------
General Integration Accuracy     IntAcc      ... 4.020
Radial Grid Type                 RadialGrid  ... OptM3 with GC (2021)
Angular Grid (max. ang.)         AngularGrid ... 2 (Lebedev-110)
Angular grid pruning method      GridPruning ... 4 (adaptive)
Weight generation scheme         WeightScheme... mBecke (2022)
Basis function cutoff            BFCut       ... 1.0000e-11
Integration weight cutoff        WCut        ... 1.0000e-14
Partially contracted basis set               ... on
Rotationally invariant grid construction     ... off
Angular grids for H and He will be reduced by one unit

Total number of grid points                  ...    37788
Total number of batches                      ...      315
Average number of points per batch           ...      119
Average number of grid points per atom       ...     1145
UseSFitting                                  ... on

GRIDX 3
-------
General Integration Accuracy     IntAcc      ... 4.338
Radial Grid Type                 RadialGrid  ... OptM3 with GC (2021)
Angular Grid (max. ang.)         AngularGrid ... 3 (Lebedev-194)
Angular grid pruning method      GridPruning ... 4 (adaptive)
Weight generation scheme         WeightScheme... mBecke (2022)
Basis function cutoff            BFCut       ... 1.0000e-11
Integration weight cutoff        WCut        ... 1.0000e-14
Partially contracted basis set               ... on
Rotationally invariant grid construction     ... off
Angular grids for H and He will be reduced by one unit

Total number of grid points                  ...    82288
Total number of batches                      ...      662
Average number of points per batch           ...      124
Average number of grid points per atom       ...     2494
UseSFitting                                  ... on
Initializing property integral containers    ... done (  0.0 sec)

SHARK setup successfully completed in   4.2 seconds

Maximum memory used throughout the entire STARTUP-calculation: 43.7 MB


           ************************************************************
           *        Program running with 40 parallel MPI-processes    *
           *              working on a common directory               *
           ************************************************************
-------------------------------------------------------------------------------
                                 ORCA GUESS
                   Start orbitals & Density for SCF / CASSCF
-------------------------------------------------------------------------------

------------
SCF SETTINGS
------------
Hamiltonian:
 Density Functional     Method          .... DFT(GTOs)
 Exchange Functional    Exchange        .... WB97X-V
 Correlation Functional Correlation     .... WB97X-V
 Gradients option       PostSCFGGA      .... off
 Hybrid DFT is turned on
   Fraction HF Exchange ScalHFX         ....  0.167000
   Scaling of DF-GGA-X  ScalDFX         ....  0.000000
   Scaling of DF-GGA-C  ScalDFC         ....  1.000000
   Scaling of DF-LDA-C  ScalLDAC        ....  1.000000
   Perturbative correction              ....  0.000000
 Long-range corrected/Screened/Range-Separated Hybrid DFT is turned on
   Amount of maximum screened exact exchange              ....  0.833000
   Range separation parameter mu (erf(mu*r12)/r12)        ....  0.300000
   NL short-range parameter             ....  6.000000
   NL long-range parameter              ....  0.010000
 RI-approximation to the Coulomb term is turned on
   Number of AuxJ basis functions       .... 857
   RIJ-COSX (HFX calculated with COS-X)).... on


General Settings:
 Integral files         IntName         .... ./output/citronellyl_formate/citronellyl_formate
 Hartree-Fock type      HFTyp           .... RHF
 Total Charge           Charge          ....    0
 Multiplicity           Mult            ....    1
 Number of Electrons    NEL             ....   76
 Basis Dimension        Dim             ....  269
 Nuclear Repulsion      ENuc            ....    442.5141000214 Eh

Convergence Acceleration:
 AO-DIIS                CNVDIIS         .... on
   Start iteration      DIISMaxIt       ....    12
   Startup error        DIISStart       ....  0.200000
   # of expansion vecs  DIISMaxEq       ....     5
   Bias factor          DIISBfac        ....   1.050
   Max. coefficient     DIISMaxC        ....  10.000
 MO-DIIS                CNVKDIIS        .... off
 Trust-Rad. Augm. Hess. CNVTRAH         .... auto
   Auto Start mean grad. ratio tolernc. ....  1.125000
   Auto Start start iteration           ....    50
   Auto Start num. interpolation iter.  ....    10
   Max. Number of Micro iterations      ....    24
   Max. Number of Macro iterations      .... Maxiter - #DIIS iter
   Number of Davidson start vectors     ....     2
   Converg. threshold    (grad. norm)   ....   1.000e-05
   Grad. Scal. Fac. for Micro threshold ....   0.100
   Minimum threshold for Micro iter.    ....   1.000e-02
   NR start threshold (gradient norm)   ....   1.000e-04
   Initial trust radius                 ....   0.400
   Minimum AH scaling param. (alpha)    ....   1.000
   Maximum AH scaling param. (alpha)    .... 1000.000
   Quad. conv. algorithm                .... NR
   White noise on init. David. guess    .... on
   Maximum white noise                  ....   0.010
   Pseudo random numbers                .... off
   Inactive MOs                         .... canonical
   Orbital update algorithm             .... Taylor
   Preconditioner                       .... Diag
   Full preconditioner red. dimension   ....   250
 SOSCF                  CNVSOSCF        .... on
   Start iteration      SOSCFMaxIt      ....   150
   Startup grad/error   SOSCFStart      ....  0.003300
   Hessian update       SOSCFHessUp     .... L-BFGS
 Level Shifting         CNVShift        .... on
   Level shift para.    LevelShift      ....    0.2500
   Turn off err/grad.   ShiftErr        ....    0.0010
 Zerner damping         CNVZerner       .... off
 Static damping         CNVDamp         .... on
   Fraction old density DampFac         ....    0.7000
   Max. Damping (<1)    DampMax         ....    0.9800
   Min. Damping (>=0)   DampMin         ....    0.0000
   Turn off err/grad.   DampErr         ....    0.1000

SCF Procedure:
 Maximum # iterations   MaxIter         ....   125
 SCF integral mode      SCFMode         .... Direct
   Integral package                     .... SHARK and LIBINT hybrid scheme
 Reset frequency        DirectResetFreq ....    20
 Integral Threshold     Thresh          ....  2.500e-11 Eh
 Primitive CutOff       TCut            ....  2.500e-12 Eh

Convergence Tolerance:
 Convergence Check Mode ConvCheckMode   .... Total+1el-Energy
 Convergence forced     ConvForced      .... 0
 Energy Change          TolE            ....  1.000e-08 Eh
 1-El. energy change                    ....  1.000e-05 Eh
 Orbital Gradient       TolG            ....  1.000e-05
 Orbital Rotation angle TolX            ....  1.000e-05
 DIIS Error             TolErr          ....  5.000e-07

------------------------------
INITIAL GUESS: MODEL POTENTIAL
------------------------------
Loading Hartree-Fock densities                     ... done
Atomic calculation to generate a density for atom 0 (C  with ECP)
  Multiplicity assumed   :    1
  Atomic configuration   : 1s2 2s2 2p2 
  Number of open shells  : 1
  Command: /home/aspe232/Project/Software/ORCA/6_0_1/build/orca ./output/citronellyl_formate/citronellyl_formate_atom6.inp "" > ./output/citronellyl_formate/citronellyl_formate_atom6.out
Returned from the atomic calculation with res=0
Atomic calculation to generate a density for atom 10 (O  with ECP)
  Multiplicity assumed   :    3
  Atomic configuration   : 1s2 2s2 2p4 
  Number of open shells  : 1
  Command: /home/aspe232/Project/Software/ORCA/6_0_1/build/orca ./output/citronellyl_formate/citronellyl_formate_atom8.inp "" > ./output/citronellyl_formate/citronellyl_formate_atom8.out
Returned from the atomic calculation with res=0
Calculating cut-offs                               ... done
Initializing the effective Hamiltonian             ... done
Setting up the integral package (SHARK)            ... done
Starting the Coulomb interaction                   ... done (   0.1 sec)
Making the grid                                    ... done (   0.9 sec)
Mapping shells                                     ... done
Starting the XC term evaluation                    ... done (   0.0 sec)
  promolecular density results
     # of electrons  =    101.991674354
     EX              =    -52.289015651
     EC              =     -4.113494275
     EX+EC           =    -56.402509926
Transforming the Hamiltonian                       ... done (   0.0 sec)
Diagonalizing the Hamiltonian                      ... done (   0.0 sec)
Back transforming the eigenvectors                 ... done (   0.0 sec)
Now organizing SCF variables                       ... done
                      ------------------
                      INITIAL GUESS DONE (   2.5 sec)
                      ------------------
             **** ENERGY FILE WAS UPDATED (./output/citronellyl_formate/citronellyl_formate.en.tmp) ****
Finished Guess after   3.2 sec
Maximum memory used throughout the entire GUESS-calculation: 27.5 MB


           ************************************************************
           *        Program running with 40 parallel MPI-processes    *
           *              working on a common directory               *
           ************************************************************

-------------------------------------------------------------------------------------------
                                      ORCA LEAN-SCF
                              memory conserving SCF solver
-------------------------------------------------------------------------------------------

----------------------------------------D-I-I-S--------------------------------------------
Iteration    Energy (Eh)           Delta-E    RMSDP     MaxDP     DIISErr   Damp  Time(sec)
-------------------------------------------------------------------------------------------
               ***  Starting incremental Fock matrix formation  ***
    1    -106.2516355563526531     0.00e+00  3.31e-03  9.18e-02  2.06e-01  0.700   5.8
    2    -106.4761558861188178    -2.25e-01  2.38e-03  5.92e-02  1.12e-01  0.700   4.6
                               ***Turning on AO-DIIS***
    3    -106.5898340444638279    -1.14e-01  1.21e-03  2.72e-02  5.84e-02  0.700   4.2
    4    -106.6569001715386094    -6.71e-02  2.52e-03  5.28e-02  3.64e-02  0.000   4.5
    5    -106.7990219103259051    -1.42e-01  2.47e-04  1.30e-02  1.02e-02  0.000   4.3
    6    -106.7994502532177421    -4.28e-04  1.17e-04  7.64e-03  6.71e-03  0.000   4.5
                              *** Initializing SOSCF ***
---------------------------------------S-O-S-C-F--------------------------------------
Iteration    Energy (Eh)           Delta-E    RMSDP     MaxDP     MaxGrad    Time(sec)
--------------------------------------------------------------------------------------
    7    -106.7995679043270911    -1.18e-04  5.91e-05  2.86e-03  2.36e-03     4.0
               *** Restarting incremental Fock matrix formation ***
    8    -106.7996220403332472    -5.41e-05  3.32e-05  1.31e-03  2.60e-04     5.5
    9    -106.7996266368347733    -4.60e-06  2.68e-05  1.37e-03  3.34e-04     5.1
   10    -106.7996284146857988    -1.78e-06  8.24e-06  3.80e-04  9.04e-05     5.4
   11    -106.7996286569017457    -2.42e-07  3.68e-06  1.22e-04  4.26e-05     5.2
   12    -106.7996287008417085    -4.39e-08  1.50e-06  8.02e-05  1.34e-05     4.7
   13    -106.7996287220174736    -2.12e-08  3.98e-07  1.48e-05  2.38e-06     4.0
                  *** Gradient check signals convergence ***

               *****************************************************
               *                     SUCCESS                       *
               *           SCF CONVERGED AFTER  13 CYCLES          *
               *****************************************************

Recomputing exchange energy using gridx3       ... done (    5.747 sec)
Old exchange energy                            :    -14.722314095 Eh
New exchange energy                            :    -14.722283413 Eh
Exchange energy change after final integration :      0.000030682 Eh
Total energy after final integration           :   -106.799598040 Eh
             **** ENERGY FILE WAS UPDATED (./output/citronellyl_formate/citronellyl_formate.en.tmp) ****

----------------
TOTAL SCF ENERGY
----------------

Total Energy       :       -106.79959804017740 Eh           -2906.16481 eV

Components:
Nuclear Repulsion  :        442.51410002135901 Eh           12041.42084 eV
Electronic Energy  :       -549.31372874337649 Eh          -14947.58648 eV
One Electron Energy:      -1040.50383468607356 Eh          -28313.54877 eV
Two Electron Energy:        491.19010594269702 Eh           13365.96230 eV

Virial components:
Potential Energy   :       -189.93635571974613 Eh           -5168.43100 eV
Kinetic Energy     :         83.13675767956875 Eh            2262.26619 eV
Virial Ratio       :          2.28462548962772

DFT components:
N(Alpha)           :       37.999954983443 electrons
N(Beta)            :       37.999954983443 electrons
N(Total)           :       75.999909966886 electrons
E(X)               :      -15.973210782828 Eh       
E(C)               :       -2.860451128534 Eh       
E(XC)              :      -18.833661911362 Eh       

---------------
SCF CONVERGENCE
---------------

  Last Energy change         ...    2.1176e-08  Tolerance :   1.0000e-08
  Last MAX-Density change    ...    1.4804e-05  Tolerance :   1.0000e-07
  Last RMS-Density change    ...    3.9849e-07  Tolerance :   5.0000e-09
  Last DIIS Error            ...    2.3589e-03  Tolerance :   5.0000e-07
  Last Orbital Gradient      ...    2.3835e-06  Tolerance :   1.0000e-05
  Last Orbital Rotation      ...    6.7265e-06  Tolerance :   1.0000e-05


----------------
ORBITAL ENERGIES
----------------

  NO   OCC          E(Eh)            E(eV) 
   0   2.0000      -1.218417       -33.1548 
   1   2.0000      -1.130941       -30.7745 
   2   2.0000      -0.965091       -26.2615 
   3   2.0000      -0.945927       -25.7400 
   4   2.0000      -0.900579       -24.5060 
   5   2.0000      -0.865714       -23.5573 
   6   2.0000      -0.823454       -22.4073 
   7   2.0000      -0.810470       -22.0540 
   8   2.0000      -0.796371       -21.6704 
   9   2.0000      -0.744478       -20.2583 
  10   2.0000      -0.712199       -19.3799 
  11   2.0000      -0.686077       -18.6691 
  12   2.0000      -0.646197       -17.5839 
  13   2.0000      -0.629779       -17.1371 
  14   2.0000      -0.607335       -16.5264 
  15   2.0000      -0.593592       -16.1525 
  16   2.0000      -0.585022       -15.9193 
  17   2.0000      -0.576323       -15.6825 
  18   2.0000      -0.558301       -15.1921 
  19   2.0000      -0.544357       -14.8127 
  20   2.0000      -0.542480       -14.7616 
  21   2.0000      -0.523561       -14.2468 
  22   2.0000      -0.519536       -14.1373 
  23   2.0000      -0.507184       -13.8012 
  24   2.0000      -0.500427       -13.6173 
  25   2.0000      -0.494753       -13.4629 
  26   2.0000      -0.479769       -13.0552 
  27   2.0000      -0.475428       -12.9371 
  28   2.0000      -0.465837       -12.6761 
  29   2.0000      -0.460893       -12.5415 
  30   2.0000      -0.450511       -12.2590 
  31   2.0000      -0.442594       -12.0436 
  32   2.0000      -0.428133       -11.6501 
  33   2.0000      -0.421781       -11.4773 
  34   2.0000      -0.419611       -11.4182 
  35   2.0000      -0.404092       -10.9959 
  36   2.0000      -0.397129       -10.8064 
  37   2.0000      -0.324659        -8.8344 
  38   0.0000       0.054670         1.4877 
  39   0.0000       0.083565         2.2739 
  40   0.0000       0.090306         2.4574 
  41   0.0000       0.093238         2.5371 
  42   0.0000       0.095012         2.5854 
  43   0.0000       0.103643         2.8203 
  44   0.0000       0.111728         3.0403 
  45   0.0000       0.115328         3.1382 
  46   0.0000       0.127072         3.4578 
  47   0.0000       0.135242         3.6801 
  48   0.0000       0.139080         3.7845 
*Only the first 10 virtual orbitals were printed.

                    ********************************
                    * MULLIKEN POPULATION ANALYSIS *
                    ********************************

-----------------------
MULLIKEN ATOMIC CHARGES
-----------------------
   0 C :   -0.064333
   1 C :   -0.096195
   2 C :   -0.054125
   3 C :   -0.080609
   4 C :   -0.025988
   5 C :   -0.069104
   6 C :   -0.082982
   7 C :   -0.097819
   8 C :   -0.065479
   9 C :    0.104046
  10 O :   -0.306808
  11 C :    0.339578
  12 O :   -0.351034
  13 H :    0.035424
  14 H :    0.034355
  15 H :    0.035161
  16 H :    0.047637
  17 H :    0.040964
  18 H :    0.028819
  19 H :    0.032139
  20 H :    0.045688
  21 H :    0.009107
  22 H :    0.045628
  23 H :    0.036205
  24 H :    0.048398
  25 H :    0.055742
  26 H :    0.038478
  27 H :    0.048933
  28 H :    0.044813
  29 H :    0.065348
  30 H :    0.056340
  31 H :    0.059294
  32 H :    0.042378
Sum of atomic charges:    0.0000000

--------------------------------
MULLIKEN REDUCED ORBITAL CHARGES
--------------------------------
  0 C s       :     0.959893  s :     0.959893
      pz      :     1.034054  p :     3.031119
      px      :     1.031907
      py      :     0.965158
      dz2     :     0.009336  d :     0.073321
      dxz     :     0.011284
      dyz     :     0.022830
      dx2y2   :     0.020365
      dxy     :     0.009505

  1 C s       :     1.057912  s :     1.057912
      pz      :     1.003869  p :     2.916381
      px      :     0.944024
      py      :     0.968488
      dz2     :     0.019504  d :     0.121902
      dxz     :     0.021888
      dyz     :     0.030848
      dx2y2   :     0.027865
      dxy     :     0.021797

  2 C s       :     1.010492  s :     1.010492
      pz      :     0.984927  p :     2.944434
      px      :     0.914182
      py      :     1.045325
      dz2     :     0.014870  d :     0.099199
      dxz     :     0.021108
      dyz     :     0.024606
      dx2y2   :     0.024350
      dxy     :     0.014265

  3 C s       :     0.991707  s :     0.991707
      pz      :     0.985636  p :     2.988071
      px      :     0.950474
      py      :     1.051961
      dz2     :     0.018568  d :     0.100831
      dxz     :     0.024054
      dyz     :     0.018891
      dx2y2   :     0.026618
      dxy     :     0.012701

  4 C s       :     1.031126  s :     1.031126
      pz      :     1.003547  p :     2.903187
      px      :     0.928004
      py      :     0.971635
      dz2     :     0.004857  d :     0.091675
      dxz     :     0.015231
      dyz     :     0.016013
      dx2y2   :     0.026813
      dxy     :     0.028760

  5 C s       :     1.097650  s :     1.097650
      pz      :     0.959055  p :     2.851784
      px      :     0.924630
      py      :     0.968099
      dz2     :     0.009436  d :     0.119671
      dxz     :     0.018078
      dyz     :     0.024410
      dx2y2   :     0.035681
      dxy     :     0.032066

  6 C s       :     0.960011  s :     0.960011
      pz      :     1.031269  p :     3.047030
      px      :     0.965681
      py      :     1.050080
      dz2     :     0.007067  d :     0.075941
      dxz     :     0.020692
      dyz     :     0.017841
      dx2y2   :     0.017508
      dxy     :     0.012833

  7 C s       :     0.955096  s :     0.955096
      pz      :     1.038440  p :     3.069664
      px      :     1.029634
      py      :     1.001589
      dz2     :     0.017603  d :     0.073059
      dxz     :     0.012374
      dyz     :     0.010413
      dx2y2   :     0.012418
      dxy     :     0.020252

  8 C s       :     1.003434  s :     1.003434
      pz      :     0.999060  p :     2.968388
      px      :     0.921628
      py      :     1.047699
      dz2     :     0.016620  d :     0.093657
      dxz     :     0.016333
      dyz     :     0.022301
      dx2y2   :     0.020721
      dxy     :     0.017683

  9 C s       :     1.027963  s :     1.027963
      pz      :     0.806571  p :     2.731544
      px      :     0.996213
      py      :     0.928759
      dz2     :     0.029835  d :     0.136447
      dxz     :     0.030513
      dyz     :     0.027932
      dx2y2   :     0.018953
      dxy     :     0.029215

 10 O s       :     1.695671  s :     1.695671
      pz      :     1.570534  p :     4.575187
      px      :     1.751765
      py      :     1.252887
      dz2     :     0.009793  d :     0.035951
      dxz     :     0.003690
      dyz     :     0.007855
      dx2y2   :     0.007443
      dxy     :     0.007170

 11 C s       :     1.120704  s :     1.120704
      pz      :     0.872339  p :     2.324208
      px      :     0.714144
      py      :     0.737725
      dz2     :     0.058218  d :     0.215510
      dxz     :     0.021172
      dyz     :     0.061522
      dx2y2   :     0.034397
      dxy     :     0.040202

 12 O s       :     1.801366  s :     1.801366
      pz      :     1.429814  p :     4.515667
      px      :     1.398874
      py      :     1.686978
      dz2     :     0.008769  d :     0.034001
      dxz     :     0.009449
      dyz     :     0.009529
      dx2y2   :     0.002935
      dxy     :     0.003319

 13 H s       :     0.919869  s :     0.919869
      pz      :     0.018394  p :     0.044707
      px      :     0.014329
      py      :     0.011983

 14 H s       :     0.921181  s :     0.921181
      pz      :     0.011762  p :     0.044464
      px      :     0.022340
      py      :     0.010362

 15 H s       :     0.921989  s :     0.921989
      pz      :     0.017435  p :     0.042851
      px      :     0.010019
      py      :     0.015397

 16 H s       :     0.912258  s :     0.912258
      pz      :     0.017424  p :     0.040106
      px      :     0.008841
      py      :     0.013841

 17 H s       :     0.918091  s :     0.918091
      pz      :     0.016086  p :     0.040945
      px      :     0.009100
      py      :     0.015759

 18 H s       :     0.928736  s :     0.928736
      pz      :     0.011583  p :     0.042446
      px      :     0.010430
      py      :     0.020432

 19 H s       :     0.924469  s :     0.924469
      pz      :     0.018869  p :     0.043392
      px      :     0.010507
      py      :     0.014016

 20 H s       :     0.910936  s :     0.910936
      pz      :     0.010388  p :     0.043376
      px      :     0.010999
      py      :     0.021988

 21 H s       :     0.941774  s :     0.941774
      pz      :     0.015880  p :     0.049118
      px      :     0.014380
      py      :     0.018858

 22 H s       :     0.910555  s :     0.910555
      pz      :     0.016225  p :     0.043817
      px      :     0.010313
      py      :     0.017279

 23 H s       :     0.920318  s :     0.920318
      pz      :     0.012443  p :     0.043477
      px      :     0.011552
      py      :     0.019482

 24 H s       :     0.907785  s :     0.907785
      pz      :     0.018323  p :     0.043817
      px      :     0.014735
      py      :     0.010759

 25 H s       :     0.899610  s :     0.899610
      pz      :     0.022551  p :     0.044647
      px      :     0.011506
      py      :     0.010591

 26 H s       :     0.917536  s :     0.917536
      pz      :     0.010276  p :     0.043986
      px      :     0.014798
      py      :     0.018912

 27 H s       :     0.906105  s :     0.906105
      pz      :     0.014230  p :     0.044962
      px      :     0.019489
      py      :     0.011244

 28 H s       :     0.912787  s :     0.912787
      pz      :     0.017563  p :     0.042400
      px      :     0.009631
      py      :     0.015206

 29 H s       :     0.891921  s :     0.891921
      pz      :     0.010312  p :     0.042732
      px      :     0.011228
      py      :     0.021191

 30 H s       :     0.902632  s :     0.902632
      pz      :     0.006982  p :     0.041028
      px      :     0.014025
      py      :     0.020022

 31 H s       :     0.899633  s :     0.899633
      pz      :     0.016723  p :     0.041073
      px      :     0.012742
      py      :     0.011608

 32 H s       :     0.914591  s :     0.914591
      pz      :     0.022518  p :     0.043031
      px      :     0.008613
      py      :     0.011901



                     *******************************
                     * LOEWDIN POPULATION ANALYSIS *
                     *******************************

----------------------
LOEWDIN ATOMIC CHARGES
----------------------
   0 C :   -0.114480
   1 C :   -0.074954
   2 C :   -0.077457
   3 C :   -0.093729
   4 C :   -0.058795
   5 C :   -0.054915
   6 C :   -0.119884
   7 C :   -0.115108
   8 C :   -0.078062
   9 C :   -0.032386
  10 O :   -0.056135
  11 C :    0.073717
  12 O :   -0.189616
  13 H :    0.046457
  14 H :    0.043765
  15 H :    0.045018
  16 H :    0.044275
  17 H :    0.047445
  18 H :    0.046668
  19 H :    0.046365
  20 H :    0.047328
  21 H :    0.032847
  22 H :    0.050188
  23 H :    0.054224
  24 H :    0.050924
  25 H :    0.053570
  26 H :    0.052856
  27 H :    0.051960
  28 H :    0.054412
  29 H :    0.052609
  30 H :    0.058641
  31 H :    0.056369
  32 H :    0.055881

-------------------------------
LOEWDIN REDUCED ORBITAL CHARGES
-------------------------------
  0 C s       :     0.778297  s :     0.778297
      pz      :     1.057289  p :     3.094314
      px      :     1.050645
      py      :     0.986380
      dz2     :     0.029950  d :     0.241869
      dxz     :     0.037011
      dyz     :     0.077310
      dx2y2   :     0.065889
      dxy     :     0.031709

  1 C s       :     0.760485  s :     0.760485
      pz      :     1.001049  p :     2.935383
      px      :     0.953279
      py      :     0.981055
      dz2     :     0.060795  d :     0.379085
      dxz     :     0.066152
      dyz     :     0.097769
      dx2y2   :     0.085670
      dxy     :     0.068699

  2 C s       :     0.767175  s :     0.767175
      pz      :     0.995165  p :     2.992143
      px      :     0.944339
      py      :     1.052638
      dz2     :     0.048273  d :     0.318140
      dxz     :     0.065618
      dyz     :     0.080806
      dx2y2   :     0.076977
      dxy     :     0.046464

  3 C s       :     0.761245  s :     0.761245
      pz      :     1.001665  p :     3.015047
      px      :     0.962960
      py      :     1.050423
      dz2     :     0.058331  d :     0.317437
      dxz     :     0.072695
      dyz     :     0.062845
      dx2y2   :     0.081540
      dxy     :     0.042027

  4 C s       :     0.806983  s :     0.806983
      pz      :     0.930797  p :     2.952213
      px      :     0.978149
      py      :     1.043267
      dz2     :     0.019832  d :     0.299598
      dxz     :     0.047308
      dyz     :     0.043898
      dx2y2   :     0.086904
      dxy     :     0.101656

  5 C s       :     0.801200  s :     0.801200
      pz      :     0.886400  p :     2.874567
      px      :     0.970626
      py      :     1.017540
      dz2     :     0.034823  d :     0.379148
      dxz     :     0.055546
      dyz     :     0.070121
      dx2y2   :     0.113480
      dxy     :     0.105179

  6 C s       :     0.778435  s :     0.778435
      pz      :     1.054777  p :     3.098541
      px      :     0.982382
      py      :     1.061382
      dz2     :     0.022166  d :     0.242907
      dxz     :     0.065906
      dyz     :     0.057083
      dx2y2   :     0.053962
      dxy     :     0.043790

  7 C s       :     0.775900  s :     0.775900
      pz      :     1.052707  p :     3.104481
      px      :     1.045726
      py      :     1.006048
      dz2     :     0.057145  d :     0.234727
      dxz     :     0.040936
      dyz     :     0.030499
      dx2y2   :     0.040533
      dxy     :     0.065614

  8 C s       :     0.770050  s :     0.770050
      pz      :     1.002838  p :     3.004075
      px      :     0.950479
      py      :     1.050758
      dz2     :     0.052977  d :     0.303936
      dxz     :     0.054877
      dyz     :     0.072869
      dx2y2   :     0.063624
      dxy     :     0.059590

  9 C s       :     0.770233  s :     0.770233
      pz      :     0.872181  p :     2.851183
      px      :     1.017281
      py      :     0.961720
      dz2     :     0.095110  d :     0.410970
      dxz     :     0.088429
      dyz     :     0.083963
      dx2y2   :     0.055234
      dxy     :     0.088236

 10 O s       :     1.403529  s :     1.403529
      pz      :     1.557439  p :     4.554718
      px      :     1.654834
      py      :     1.342444
      dz2     :     0.023880  d :     0.097888
      dxz     :     0.010015
      dyz     :     0.024705
      dx2y2   :     0.021965
      dxy     :     0.017322

 11 C s       :     0.813145  s :     0.813145
      pz      :     0.987575  p :     2.524334
      px      :     0.706749
      py      :     0.830010
      dz2     :     0.156898  d :     0.588804
      dxz     :     0.053768
      dyz     :     0.174207
      dx2y2   :     0.099358
      dxy     :     0.104573

 12 O s       :     1.572136  s :     1.572136
      pz      :     1.525260  p :     4.550151
      px      :     1.369679
      py      :     1.655213
      dz2     :     0.020426  d :     0.067329
      dxz     :     0.014955
      dyz     :     0.020979
      dx2y2   :     0.005334
      dxy     :     0.005635

 13 H s       :     0.804242  s :     0.804242
      pz      :     0.055934  p :     0.149301
      px      :     0.050300
      py      :     0.043067

 14 H s       :     0.806595  s :     0.806595
      pz      :     0.043778  p :     0.149640
      px      :     0.065617
      py      :     0.040245

 15 H s       :     0.809866  s :     0.809866
      pz      :     0.054656  p :     0.145116
      px      :     0.040166
      py      :     0.050294

 16 H s       :     0.805311  s :     0.805311
      pz      :     0.059233  p :     0.150414
      px      :     0.039609
      py      :     0.051572

 17 H s       :     0.807907  s :     0.807907
      pz      :     0.055430  p :     0.144647
      px      :     0.036844
      py      :     0.052373

 18 H s       :     0.806158  s :     0.806158
      pz      :     0.045540  p :     0.147173
      px      :     0.038577
      py      :     0.063057

 19 H s       :     0.806459  s :     0.806459
      pz      :     0.058432  p :     0.147176
      px      :     0.039245
      py      :     0.049500

 20 H s       :     0.803812  s :     0.803812
      pz      :     0.041745  p :     0.148859
      px      :     0.040886
      py      :     0.066227

 21 H s       :     0.811905  s :     0.811905
      pz      :     0.052473  p :     0.155248
      px      :     0.047168
      py      :     0.055606

 22 H s       :     0.803177  s :     0.803177
      pz      :     0.051593  p :     0.146634
      px      :     0.039636
      py      :     0.055406

 23 H s       :     0.804241  s :     0.804241
      pz      :     0.043639  p :     0.141535
      px      :     0.039133
      py      :     0.058763

 24 H s       :     0.802063  s :     0.802063
      pz      :     0.056355  p :     0.147013
      px      :     0.048639
      py      :     0.042018

 25 H s       :     0.798357  s :     0.798357
      pz      :     0.064175  p :     0.148073
      px      :     0.043332
      py      :     0.040566

 26 H s       :     0.802354  s :     0.802354
      pz      :     0.040783  p :     0.144791
      px      :     0.048978
      py      :     0.055030

 27 H s       :     0.799622  s :     0.799622
      pz      :     0.047886  p :     0.148419
      px      :     0.059213
      py      :     0.041319

 28 H s       :     0.800546  s :     0.800546
      pz      :     0.057189  p :     0.145042
      px      :     0.036987
      py      :     0.050865

 29 H s       :     0.797954  s :     0.797954
      pz      :     0.042645  p :     0.149437
      px      :     0.043681
      py      :     0.063111

[...]
 53:   1296.84   0.000438    2.21  0.000105  (-0.002489  0.008977 -0.004317)
 54:   1319.74   0.010230   51.70  0.002419  ( 0.015791  0.045495 -0.009989)
 55:   1343.62   0.016418   82.97  0.003813  (-0.021855 -0.057753 -0.000438)
 56:   1354.18   0.001140    5.76  0.000263  ( 0.011109  0.011231  0.003612)
 57:   1370.30   0.000855    4.32  0.000195  ( 0.004137  0.011983  0.005832)
 58:   1407.58   0.000846    4.28  0.000188  ( 0.011551 -0.006340  0.003745)
 59:   1413.65   0.000369    1.86  0.000081  ( 0.003061  0.007744 -0.003477)
 60:   1427.30   0.000389    1.97  0.000085  (-0.005865 -0.002437  0.006685)
 61:   1437.28   0.000054    0.27  0.000012  ( 0.002337 -0.000583  0.002429)
 62:   1446.74   0.000704    3.56  0.000152  ( 0.003173 -0.011005 -0.004553)
 63:   1450.52   0.000861    4.35  0.000185  (-0.009890 -0.004590  0.008140)
 64:   1452.08   0.001229    6.21  0.000264  (-0.001031  0.012580  0.010238)
 65:   1459.39   0.002458   12.42  0.000526  ( 0.005793  0.016330 -0.015011)
 66:   1460.99   0.002559   12.93  0.000547  ( 0.014780 -0.018111  0.000416)
 67:   1501.89   0.000161    0.81  0.000033  (-0.003254 -0.002711 -0.003933)
 68:   1503.75   0.000046    0.23  0.000010  (-0.000519 -0.000984 -0.002882)
 69:   1509.51   0.001061    5.36  0.000219  (-0.013002 -0.002038  0.006789)
 70:   1517.77   0.000939    4.75  0.000193  (-0.009957  0.008359 -0.004908)
 71:   1522.22   0.004051   20.47  0.000830  ( 0.007640  0.013209  0.024445)
 72:   1525.19   0.001715    8.67  0.000351  ( 0.003687  0.006416  0.017208)
 73:   1527.25   0.001148    5.80  0.000235  ( 0.003846  0.011290 -0.009613)
 74:   1528.30   0.002714   13.72  0.000554  (-0.009113  0.008917 -0.019790)
 75:   1536.73   0.001646    8.32  0.000334  ( 0.012308 -0.000673 -0.013500)
 76:   1548.01   0.002666   13.47  0.000537  ( 0.017539 -0.003870 -0.014660)
 77:   1808.80   0.000659    3.33  0.000114  (-0.006737  0.007468 -0.003535)
 78:   1869.19   0.070042  353.96  0.011694  ( 0.002817  0.089531  0.060579)
 79:   3076.85   0.002820   14.25  0.000286  ( 0.004280 -0.001494 -0.016293)
 80:   3087.64   0.001077    5.44  0.000109  ( 0.001164  0.006790 -0.007835)
 81:   3093.73   0.006916   34.95  0.000698  ( 0.025359 -0.000036 -0.007386)
 82:   3096.01   0.003393   17.15  0.000342  ( 0.005982 -0.009034 -0.014987)
 83:   3099.46   0.008111   40.99  0.000817  ( 0.002654 -0.021912  0.018151)
 84:   3099.75   0.007240   36.59  0.000729  ( 0.016988 -0.020782  0.002899)
 85:   3110.65   0.005306   26.82  0.000532  (-0.007401  0.006599  0.020833)
 86:   3132.89   0.002709   13.69  0.000270  (-0.002974  0.015903  0.002847)
 87:   3141.83   0.008144   41.16  0.000809  ( 0.007917  0.012156 -0.024464)
 88:   3151.08   0.002822   14.26  0.000279  (-0.012094  0.007867 -0.008447)
 89:   3164.10   0.001628    8.23  0.000161  ( 0.006818 -0.010426  0.002332)
 90:   3167.16   0.005523   27.91  0.000544  (-0.005339  0.019670 -0.011350)
 91:   3168.74   0.000125    0.63  0.000012  (-0.001255  0.002385 -0.002248)
 92:   3169.84   0.004361   22.04  0.000429  (-0.005063 -0.011968 -0.016139)
 93:   3185.76   0.004271   21.58  0.000418  (-0.011164 -0.004141  0.016630)
 94:   3194.45   0.003140   15.87  0.000307  ( 0.007394  0.012842 -0.009338)
 95:   3202.04   0.004317   21.82  0.000421  ( 0.016873  0.005935  0.010042)
 96:   3206.61   0.004273   21.60  0.000416  ( 0.002129  0.017497 -0.010257)
 97:   3221.64   0.001369    6.92  0.000133  (-0.003688  0.010149  0.004005)
 98:   3227.97   0.003214   16.24  0.000311  ( 0.016285  0.002796 -0.006139)

* The epsilon (eps) is given for a Dirac delta lineshape.
** The dipole moment derivative (T) already includes vibrational overlap.

The first frequency considered to be a vibration is 6
The total number of vibrations considered is 93


--------------------------
THERMOCHEMISTRY AT 298.15K
--------------------------

Temperature         ...   298.15 K
Pressure            ...     1.00 atm
Total Mass          ...   184.28 AMU
Quasi RRHO          ...     True
Cut-Off Frequency   ...     1.00 cm^-1

Throughout the following assumptions are being made:
  (1) The electronic state is orbitally nondegenerate
  (2) There are no thermally accessible electronically excited states
  (3) Hindered rotations indicated by low frequency modes are not
      treated as such but are treated as vibrations and this may
      cause some error
  (4) All equations used are the standard statistical mechanics
      equations for an ideal gas
  (5) All vibrations are strictly harmonic

freq.      15.43  E(vib)   ...       0.57 
freq.      19.45  E(vib)   ...       0.57 
freq.      38.71  E(vib)   ...       0.54 
freq.      54.27  E(vib)   ...       0.52 
freq.      70.12  E(vib)   ...       0.50 
freq.      91.55  E(vib)   ...       0.47 
freq.     123.37  E(vib)   ...       0.43 
freq.     132.82  E(vib)   ...       0.42 
freq.     169.20  E(vib)   ...       0.38 
freq.     190.71  E(vib)   ...       0.36 
freq.     228.34  E(vib)   ...       0.32 
freq.     254.75  E(vib)   ...       0.30 
freq.     278.18  E(vib)   ...       0.28 
freq.     299.24  E(vib)   ...       0.26 
freq.     314.09  E(vib)   ...       0.25 
freq.     372.84  E(vib)   ...       0.21 
freq.     393.11  E(vib)   ...       0.20 
freq.     404.44  E(vib)   ...       0.19 
freq.     443.94  E(vib)   ...       0.17 
freq.     449.14  E(vib)   ...       0.17 
freq.     494.12  E(vib)   ...       0.14 
freq.     558.04  E(vib)   ...       0.12 
freq.     583.79  E(vib)   ...       0.11 
freq.     766.22  E(vib)   ...       0.06 
freq.     789.57  E(vib)   ...       0.05 
freq.     814.15  E(vib)   ...       0.05 
freq.     832.83  E(vib)   ...       0.04 
freq.     869.84  E(vib)   ...       0.04 
freq.     883.10  E(vib)   ...       0.04 
freq.     951.27  E(vib)   ...       0.03 
freq.     967.38  E(vib)   ...       0.03 
freq.     981.20  E(vib)   ...       0.02 
freq.     985.84  E(vib)   ...       0.02 
freq.    1033.78  E(vib)   ...       0.02 
freq.    1046.16  E(vib)   ...       0.02 
freq.    1052.08  E(vib)   ...       0.02 
freq.    1068.64  E(vib)   ...       0.02 
freq.    1069.02  E(vib)   ...       0.02 
freq.    1100.62  E(vib)   ...       0.02 
freq.    1128.84  E(vib)   ...       0.01 
freq.    1135.58  E(vib)   ...       0.01 
freq.    1170.77  E(vib)   ...       0.01 
freq.    1182.47  E(vib)   ...       0.01 
freq.    1204.14  E(vib)   ...       0.01 
freq.    1224.87  E(vib)   ...       0.01 
freq.    1259.57  E(vib)   ...       0.01 
freq.    1279.00  E(vib)   ...       0.01 
freq.    1296.84  E(vib)   ...       0.01 
freq.    1319.74  E(vib)   ...       0.01 
freq.    1343.62  E(vib)   ...       0.01 
freq.    1354.18  E(vib)   ...       0.01 
freq.    1370.30  E(vib)   ...       0.01 
freq.    1407.58  E(vib)   ...       0.00 
freq.    1413.65  E(vib)   ...       0.00 
freq.    1427.30  E(vib)   ...       0.00 
freq.    1437.28  E(vib)   ...       0.00 
freq.    1446.74  E(vib)   ...       0.00 
freq.    1450.52  E(vib)   ...       0.00 
freq.    1452.08  E(vib)   ...       0.00 
freq.    1459.39  E(vib)   ...       0.00 
freq.    1460.99  E(vib)   ...       0.00 
freq.    1501.89  E(vib)   ...       0.00 
freq.    1503.75  E(vib)   ...       0.00 
freq.    1509.51  E(vib)   ...       0.00 
freq.    1517.77  E(vib)   ...       0.00 
freq.    1522.22  E(vib)   ...       0.00 
freq.    1525.19  E(vib)   ...       0.00 
freq.    1527.25  E(vib)   ...       0.00 
freq.    1528.30  E(vib)   ...       0.00 
freq.    1536.73  E(vib)   ...       0.00 
freq.    1548.01  E(vib)   ...       0.00 
freq.    1808.80  E(vib)   ...       0.00 
freq.    1869.19  E(vib)   ...       0.00 
freq.    3076.85  E(vib)   ...       0.00 
freq.    3087.64  E(vib)   ...       0.00 
freq.    3093.73  E(vib)   ...       0.00 
freq.    3096.01  E(vib)   ...       0.00 
freq.    3099.46  E(vib)   ...       0.00 
freq.    3099.75  E(vib)   ...       0.00 
freq.    3110.65  E(vib)   ...       0.00 
freq.    3132.89  E(vib)   ...       0.00 
freq.    3141.83  E(vib)   ...       0.00 
freq.    3151.08  E(vib)   ...       0.00 
freq.    3164.10  E(vib)   ...       0.00 
freq.    3167.16  E(vib)   ...       0.00 
freq.    3168.74  E(vib)   ...       0.00 
freq.    3169.84  E(vib)   ...       0.00 
freq.    3185.76  E(vib)   ...       0.00 
freq.    3194.45  E(vib)   ...       0.00 
freq.    3202.04  E(vib)   ...       0.00 
freq.    3206.61  E(vib)   ...       0.00 
freq.    3221.64  E(vib)   ...       0.00 
freq.    3227.97  E(vib)   ...       0.00 

------------
INNER ENERGY
------------

The inner energy is: U= E(el) + E(ZPE) + E(vib) + E(rot) + E(trans)
    E(el)   - is the total energy from the electronic structure calculation
              = E(kin-el) + E(nuc-el) + E(el-el) + E(nuc-nuc)
    E(ZPE)  - the the zero temperature vibrational energy from the frequency calculation
    E(vib)  - the the finite temperature correction to E(ZPE) due to population
              of excited vibrational states
    E(rot)  - is the rotational thermal energy
    E(trans)- is the translational thermal energy

Summary of contributions to the inner energy U:
Electronic energy                ...   -106.86242945 Eh
Zero point energy                ...      0.30143249 Eh     189.15 kcal/mol
Thermal vibrational correction   ...      0.01299524 Eh       8.15 kcal/mol
Thermal rotational correction    ...      0.00141627 Eh       0.89 kcal/mol
Thermal translational correction ...      0.00141627 Eh       0.89 kcal/mol
-----------------------------------------------------------------------
Total thermal energy                   -106.54516918 Eh


Summary of corrections to the electronic energy:
(perhaps to be used in another calculation)
Total thermal correction                  0.01582779 Eh       9.93 kcal/mol
Non-thermal (ZPE) correction              0.30143249 Eh     189.15 kcal/mol
-----------------------------------------------------------------------
Total correction                          0.31726027 Eh     199.08 kcal/mol


--------
ENTHALPY
--------

The enthalpy is H = U + kB*T
                kB is Boltzmann's constant
Total thermal energy              ...   -106.54516918 Eh 
Thermal Enthalpy correction       ...      0.00094421 Eh       0.59 kcal/mol
-----------------------------------------------------------------------
Total Enthalpy                    ...   -106.54422497 Eh


Note: Only C1 symmetry has been detected, increase convergence thresholds 
      if your molecule has a higher symmetry. Symmetry factor of 1.0 is   
      used for the rotational entropy correction. 
 

Note: Rotational entropy computed according to Herzberg 
Infrared and Raman Spectra, Chapter V,1, Van Nostrand Reinhold, 1945 
Point Group:  C1, Symmetry Number:   1  
Rotational constants in cm-1:     0.045662     0.009002     0.008116 

Vibrational entropy computed according to the QRRHO of S. Grimme
Chem.Eur.J. 2012 18 9955 using a reference frequency of 100.0 cm-1


-------
ENTROPY
-------

The entropy contributions are T*S = T*(S(el)+S(vib)+S(rot)+S(trans))
     S(el)   - electronic entropy
     S(vib)  - vibrational entropy
     S(rot)  - rotational entropy
     S(trans)- translational entropy
The entropies will be listed as multiplied by the temperature to get
units of energy

Electronic entropy                ...      0.00000000 Eh      0.00 kcal/mol
Vibrational entropy               ...      0.02401246 Eh     15.07 kcal/mol
Rotational entropy                ...      0.01546418 Eh      9.70 kcal/mol
Translational entropy             ...      0.01973698 Eh     12.39 kcal/mol
-----------------------------------------------------------------------
Final entropy term                ...      0.05921362 Eh     37.16 kcal/mol

In case the symmetry of your molecule has not been determined correctly
or in case you have a reason to use a different symmetry number we print 
out the resulting rotational entropy values for sn=1,12:

 non-linear molecules -----------------------------------
|  sn= 1 | S(rot)=       0.01546418 Eh      9.70 kcal/mol|
|  sn= 2 | S(rot)=       0.01480972 Eh      9.29 kcal/mol|
|  sn= 3 | S(rot)=       0.01442689 Eh      9.05 kcal/mol|
|  sn= 4 | S(rot)=       0.01415527 Eh      8.88 kcal/mol|
|  sn= 5 | S(rot)=       0.01394458 Eh      8.75 kcal/mol|
|  sn= 6 | S(rot)=       0.01377243 Eh      8.64 kcal/mol|
|  sn= 7 | S(rot)=       0.01362689 Eh      8.55 kcal/mol|
|  sn= 8 | S(rot)=       0.01350081 Eh      8.47 kcal/mol|
|  sn= 9 | S(rot)=       0.01338960 Eh      8.40 kcal/mol|
|  sn=10 | S(rot)=       0.01329012 Eh      8.34 kcal/mol|
|  sn=11 | S(rot)=       0.01320013 Eh      8.28 kcal/mol|
|  sn=12 | S(rot)=       0.01311798 Eh      8.23 kcal/mol|
 linear molecules ---------------------------------------
|  Dinfh | S(rot)=       0.00987098 Eh      6.19 kcal/mol|
|  Cinfv | S(rot)=       0.01052544 Eh      6.60 kcal/mol|
 --------------------------------------------------------


-------------------
GIBBS FREE ENERGY
-------------------

The Gibbs free energy is G = H - T*S

Total enthalpy                    ...   -106.54422497 Eh 
Total entropy correction          ...     -0.05921362 Eh    -37.16 kcal/mol
-----------------------------------------------------------------------
Final Gibbs free energy         ...   -106.60343860 Eh

For completeness - the Gibbs free energy minus the electronic energy
G-E(el)                           ...      0.25899086 Eh    162.52 kcal/mol


Maximum memory used throughout the entire PROP-calculation: 176.6 MB

--------------------------------
SUGGESTED CITATIONS FOR THIS RUN
--------------------------------

Below you find a list of papers that are relevant to this ORCA run
We neither can nor want to force you to cite these papers, but we appreciate if you do
You receive ORCA, which is the product of decades of hard work by many enthusiastic individuals, for free
The only thing we kindly ask in return is that you cite our papers,
We deeply appreciate it, if you show your appreciation for ORCA by not just citing the generic ORCA reference.

Please note that relegating all ORCA citations to the supporting information does *not* help us.
SI sections are not indexed - citations you put there will not count into any citation statistics
But we need these citations in order to attract the funding resources that allow us to do what we are doing

Therefore, if you are a happy ORCA user, please consider citing a few of the papers listed below in the main body of your paper

In addition to the list printed below, the program has created the file ./output/citronellyl_formate/citronellyl_formate.bibtex that contains the list in bibtex format
You can import this file easily into all common literature databanks and citation aid programs


List of essential papers. We consider these as the minimum necessary citations

  1. Neese,F.
     Software update: the ORCA program system, version 5.0
     WIRES Comput. Molec. Sci., 2022 12(1)e1606
     doi.org/10.1002/wcms.1606
  2. Mueller,M.; Hansen,A.; Grimme,S.
     wB97X-3c: A composite range-separated hybrid DFT method with a molecule-optimized polarized valence double-zeta basis set
     J. Chem. Phys., 2023 158 014103
     doi.org/10.1063/5.0133026

List of papers to cite with high priority. The work reported in these papers was absolutely
necessary for this run to complete.
Our perspective: the developers of density functionals and basis sets usually get cited in chemistry papers
Good! But without the algorithms to do something with them, the functionals or basis sets would not do anything.
Hence, in our opinion, the algorithm design and method developments papers are equally worthy of getting cited

  1. Neese,F.
     An improvement of the resolution of the identity approximation for the formation of the Coulomb matrix
     J. Comp. Chem., 2003 24(14)1740-1747
     doi.org/10.1002/jcc.10318
  2. Neese,F.; Wennmohs,F.; Hansen,A.; Becker,U.
     Efficient, approximate and parallel Hartree-Fock and hybrid DFT calculations. A 'chain-of-spheres' algorithm for the Hartree-Fock exchange
     Chem. Phys., 2009 356(1-3)98-109
     doi.org/10.1016/j.chemphys.2008.10.036
  3. Bykov,D.; Petrenko,T.; Izsak,R.; Kossmann,S.; Becker,U.; Valeev,E.; Neese,F.
     Efficient implementation of the analytic second derivatives of Hartree-Fock and hybrid DFT energies: a detailed analysis of different approximations
     Molec. Phys., 2015 113 1961-1977
     doi.org/10.1080/00268976.2015.1025114
  4. Helmich-Paris,B.; de Souza,B.; Neese,F.; Izsák,R.
     An improved chain of spheres for exchange algorithm
     J. Chem. Phys., 2021 155 104109
     doi.org/doi: 10.1063/5.0058766.
  5. Neese,F.
     The SHARK Integral Generation and Digestion System
     J. Comp. Chem., 2022  1-16
     doi.org/10.1002/jcc.26942
  6. Caldeweyher,E.; Bannwarth,C.; Grimme,S.
     Extension of the D3 dispersion coefficient model
     J. Chem. Phys., 2017 147 034112
     doi.org/10.1063/1.4993215
  7. Caldeweyher,E.; Ehlert,S.; Hansen,A.; Neugebauer,H.; Spicher,S.; Bannwarth,C.; Grimme,S.
     A generally applicable atomic-charge dependent London dispersion correction
     J. Chem. Phys., 2019 150 154122
     doi.org/10.1063/1.5090222
  8. Caldeweyher,E.; Mewes,J.; Ehlert,S.; Grimme,S.
     Extension and evaluation of the D4 London-dispersion model for periodic systems
     Phys. Chem. Chem. Phys., 2020 22(16)8499-8512
     doi.org/10.1039/D0CP00502A
  9. Wittmann,L.; Gordiy,I.; Friede,M.; Helmich-Paris,B.; Grimme,S.; Hansen,A.; Bursch,M.
     Extension of the D3 and D4 London Dispersion Corrections to the full Actinides Series
     Phys. Chem. Chem. Phys., 2024 26(32)21379-21394
     doi.org/https://doi.org/10.1039/D4CP01514B 

List of suggested additional citations. These are papers that are important in the 'surrounding' of 
of this run, or papers that preceded the highly important papers. If you like your results we are grateful for a citation.

  1. Izsak,R.; Neese,F.
     An overlap fitted chain of spheres exchange method
     J. Chem. Phys., 2011 135 144105
     doi.org/10.1063/1.3646921
  2. Izsak,R.; Hansen,A.; Neese,F.
     The resolution of identity and chain of spheres approximations for the LPNO-CCSD singles Fock term
     Molec. Phys., 2012 110 2413-2417
     doi.org/10.1080/00268976.2012.687466
  3. Neese,F.
     The ORCA program system
     WIRES Comput. Molec. Sci., 2012 2(1)73-78
     doi.org/10.1002/wcms.81
  4. Izsak,R.; Neese,F.; Klopper,W.
     Robust fitting techniques in the chain of spheres approximation to the Fock exchange: The role of the complementary space
     J. Chem. Phys., 2013 139 
     doi.org/10.1063/1.4819264
  5. Neese,F.
     Software update: the ORCA program system, version 4.0
     WIRES Comput. Molec. Sci., 2018 8(1)1-6
     doi.org/10.1002/wcms.1327
  6. Neese,F.; Wennmohs,F.; Becker,U.; Riplinger,C.
     The ORCA quantum chemistry program package
     J. Chem. Phys., 2020 152 Art. No. L224108
     doi.org/10.1063/5.0004608

List of optional additional citations

  1. Neese,F.
     Approximate second-order SCF convergence for spin unrestricted wavefunctions
     Chem. Phys. Lett., 2000 325(1-3)93-98
     doi.org/10.1016/s0009-2614(00)00662-x

Timings for individual modules:

Sum of individual times          ...     2010.107 sec (=  33.502 min)
Startup calculation              ...      106.722 sec (=   1.779 min)   5.3 %
SCF iterations                   ...     1381.265 sec (=  23.021 min)  68.7 %
Property integrals               ...       92.051 sec (=   1.534 min)   4.6 %
SCF Response                     ...       54.286 sec (=   0.905 min)   2.7 %
Property calculations            ...      115.711 sec (=   1.929 min)   5.8 %
SCF Gradient evaluation          ...      259.648 sec (=   4.327 min)  12.9 %
Geometry relaxation              ...        0.426 sec (=   0.007 min)   0.0 %
                             ****ORCA TERMINATED NORMALLY****
TOTAL RUN TIME: 0 days 0 hours 33 minutes 41 seconds 995 msec
