
                                 *****************
                                 * O   R   C   A *
                                 *****************

                                            #,                                       
                                            ###                                      
                                            ####                                     
                                            #####                                    
                                            ######                                   
                                           ########,                                 
                                     ,,################,,,,,                         
                               ,,#################################,,                 
                          ,,##########################################,,             
                       ,#########################################, ''#####,          
                    ,#############################################,,   '####,        
                  ,##################################################,,,,####,       
                ,###########''''           ''''###############################       
              ,#####''   ,,,,##########,,,,          '''####'''          '####       
            ,##' ,,,,###########################,,,                        '##       
           ' ,,###''''                  '''############,,,                           
         ,,##''                                '''############,,,,        ,,,,,,###''
      ,#''                                            '''#######################'''  
     '                                                          ''''####''''         
             ,#######,   #######,   ,#######,      ##                                
            ,#'     '#,  ##    ##  ,#'     '#,    #''#        ,####,   ,####,        
            ##       ##  ##   ,#'  ##            #'  '#       #'       #'  '#        
            ##       ##  #######   ##           ,######,      #####,   #    #        
            '#,     ,#'  ##    ##  '#,     ,#' ,#      #,     #,   #   #,  ,#        
             '#######'   ##     ##  '#######'  #'      '#     '####' # '####'        



                #########################################################
                #                        -***-                          #
                #          Department of theory and spectroscopy        #
                #                                                       #
                #                      Frank Neese                      #
                #                                                       #
                #     Directorship, Architecture, Infrastructure        #
                #                    SHARK, DRIVERS                     #
                #        Core code/Algorithms in most modules           #
                #                                                       #
                #        Max Planck Institute fuer Kohlenforschung      #
                #                Kaiser Wilhelm Platz 1                 #
                #                 D-45470 Muelheim/Ruhr                 #
                #                      Germany                          #
                #                                                       #
                #                  All rights reserved                  #
                #                        -***-                          #
                #########################################################


                         Program Version 6.0.1  -  RELEASE   -


 With contributions from (in alphabetic order):
[Max-Planck-Institut fuer Kohlenforschung]                               
  Daniel Aravena         : Magnetic Suceptibility                        
  Michael Atanasov       : Ab Initio Ligand Field Theory (pilot matlab implementation)
  Alexander A. Auer      : GIAO ZORA, VPT2 properties, NMR spectrum      
  Ute Becker             : All parallelization in ORCA, NUMFREQ, NUMCALC 
  Giovanni Bistoni       : ED, misc. LED, open-shell LED, HFLD           
  Martin Brehm           : Molecular dynamics                            
  Dmytro Bykov           : pre 5.0 version of the SCF Hessian            
  Marcos Casanova-Páez   : Triplet and SCS-CIS(D). UHF-(DLPNO)-IP/EA/STEOM-CCSD. UHF-CVS-IP/STEOM-CCSD   
  Vijay G. Chilkuri      : MRCI spin determinant printing, contributions to CSF-ICE 
  Pauline Colinet        : FMM embedding                                 
  Dipayan Datta          : RHF DLPNO-CCSD density                        
  Achintya Kumar Dutta   : EOM-CC, STEOM-CC                              
  Nicolas Foglia         : Exact transition moments, OPA infrastructure, MCD improvements    
  Dmitry Ganyushin       : Spin-Orbit,Spin-Spin,Magnetic field MRCI      
  Miquel Garcia-Rates    : C-PCM and meta-GGA Hessian, CCSD/C-PCM, Gaussian charge scheme 
  Tiago L. C. Gouveia    : GS-ROHF, GS-ROCIS                             
  Yang Guo               : DLPNO-NEVPT2, F12-NEVPT2, CIM, IAO-localization        
  Andreas Hansen         : Spin unrestricted coupled pair/coupled cluster methods 
  Ingolf Harden          : AUTO-CI MPn and infrastructure                
  Benjamin Helmich-Paris : MC-RPA, TRAH-(SCF,CASSCF), AVAS, COSX integrals, SCF dyn. polar. 
  Lee Huntington         : MR-EOM, pCC                                   
  Robert Izsak           : Overlap fitted RIJCOSX, COSX-SCS-MP3, EOM     
  Riya Kayal             : Wick's Theorem for AUTO-CI, AUTO-CI UHF-CCSDT 
  Emily Kempfer          : AUTO-CI, RHF CISDT and CCSDT                  
  Christian Kollmar      : KDIIS, OOCD, Brueckner-CCSD(T), CCSD density, CASPT2, CASPT2-K, improved NEVPT2 
  Axel Koslowski         : Symmetry handling                             
  Simone Kossmann        : meta-GGA functionals, TD-DFT gradient, OOMP2, (MP2 Hessian; deprecated post 5.0) 
  Lucas Lang             : DCDCAS                                        
  Marvin Lechner         : AUTO-CI (C++ implementation), FIC-MRCC        
  Spencer Leger          : CASSCF response                               
  Dagmar Lenk            : GEPOL surface, SMD, ORCA-2-JSON               
  Dimitrios Liakos       : Extrapolation schemes; Compound Job, initial MDCI parallelization 
  Dimitrios Manganas     : Further ROCIS development; embedding schemes. LFT, Crystal Embedding 
  Dimitrios Pantazis     : SARC Basis sets                               
  Anastasios Papadopoulos: AUTO-CI, single reference methods and gradients 
  Taras Petrenko         : pre 6.0 DFT Hessian and TD-DFT gradient, (ASA, deprecated), ECA, 1-Electron XAS/XES, NRVS 
  Peter Pinski           : DLPNO-MP2, DLPNO-MP2 Gradient                 
  Christoph Reimann      : Effective Core Potentials                     
  Marius Retegan         : Local ZFS, SOC                                
  Christoph Riplinger    : Optimizer, TS searches, QM/MM, DLPNO-CCSD(T), (RO)-DLPNO pert. Triples 
  Michael Roemelt        : Original ROCIS implementation                 
  Masaaki Saitow         : Open-shell DLPNO-CCSD energy and density      
  Barbara Sandhoefer     : DKH picture change effects                    
  Kantharuban Sivalingam : CASSCF convergence/infrastructure, NEVPT2 and variants, FIC-MRCI 
  Bernardo de Souza      : ESD, SOC TD-DFT                               
  Georgi L. Stoychev     : AutoAux, RI-MP2 NMR, DLPNO-MP2 response, X2C  
  Van Anh Tran           : RI-MP2 g-tensors                              
  Willem Van den Heuvel  : Paramagnetic NMR                              
  Zikuan Wang            : NOTCH, Electric field optimization            
  Frank Wennmohs         : Technical directorship and infrastructure     
  Hang Xu                : AUTO-CI-Response properties                   
                                                                         
[FACCTs GmbH]                                                            
  Markus Bursch, Miquel Garcia-Rates, Christoph Riplinger, Bernardo de Souza, Georgi L. Stoychev 
                                                                 
  APM, Basis sets (HGBS, AHGBS, def-TZVP (Ac-Lr), def2-XVPD (La-Lu)), CI-OPT, improved COSX, DLPNO-Multilevel,           
  DOCKER, DRACO, updates on ESD, GOAT, IRC, LR-CPCM, MBIS, meta-GGA TD-DFT gradient, ML-optimized integration grids, 
  MM, NACMEs, nearIR, NEB, NEB-TS, NL-DFT gradient (VV10), 2- and 3-layer-ONIOM, interface openCOSMO-RS, QMMM,   
  Crystal-QMMM, SF, symmetry and pop. for TD-DFT, r2SCAN hybrids, SOLVATOR                                   
                                                                         
[Other institutions]                                                     
  V. Asgeirsson          : NEB                                           
  Christoph Bannwarth    : sTDA-DFT, sTD-DFT, PBEh-3c, B97-3c, D3        
  Sebastian Ehlert       : rSCAN, r2SCAN, r2SCAN-3c, D4, dhf basis sets  
  Marvin Friede          : D4 for Fr, Ra, Ac-Lr                          
  Lars Goerigk           : TD-DFT with DH, B97 family of functionals     
  Stefan Grimme          : VdW corrections, initial TS optimization, DFT functionals, gCP, sTDA/sTD-DF 
  Waldemar Hujo          : DFT-NL                                        
  H. Jonsson             : NEB                                           
  Holger Kruse           : gCP                                           
  Marcel Mueller         : wB97X-3c, vDZP basis set                      
  Hagen Neugebauer       : wr2SCAN                                       
  Tobias Risthaus        : range-separated hybrid DFT                    
  Lukas Wittmann         : regularized MP2, r2SCAN double-hybrids, wr2SCAN        
                                                                         
We gratefully acknowledge several colleagues who have allowed us to      
interface, adapt or use parts of their codes:                            
  Ed Valeev, F. Pavosevic, A. Kumar             : LibInt (2-el integral package), F12 methods 
  Garnet Chan, S. Sharma, J. Yang, R. Olivares  : DMRG                   
  Ulf Ekstrom                                   : XCFun DFT Library      
  Mihaly Kallay                                 : mrcc  (arbitrary order and MRCC methods)
  Frank Weinhold                                : gennbo (NPA and NBO analysis)           
  Simon Mueller                                 : openCOSMO-RS                            
  Christopher J. Cramer and Donald G. Truhlar   : smd solvation model                     
  S Lehtola, MJT Oliveira, MAL Marques          : LibXC Library                           
  Liviu Ungur et al                             : ANISO software                          


 Your calculation uses the libint2 library for the computation of 2-el integrals
 For citations please refer to: http://libint.valeyev.net

 Your ORCA version has been built with support for libXC version: 6.2.2
 For citations please refer to: https://libxc.gitlab.io

 This ORCA versions uses:
   CBLAS   interface :  Fast vector & matrix operations
   LAPACKE interface :  Fast linear algebra routines
   SCALAPACK package :  Parallel linear algebra routines
   Shared memory     :  Shared parallel matrices
   BLAS/LAPACK       :  OpenBLAS 0.3.27  USE64BITINT DYNAMIC_ARCH NO_AFFINITY SkylakeX SINGLE_THREADED
        Core in use  :  SkylakeX
   Copyright (c) 2011-2014, The OpenBLAS Project


Your calculation utilizes the atom-pairwise dispersion correction
based on EEQ partial charges (D4)


================================================================================

cite the ECPs for C  [vDZP-ECP], O  [vDZP-ECP] as follows:
   B-Ne (ecp-2-mwb), Al-Ar (ecp-10-mwb), Ga-Kr (ecp-28-mwb), Y-Cd (ecp-28-mwb), In-Xe (ecp-46-mwb):
     A. Bergner, M. Dolg, W. Küchle, H. Stoll, and H. Preuß, Mol. Phys. 80, 1431 (1993)., T. Leininger, A. Berning, A. Nicklass, H. Stoll, H.-J. Werner, and H.-J.Flad, Chem. Phys. 217, 19 (1997).
   Na-Mg, K-Ca, Rb-Sr, Cs-Ba (CRENBL):
     L. Fernandez Pacios and P. A. Christiansen, J. Chem. Phys. 82, 2664 (1985)., M. M. Hurley, L. F. Pacios, P. A. Christiansen, R. B. Ross, and W. C. Ermler, J. Chem. Phys. 84, 6840 (1986)., L. A. LaJohn, P. A. Christiansen, R. B. Ross, T. Atashroo, and W. C. Ermler, J. Chem. Phys. 87, 2812 (1987)., R. B. Ross, J. M. Powers, T. Atashroo, W. C. Ermler, L. A. LaJohn, and P. A. Christiansen, J. Chem. Phys. 93, 6654 (1990). 
   Sc-Zn (ecp-10-mdf):
     M. Dolg, U. Wedig, H. Stoll, and H. Preuss, J. Chem. Phys. 86, 866 (1986). 
   Y-Cd (ecp-28-mwb), Hf-Hg (ecp-60-mwb):
     D. Andrae, U. Häußermann, M. Dolg, H. Stoll, and H. Preuß, Theor. Chim. Acta 77, 123 (1990). 
   La (ecp-46-mwb):
     M. Dolg, H. Stoll, and H. Preuss, J. Chem. Phys. 90, 1730 (1989)., M. Dolg, H. Stoll, and H. Preuss, Theor. Chim. Acta 85, 441 (1993).
   Ce-Lu (SBKJC-ecp):
     T. R. Cundari and W. J. Stevens, J. Chem. Phys. 98, 5555 (1993).
   Tl-Rn (ecp-78-mwb):
     W. Küchle, M. Dolg, H. Stoll, and H. Preuss, Mol. Phys. 74, 1245 (1991).

ECP parameters for C  [vDZP-ECP], O  [vDZP-ECP] have been obtained from:
MM, AH, SG, J. Chem. Phys. 158, 014103 (2023), 10.1063/5.0133026

----- Orbital basis set information -----
Your calculation utilizes the basis: vDZP
   Marcel Mueller, Andreas Hansen, Stefan Grimme 
   J. Chem. Phys. 158, 014103 (2023). DOI: 10.1063/5.0133026

----- AuxJ basis set information -----
Your calculation utilizes the auxiliary basis: def2/J
   F. Weigend, Phys. Chem. Chem. Phys. 8, 1057 (2006).

================================================================================
                                        WARNINGS
                       Please study these warnings very carefully!
================================================================================

WARNING: Frozen-Core approximation turned on, but there are no core electrons.
  ===> : Turning off frozen-core approximation


WARNING: Geometry Optimization
  ===> : Switching off AutoStart
         For restart on a previous wavefunction, please use MOREAD

================================================================================
                                       INPUT FILE
================================================================================
NAME = ./output/carvacrol_methyl_ether/carvacrol_methyl_ether.inp
|  1> ! wB97X-3c OPT FREQ TightSCF
|  2> %pal
|  3>   nprocs 40
|  4> end
|  5> * xyz 0 1
|  6> C      2.940449    -2.053612     0.597088
|  7> C      1.642385    -1.299751     0.518587
|  8> C      1.546506    -0.135539    -0.266727
|  9> C      0.321124     0.557998    -0.328095
| 10> C     -0.801743     0.101688     0.383438
| 11> C     -0.687690    -1.062315     1.162281
| 12> C      0.521593    -1.754852     1.228547
| 13> C     -2.112446     0.863307     0.303886
| 14> C     -3.219115    -0.003289    -0.308776
| 15> C     -2.526925     1.395739     1.680760
| 16> O      2.682340     0.301561    -0.969266
| 17> C      2.725830     1.458599    -1.798031
| 18> H      3.237483    -2.392997    -0.417584
| 19> H      2.857797    -2.946042     1.253413
| 20> H      3.732798    -1.391874     1.006055
| 21> H      0.235097     1.453694    -0.928014
| 22> H     -1.535320    -1.437411     1.720946
| 23> H      0.581486    -2.649115     1.836551
| 24> H     -1.988492     1.747348    -0.360892
| 25> H     -4.141759     0.600047    -0.446438
| 26> H     -2.899810    -0.380632    -1.303842
| 27> H     -3.458638    -0.869227     0.344136
| 28> H     -1.712589     2.018927     2.108540
| 29> H     -3.434748     2.029030     1.585686
| 30> H     -2.749509     0.564052     2.382378
| 31> H      2.498886     2.365976    -1.199412
| 32> H      3.744768     1.560580    -2.224245
| 33> H      2.000242     1.358110    -2.632661
| 34> *
| 35> 
| 36>                          ****END OF INPUT****
================================================================================

                       *****************************
                       * Geometry Optimization Run *
                       *****************************

Geometry optimization settings:
Update method            Update   .... BFGS
Choice of coordinates    CoordSys .... (2022) Redundant Internals
Initial Hessian          InHess   .... Almloef's Model
Max. no of cycles        MaxIter  .... 84

Convergence Tolerances:
Energy Change            TolE     ....  5.0000e-06 Eh
Max. Gradient            TolMAXG  ....  3.0000e-04 Eh/bohr
RMS Gradient             TolRMSG  ....  1.0000e-04 Eh/bohr
Max. Displacement        TolMAXD  ....  4.0000e-03 bohr
RMS Displacement         TolRMSD  ....  2.0000e-03 bohr
Strict Convergence                .... False

------------------------------------------------------------------------------
                        ORCA OPTIMIZATION COORDINATE SETUP
------------------------------------------------------------------------------

The optimization will be done in redundant internal coordinates (2022)
Making redundant internal coordinates   ...  (2022 redundants) done
Evaluating the initial hessian          ...  (Almloef) done
Evaluating the coordinates              ...  done
Calculating the B-matrix                .... done
Calculating the G-matrix                .... done
Diagonalizing the G-matrix              .... done
Small eigenvalue found = 1.027e-02
Small eigenvalue found = 2.425e-02
Small eigenvalue found = 2.470e-02
The first mode is                       ....   50
The number of degrees of freedom        ....   78

    -----------------------------------------------------------------
                    Redundant Internal Coordinates


    -----------------------------------------------------------------
         Definition                    Initial Value    Approx d2E/dq
    -----------------------------------------------------------------
      1. B(C   1,C   0)                  1.5031         0.412312   
      2. B(C   2,C   1)                  1.4076         0.585706   
      3. B(C   3,C   2)                  1.4094         0.581884   
      4. B(C   4,C   3)                  1.4055         0.590292   
      5. B(C   5,C   4)                  1.4052         0.590926   
      6. B(C   6,C   5)                  1.3951         0.613151   
      7. B(C   6,C   1)                  1.4026         0.596498   
      8. B(C   7,C   4)                  1.5180         0.390407   
      9. B(C   8,C   7)                  1.5333         0.369051   
     10. B(C   9,C   7)                  1.5333         0.369051   
     11. B(O  10,C   2)                  1.4053         0.529103   
     12. B(C  11,O  10)                  1.4239         0.494079   
     13. B(H  12,C   0)                  1.1104         0.334109   
     14. B(H  13,C   0)                  1.1109         0.333527   
     15. B(H  14,C   0)                  1.1104         0.334111   
     16. B(H  15,C   3)                  1.0815         0.371564   
     17. B(H  16,C   5)                  1.0823         0.370490   
     18. B(H  17,C   6)                  1.0830         0.369434   
     19. B(H  18,C   7)                  1.1130         0.330894   
     20. B(H  19,C   8)                  1.1110         0.333410   
     21. B(H  20,C   8)                  1.1111         0.333266   
     22. B(H  21,C   8)                  1.1106         0.333809   
     23. B(H  22,C   9)                  1.1111         0.333264   
     24. B(H  23,C   9)                  1.1110         0.333409   
     25. B(H  24,C   9)                  1.1106         0.333809   
     26. B(H  25,C  11)                  1.1105         0.333993   
     27. B(H  26,C  11)                  1.1092         0.335593   
     28. B(H  27,C  11)                  1.1105         0.333992   
     29. A(H  12,C   0,H  13)          108.3156         0.284033   
     30. A(C   1,C   0,H  12)          109.6682         0.325587   
     31. A(C   1,C   0,H  14)          109.6682         0.325587   
     32. A(C   1,C   0,H  13)          111.6853         0.325494   
     33. A(H  13,C   0,H  14)          108.3157         0.284033   
     34. A(H  12,C   0,H  14)          109.1367         0.284110   
     35. A(C   2,C   1,C   6)          119.7578         0.426684   
     36. A(C   0,C   1,C   6)          120.0589         0.400892   
     37. A(C   0,C   1,C   2)          120.1833         0.399606   
     38. A(C   1,C   2,O  10)          118.7594         0.414939   
     39. A(C   1,C   2,C   3)          119.3750         0.424794   
     40. A(C   3,C   2,O  10)          121.8656         0.414457   
     41. A(C   2,C   3,C   4)          120.8520         0.425387   
     42. A(C   2,C   3,H  15)          120.0580         0.350998   
     43. A(C   4,C   3,H  15)          119.0900         0.351850   
     44. A(C   5,C   4,C   7)          120.9803         0.396408   
     45. A(C   3,C   4,C   7)          120.0266         0.396334   
     46. A(C   3,C   4,C   5)          118.9931         0.426563   
     47. A(C   4,C   5,C   6)          120.5230         0.429478   
     48. A(C   6,C   5,H  16)          118.8366         0.353947   
     49. A(C   4,C   5,H  16)          120.6404         0.351742   
     50. A(C   5,C   6,H  17)          118.9782         0.353775   
     51. A(C   1,C   6,H  17)          120.5227         0.352130   
     52. A(C   1,C   6,C   5)          120.4991         0.430202   
     53. A(C   8,C   7,H  18)          106.8958         0.319221   
     54. A(C   4,C   7,H  18)          109.4902         0.322171   
     55. A(C   8,C   7,C   9)          111.0973         0.361843   
     56. A(C   4,C   7,C   9)          111.1347         0.365339   
     57. A(C   4,C   7,C   8)          111.1347         0.365339   
     58. A(C   9,C   7,H  18)          106.8959         0.319221   
     59. A(H  20,C   8,H  21)          108.8853         0.283958   
     60. A(H  19,C   8,H  21)          108.4914         0.283977   
     61. A(C   7,C   8,H  21)          111.1872         0.319678   
     62. A(H  19,C   8,H  20)          108.1878         0.283905   
     63. A(C   7,C   8,H  20)          110.0215         0.319593   
     64. A(C   7,C   8,H  19)          109.9977         0.319616   
     65. A(H  22,C   9,H  24)          108.8853         0.283958   
     66. A(C   7,C   9,H  24)          111.1873         0.319678   
     67. A(H  22,C   9,H  23)          108.1877         0.283905   
     68. A(C   7,C   9,H  23)          109.9977         0.319616   
     69. A(C   7,C   9,H  22)          110.0215         0.319593   
     70. A(H  23,C   9,H  24)          108.4914         0.283977   
     71. A(C   2,O  10,C  11)          124.6404         0.400047   
     72. A(H  26,C  11,H  27)          108.6477         0.284290   
     73. A(H  25,C  11,H  27)          110.2160         0.284079   
     74. A(O  10,C  11,H  27)          110.1187         0.333428   
     75. A(H  25,C  11,H  26)          108.6477         0.284290   
     76. A(O  10,C  11,H  26)          109.0518         0.333693   
     77. A(O  10,C  11,H  25)          110.1187         0.333429   
     78. D(C   6,C   1,C   0,H  12)    120.0832         0.012586   
     79. D(C   2,C   1,C   0,H  13)    179.9994         0.012586   
     80. D(C   2,C   1,C   0,H  14)     59.9153         0.012586   
     81. D(C   2,C   1,C   0,H  12)    -59.9166         0.012586   
     82. D(C   6,C   1,C   0,H  13)     -0.0008         0.012586   
     83. D(C   3,C   2,C   1,C   6)      0.0001         0.023591   
     84. D(C   3,C   2,C   1,C   0)   -180.0000         0.023591   
     85. D(O  10,C   2,C   1,C   6)   -179.9999         0.023591   
     86. D(O  10,C   2,C   1,C   0)      0.0000         0.023591   
     87. D(H  15,C   3,C   2,O  10)     -0.0001         0.023269   
     88. D(H  15,C   3,C   2,C   1)    179.9999         0.023269   
     89. D(C   4,C   3,C   2,O  10)    179.9999         0.023269   
     90. D(C   4,C   3,C   2,C   1)     -0.0001         0.023269   
     91. D(C   5,C   4,C   3,H  15)   -179.9999         0.023980   
     92. D(C   5,C   4,C   3,C   2)      0.0001         0.023980   
     93. D(C   7,C   4,C   3,H  15)     -0.0002         0.023980   
     94. D(C   7,C   4,C   3,C   2)    179.9998         0.023980   
     95. D(H  16,C   5,C   4,C   7)      0.0003         0.024034   
     96. D(H  16,C   5,C   4,C   3)   -180.0000         0.024034   
     97. D(C   6,C   5,C   4,C   7)   -179.9998         0.024034   
     98. D(C   6,C   5,C   4,C   3)     -0.0001         0.024034   
     99. D(H  17,C   6,C   5,H  16)     -0.0000         0.025981   
    100. D(H  17,C   6,C   5,C   4)   -179.9999         0.025981   
    101. D(C   1,C   6,C   5,H  16)   -180.0000         0.025981   
    102. D(C   1,C   6,C   5,C   4)      0.0001         0.025981   
    103. D(H  17,C   6,C   1,C   2)    179.9999         0.024513   
    104. D(H  17,C   6,C   1,C   0)      0.0000         0.024513   
    105. D(C   5,C   6,C   1,C   0)    180.0000         0.024513   
    106. D(C   5,C   6,C   1,C   2)     -0.0001         0.024513   
    107. D(C   8,C   7,C   4,C   5)    -62.1379         0.011338   
    108. D(C   8,C   7,C   4,C   3)    117.8624         0.011338   
    109. D(H  18,C   7,C   4,C   3)      0.0002         0.011338   
    110. D(C   9,C   7,C   4,C   5)     62.1376         0.011338   
    111. D(C   9,C   7,C   4,C   3)   -117.8621         0.011338   
    112. D(H  20,C   8,C   7,H  18)     63.8177         0.010891   
    113. D(H  20,C   8,C   7,C   9)   -179.9025         0.010891   
    114. D(H  20,C   8,C   7,C   4)    -55.6058         0.010891   
    115. D(H  19,C   8,C   7,H  18)    -55.2693         0.010891   
    116. D(H  19,C   8,C   7,C   9)     61.0105         0.010891   
    117. D(H  19,C   8,C   7,C   4)   -174.6928         0.010891   
    118. D(H  23,C   9,C   7,H  18)     55.2689         0.010891   
    119. D(H  23,C   9,C   7,C   8)    -61.0109         0.010891   
    120. D(H  23,C   9,C   7,C   4)    174.6924         0.010891   
    121. D(H  22,C   9,C   7,H  18)    -63.8180         0.010891   
    122. D(H  22,C   9,C   7,C   8)    179.9023         0.010891   
    123. D(H  22,C   9,C   7,C   4)     55.6055         0.010891   
    124. D(C  11,O  10,C   2,C   3)     -0.0003         0.020182   
    125. D(C  11,O  10,C   2,C   1)    179.9997         0.020182   
    126. D(H  27,C  11,O  10,C   2)    -60.8718         0.019285   
    127. D(H  26,C  11,O  10,C   2)   -179.9999         0.019285   
    128. D(H  25,C  11,O  10,C   2)     60.8719         0.019285   
    -----------------------------------------------------------------

Number of atoms                         .... 28
Number of degrees of freedom            .... 128


         *************************************************************
         *                GEOMETRY OPTIMIZATION CYCLE   1            *
         *************************************************************
---------------------------------
CARTESIAN COORDINATES (ANGSTROEM)
---------------------------------
  C      2.940449   -2.053612    0.597088
  C      1.642385   -1.299751    0.518587
  C      1.546506   -0.135539   -0.266727
  C      0.321124    0.557998   -0.328095
  C     -0.801743    0.101688    0.383438
  C     -0.687690   -1.062315    1.162281
  C      0.521593   -1.754852    1.228547
  C     -2.112446    0.863307    0.303886
  C     -3.219115   -0.003289   -0.308776
  C     -2.526925    1.395739    1.680760
  O      2.682340    0.301561   -0.969266
  C      2.725830    1.458599   -1.798031
  H      3.237483   -2.392997   -0.417584
  H      2.857797   -2.946042    1.253413
  H      3.732798   -1.391874    1.006055
  H      0.235097    1.453694   -0.928014
  H     -1.535320   -1.437411    1.720946
  H      0.581486   -2.649115    1.836551
  H     -1.988492    1.747348   -0.360892
  H     -4.141759    0.600047   -0.446438
  H     -2.899810   -0.380632   -1.303842
  H     -3.458638   -0.869227    0.344136
  H     -1.712589    2.018927    2.108540
  H     -3.434748    2.029030    1.585686
  H     -2.749509    0.564052    2.382378
  H      2.498886    2.365976   -1.199412
  H      3.744768    1.560580   -2.224245
  H      2.000242    1.358110   -2.632661

----------------------------
CARTESIAN COORDINATES (A.U.)
----------------------------
  NO LB      ZA    FRAG     MASS         X           Y           Z
   0 C     4.0000*   0    12.011    5.556643   -3.880764    1.128333
   1 C     4.0000*   0    12.011    3.103658   -2.456173    0.979987
   2 C     4.0000*   0    12.011    2.922473   -0.256132   -0.504041
   3 C     4.0000*   0    12.011    0.606836    1.054463   -0.620010
   4 C     4.0000*   0    12.011   -1.515075    0.192162    0.724593
   5 C     4.0000*   0    12.011   -1.299546   -2.007484    2.196393
   6 C     4.0000*   0    12.011    0.985668   -3.316190    2.321617
   7 C     4.0000*   0    12.011   -3.991944    1.631414    0.574261
   8 C     4.0000*   0    12.011   -6.083246   -0.006215   -0.583502
   9 C     4.0000*   0    12.011   -4.775196    2.637564    3.176176
  10 O     6.0000*   0    15.999    5.068888    0.569868   -1.831647
  11 C     4.0000*   0    12.011    5.151072    2.756353   -3.397786
  12 H     1.0000    0     1.008    6.117956   -4.522109   -0.789119
  13 H     1.0000    0     1.008    5.400454   -5.567213    2.368607
  14 H     1.0000    0     1.008    7.053966   -2.630261    1.901168
  15 H     1.0000    0     1.008    0.444269    2.747084   -1.753692
  16 H     1.0000    0     1.008   -2.901334   -2.716313    3.252117
  17 H     1.0000    0     1.008    1.098849   -5.006102    3.470578
  18 H     1.0000    0     1.008   -3.757705    3.302009   -0.681987
  19 H     1.0000    0     1.008   -7.826790    1.133924   -0.843646
  20 H     1.0000    0     1.008   -5.479847   -0.719290   -2.463904
  21 H     1.0000    0     1.008   -6.535879   -1.642601    0.650323
  22 H     1.0000    0     1.008   -3.236324    3.815219    3.984563
  23 H     1.0000    0     1.008   -6.490733    3.834311    2.996512
  24 H     1.0000    0     1.008   -5.195819    1.065904    4.502042
  25 H     1.0000    0     1.008    4.722210    4.471047   -2.266560
  26 H     1.0000    0     1.008    7.076586    2.949069   -4.203214
  27 H     1.0000    0     1.008    3.779910    2.566456   -4.975008
* core charge reduced due to ECP

--------------------------------
INTERNAL COORDINATES (ANGSTROEM)
--------------------------------
 C      0   0   0     0.000000000000     0.00000000     0.00000000
 C      1   0   0     1.503143027931     0.00000000     0.00000000
 C      2   1   0     1.407586744105   120.18331118     0.00000000
 C      3   2   1     1.409368882769   119.37501989   180.00000927
 C      4   3   2     1.405463740506   120.85202971     0.00000000
 C      5   4   3     1.405171693946   118.99313971     0.00000000
 C      6   5   4     1.395121519157   120.52298649     0.00000000
 C      5   4   3     1.518003417675   120.02659530   179.99976594
 C      8   5   4     1.533316545603   111.13471634   117.86236409
 C      8   5   4     1.533316238726   111.13470042   242.13789004
 O      3   2   1     1.405253120287   118.75941096     0.00000000
 C     11   3   2     1.423895971892   124.64037892   179.99971193
 H      1   2   3     1.110392112258   109.66817764   300.08335622
 H      1   2   3     1.110866852341   111.68532706   179.99937101
 H      1   2   3     1.110390978680   109.66820108    59.91527795
 H      4   3   2     1.081468804777   120.05800102   179.99986854
 H      6   5   4     1.082256997363   120.64037456   180.00003498
 H      7   6   5     1.083033863106   118.97823694   180.00007395
 H      8   5   4     1.113024201480   109.49022921     0.00000000
 H      9   8   5     1.110962243227   109.99773391   185.30718751
 H      9   8   5     1.111080450296   110.02146065   304.39422982
 H      9   8   5     1.110636739495   111.18720306    65.10560273
 H     10   8   5     1.111081514849   110.02148445    55.60553690
 H     10   8   5     1.110963165675   109.99771431   174.69240027
 H     10   8   5     1.110637078865   111.18729053   294.89402379
 H     12  11   3     1.110486968148   110.11869690    60.87189594
 H     12  11   3     1.109185803191   109.05179496   180.00006542
 H     12  11   3     1.110487830534   110.11873150   299.12822009

---------------------------
INTERNAL COORDINATES (A.U.)
---------------------------
 C      0   0   0     0.000000000000     0.00000000     0.00000000
 C      1   0   0     2.840528662903     0.00000000     0.00000000
 C      2   1   0     2.659953456097   120.18331118     0.00000000
 C      3   2   1     2.663321210104   119.37501989   180.00000927
 C      4   3   2     2.655941560713   120.85202971     0.00000000
 C      5   4   3     2.655389672696   118.99313971     0.00000000
 C      6   5   4     2.636397594746   120.52298649     0.00000000
 C      5   4   3     2.868610729763   120.02659530   179.99976594
 C      8   5   4     2.897548347801   111.13471634   117.86236409
 C      8   5   4     2.897547767886   111.13470042   242.13789004
 O      3   2   1     2.655543546181   118.75941096     0.00000000
 C     11   3   2     2.690773430069   124.64037892   179.99971193
 H      1   2   3     2.098336993434   109.66817764   300.08335622
 H      1   2   3     2.099234122175   111.68532706   179.99937101
 H      1   2   3     2.098334851282   109.66820108    59.91527795
 H      4   3   2     2.043679863408   120.05800102   179.99986854
 H      6   5   4     2.045169331536   120.64037456   180.00003498
 H      7   6   5     2.046637395033   118.97823694   180.00007395
 H      8   5   4     2.103310921224   109.49022921     0.00000000
 H      9   8   5     2.099414384826   109.99773391   185.30718751
 H      9   8   5     2.099637763813   110.02146065   304.39422982
 H      9   8   5     2.098799271918   111.18720306    65.10560273
 H     10   8   5     2.099639775528   110.02148445    55.60553690
 H     10   8   5     2.099416127999   109.99771431   174.69240027
 H     10   8   5     2.098799913232   111.18729053   294.89402379
 H     12  11   3     2.098516245088   110.11869690    60.87189594
 H     12  11   3     2.096057399665   109.05179496   180.00006542
 H     12  11   3     2.098517874762   110.11873150   299.12822009

---------------------
BASIS SET INFORMATION
---------------------
There are 3 groups of distinct atoms

 Group   1 Type C   : 6s6p2d contracted to 2s2p1d pattern {42/42/2}
 Group   2 Type O   : 6s6p2d contracted to 2s2p1d pattern {42/42/2}
 Group   3 Type H   : 8s2p contracted to 2s1p pattern {53/2}

Atom   0C    basis set group =>   1
Atom   1C    basis set group =>   1
Atom   2C    basis set group =>   1
Atom   3C    basis set group =>   1
Atom   4C    basis set group =>   1
Atom   5C    basis set group =>   1
Atom   6C    basis set group =>   1
Atom   7C    basis set group =>   1
Atom   8C    basis set group =>   1
Atom   9C    basis set group =>   1
Atom  10O    basis set group =>   2
Atom  11C    basis set group =>   1
Atom  12H    basis set group =>   3
Atom  13H    basis set group =>   3
Atom  14H    basis set group =>   3
Atom  15H    basis set group =>   3
Atom  16H    basis set group =>   3
Atom  17H    basis set group =>   3
Atom  18H    basis set group =>   3
Atom  19H    basis set group =>   3
Atom  20H    basis set group =>   3
Atom  21H    basis set group =>   3
Atom  22H    basis set group =>   3
Atom  23H    basis set group =>   3
Atom  24H    basis set group =>   3
Atom  25H    basis set group =>   3
Atom  26H    basis set group =>   3
Atom  27H    basis set group =>   3
---------------------------------
AUXILIARY/J BASIS SET INFORMATION
---------------------------------
There are 3 groups of distinct atoms

 Group   1 Type C   : 12s5p4d2f1g contracted to 6s4p3d1f1g pattern {711111/2111/211/2/1}
 Group   2 Type O   : 12s5p4d2f1g contracted to 6s4p3d1f1g pattern {711111/2111/211/2/1}
 Group   3 Type H   : 5s2p1d contracted to 3s1p1d pattern {311/2/1}

Atom   0C    basis set group =>   1
Atom   1C    basis set group =>   1
Atom   2C    basis set group =>   1
Atom   3C    basis set group =>   1
Atom   4C    basis set group =>   1
Atom   5C    basis set group =>   1
Atom   6C    basis set group =>   1
Atom   7C    basis set group =>   1
Atom   8C    basis set group =>   1
Atom   9C    basis set group =>   1
Atom  10O    basis set group =>   2
Atom  11C    basis set group =>   1
Atom  12H    basis set group =>   3
Atom  13H    basis set group =>   3
Atom  14H    basis set group =>   3
Atom  15H    basis set group =>   3
Atom  16H    basis set group =>   3
Atom  17H    basis set group =>   3
Atom  18H    basis set group =>   3
Atom  19H    basis set group =>   3
Atom  20H    basis set group =>   3
Atom  21H    basis set group =>   3
Atom  22H    basis set group =>   3
Atom  23H    basis set group =>   3
Atom  24H    basis set group =>   3
Atom  25H    basis set group =>   3
Atom  26H    basis set group =>   3
Atom  27H    basis set group =>   3
-------------------------
ECP PARAMETER INFORMATION
-------------------------

 Group 1, Type C  ECP vDZP-ECP (replacing 2 core electrons, lmax=3)
 Group 2, Type O  ECP vDZP-ECP (replacing 2 core electrons, lmax=3)

Atom   0C    ECP group =>   1
Atom   1C    ECP group =>   1
Atom   2C    ECP group =>   1
Atom   3C    ECP group =>   1
Atom   4C    ECP group =>   1
Atom   5C    ECP group =>   1
Atom   6C    ECP group =>   1
Atom   7C    ECP group =>   1
Atom   8C    ECP group =>   1
Atom   9C    ECP group =>   1
Atom  10O    ECP group =>   2
Atom  11C    ECP group =>   1



           ************************************************************
           *        Program running with 40 parallel MPI-processes    *
           *              working on a common directory               *
           ************************************************************
------------------------------------------------------------------------------
                             ORCA STARTUP CALCULATIONS
                           -- RI-GTO INTEGRALS CHOSEN --
------------------------------------------------------------------------------
------------------------------------------------------------------------------
                   ___                                                        
                  /   \      - P O W E R E D   B Y -                         
                 /     \                                                     
                 |  |  |   _    _      __       _____    __    __             
                 |  |  |  | |  | |    /  \     |  _  \  |  |  /  |          
                  \  \/   | |  | |   /    \    | | | |  |  | /  /          
                 / \  \   | |__| |  /  /\  \   | |_| |  |  |/  /          
                |  |  |   |  __  | /  /__\  \  |    /   |      \           
                |  |  |   | |  | | |   __   |  |    \   |  |\   \          
                \     /   | |  | | |  |  |  |  | |\  \  |  | \   \       
                 \___/    |_|  |_| |__|  |__|  |_| \__\ |__|  \__/        
                                                                              
                      - O R C A' S   B I G   F R I E N D -                    
                                      &                                       
                       - I N T E G R A L  F E E D E R -                       
                                                                              
 v1 FN, 2020, v2 2021, v3 2022-2024                                           
------------------------------------------------------------------------------


----------------------
SHARK INTEGRAL PACKAGE
----------------------

Number of atoms                             ...     28
Number of basis functions                   ...    236
Number of shells                            ...    108
Maximum angular momentum                    ...      2
Integral batch strategy                     ... SHARK/LIBINT Hybrid
RI-J (if used) integral strategy            ... SPLIT-RIJ (Revised 2003 algorithm where possible)
Printlevel                                  ...      1
Contraction scheme used                     ... SEGMENTED contraction
Prescreening option                         ... SCHWARTZ
   Thresh                                   ... 2.500e-11
   Tcut                                     ... 2.500e-12
   Tpresel                                  ... 2.500e-12 
Coulomb Range Separation                    ... NOT USED
Exchange Range Separation                   ... Long Range
   Mu parameter                             ... 3.000e-01
   Scaling (regular/separated)              ... 1.670e-01 8.330e-01
Multipole approximations                    ... NOT USED
Finite Nucleus Model                        ... NOT USED
CABS basis                                  ... NOT available
Auxiliary Coulomb fitting basis             ... AVAILABLE
   # of basis functions in Aux-J            ...    764
   # of shells in Aux-J                     ...    260
   Maximum angular momentum in Aux-J        ...      4
Auxiliary J/K fitting basis                 ... NOT available
Auxiliary Correlation fitting basis         ... NOT available
Auxiliary 'external' fitting basis          ... NOT available

Checking pre-screening integrals            ... done (  0.0 sec) Dimension = 108
Check shell pair data                       ... done (  0.0 sec)
Shell pair information
Shell pair cut-off parameter TPreSel        ...   2.5e-12
Total number of shell pairs                 ...      5886
Shell pairs after pre-screening             ...      5835
Total number of primitive shell pairs       ...     54360
Primitive shell pairs kept                  ...     41616
          la=0 lb=0:   1586 shell pairs
          la=1 lb=0:   2216 shell pairs
          la=1 lb=1:    803 shell pairs
          la=2 lb=0:    672 shell pairs
          la=2 lb=1:    480 shell pairs
          la=2 lb=2:     78 shell pairs

Calculating one electron integrals          ... done (  0.0 sec)
Calculating ECP integrals                   ... done (  0.1 sec)
Calculating RI/J V-Matrix + Cholesky decomp.... done (  0.0 sec)
Calculating Nuclear repulsion               ... done (  0.0 sec) ENN=    367.822237585546 Eh

Diagonalization of the overlap matrix:
Smallest eigenvalue                        ... 2.831e-04
Time for diagonalization                   ...    0.008 sec
Threshold for overlap eigenvalues          ... 1.000e-07
Number of eigenvalues below threshold      ... 0
Time for construction of square roots      ...    0.005 sec
Total time needed                          ...    0.015 sec

-------------------
DFT GRID GENERATION
-------------------

General Integration Accuracy     IntAcc      ... 4.388
Radial Grid Type                 RadialGrid  ... OptM3 with GC (2021)
Angular Grid (max. ang.)         AngularGrid ... 4 (Lebedev-302)
Angular grid pruning method      GridPruning ... 4 (adaptive)
Weight generation scheme         WeightScheme... mBecke (2022)
Basis function cutoff            BFCut       ... 1.0000e-11
Integration weight cutoff        WCut        ... 1.0000e-14
Partially contracted basis set               ... off
Rotationally invariant grid construction     ... off
Angular grids for H and He will be reduced by one unit

Total number of grid points                  ...   123171
Total number of batches                      ...     1939
Average number of points per batch           ...       63
Average number of grid points per atom       ...     4399

--------------------
COSX GRID GENERATION
--------------------

GRIDX 1
-------
General Integration Accuracy     IntAcc      ... 3.816
Radial Grid Type                 RadialGrid  ... OptM3 with GC (2021)
Angular Grid (max. ang.)         AngularGrid ... 1 (Lebedev-50)
Angular grid pruning method      GridPruning ... 4 (adaptive)
Weight generation scheme         WeightScheme... mBecke (2022)
Basis function cutoff            BFCut       ... 1.0000e-11
Integration weight cutoff        WCut        ... 1.0000e-14
Partially contracted basis set               ... on
Rotationally invariant grid construction     ... off
Angular grids for H and He will be reduced by one unit

Total number of grid points                  ...    15764
Total number of batches                      ...      142
Average number of points per batch           ...      111
Average number of grid points per atom       ...      563
UseSFitting                                  ... on

GRIDX 2
-------
General Integration Accuracy     IntAcc      ... 4.020
Radial Grid Type                 RadialGrid  ... OptM3 with GC (2021)
Angular Grid (max. ang.)         AngularGrid ... 2 (Lebedev-110)
Angular grid pruning method      GridPruning ... 4 (adaptive)
Weight generation scheme         WeightScheme... mBecke (2022)
Basis function cutoff            BFCut       ... 1.0000e-11
Integration weight cutoff        WCut        ... 1.0000e-14
Partially contracted basis set               ... on
Rotationally invariant grid construction     ... off
Angular grids for H and He will be reduced by one unit

Total number of grid points                  ...    33272
Total number of batches                      ...      275
Average number of points per batch           ...      120
Average number of grid points per atom       ...     1188
UseSFitting                                  ... on

GRIDX 3
-------
General Integration Accuracy     IntAcc      ... 4.338
Radial Grid Type                 RadialGrid  ... OptM3 with GC (2021)
Angular Grid (max. ang.)         AngularGrid ... 3 (Lebedev-194)
Angular grid pruning method      GridPruning ... 4 (adaptive)
Weight generation scheme         WeightScheme... mBecke (2022)
Basis function cutoff            BFCut       ... 1.0000e-11
Integration weight cutoff        WCut        ... 1.0000e-14
Partially contracted basis set               ... on
Rotationally invariant grid construction     ... off
Angular grids for H and He will be reduced by one unit

Total number of grid points                  ...    72597
Total number of batches                      ...      582
Average number of points per batch           ...      124
Average number of grid points per atom       ...     2593
UseSFitting                                  ... on
Initializing property integral containers    ... done (  0.0 sec)

SHARK setup successfully completed in   3.7 seconds

Maximum memory used throughout the entire STARTUP-calculation: 36.6 MB


           ************************************************************
           *        Program running with 40 parallel MPI-processes    *
           *              working on a common directory               *
           ************************************************************
-------------------------------------------------------------------------------
                                 ORCA GUESS
                   Start orbitals & Density for SCF / CASSCF
-------------------------------------------------------------------------------

------------
SCF SETTINGS
------------
Hamiltonian:
 Density Functional     Method          .... DFT(GTOs)
 Exchange Functional    Exchange        .... WB97X-V
 Correlation Functional Correlation     .... WB97X-V
 Gradients option       PostSCFGGA      .... off
 Hybrid DFT is turned on
   Fraction HF Exchange ScalHFX         ....  0.167000
   Scaling of DF-GGA-X  ScalDFX         ....  0.000000
   Scaling of DF-GGA-C  ScalDFC         ....  1.000000
   Scaling of DF-LDA-C  ScalLDAC        ....  1.000000
   Perturbative correction              ....  0.000000
 Long-range corrected/Screened/Range-Separated Hybrid DFT is turned on
   Amount of maximum screened exact exchange              ....  0.833000
   Range separation parameter mu (erf(mu*r12)/r12)        ....  0.300000
   NL short-range parameter             ....  6.000000
   NL long-range parameter              ....  0.010000
 RI-approximation to the Coulomb term is turned on
   Number of AuxJ basis functions       .... 764
   RIJ-COSX (HFX calculated with COS-X)).... on


General Settings:
 Integral files         IntName         .... ./output/carvacrol_methyl_ether/carvacrol_methyl_ether
 Hartree-Fock type      HFTyp           .... RHF
 Total Charge           Charge          ....    0
 Multiplicity           Mult            ....    1
 Number of Electrons    NEL             ....   66
 Basis Dimension        Dim             ....  236
 Nuclear Repulsion      ENuc            ....    367.8222375855 Eh

Convergence Acceleration:
 AO-DIIS                CNVDIIS         .... on
   Start iteration      DIISMaxIt       ....    12
   Startup error        DIISStart       ....  0.200000
   # of expansion vecs  DIISMaxEq       ....     5
   Bias factor          DIISBfac        ....   1.050
   Max. coefficient     DIISMaxC        ....  10.000
 MO-DIIS                CNVKDIIS        .... off
 Trust-Rad. Augm. Hess. CNVTRAH         .... auto
   Auto Start mean grad. ratio tolernc. ....  1.125000
   Auto Start start iteration           ....    50
   Auto Start num. interpolation iter.  ....    10
   Max. Number of Micro iterations      ....    24
   Max. Number of Macro iterations      .... Maxiter - #DIIS iter
   Number of Davidson start vectors     ....     2
   Converg. threshold    (grad. norm)   ....   1.000e-05
   Grad. Scal. Fac. for Micro threshold ....   0.100
   Minimum threshold for Micro iter.    ....   1.000e-02
   NR start threshold (gradient norm)   ....   1.000e-04
   Initial trust radius                 ....   0.400
   Minimum AH scaling param. (alpha)    ....   1.000
   Maximum AH scaling param. (alpha)    .... 1000.000
   Quad. conv. algorithm                .... NR
   White noise on init. David. guess    .... on
   Maximum white noise                  ....   0.010
   Pseudo random numbers                .... off
   Inactive MOs                         .... canonical
   Orbital update algorithm             .... Taylor
   Preconditioner                       .... Diag
   Full preconditioner red. dimension   ....   250
 SOSCF                  CNVSOSCF        .... on
   Start iteration      SOSCFMaxIt      ....   150
   Startup grad/error   SOSCFStart      ....  0.003300
   Hessian update       SOSCFHessUp     .... L-BFGS
 Level Shifting         CNVShift        .... on
   Level shift para.    LevelShift      ....    0.2500
   Turn off err/grad.   ShiftErr        ....    0.0010
 Zerner damping         CNVZerner       .... off
 Static damping         CNVDamp         .... on
   Fraction old density DampFac         ....    0.7000
   Max. Damping (<1)    DampMax         ....    0.9800
   Min. Damping (>=0)   DampMin         ....    0.0000
   Turn off err/grad.   DampErr         ....    0.1000

SCF Procedure:
 Maximum # iterations   MaxIter         ....   125
 SCF integral mode      SCFMode         .... Direct
   Integral package                     .... SHARK and LIBINT hybrid scheme
 Reset frequency        DirectResetFreq ....    20
 Integral Threshold     Thresh          ....  2.500e-11 Eh
 Primitive CutOff       TCut            ....  2.500e-12 Eh

Convergence Tolerance:
 Convergence Check Mode ConvCheckMode   .... Total+1el-Energy
 Convergence forced     ConvForced      .... 0
 Energy Change          TolE            ....  1.000e-08 Eh
 1-El. energy change                    ....  1.000e-05 Eh
 Orbital Gradient       TolG            ....  1.000e-05
 Orbital Rotation angle TolX            ....  1.000e-05
 DIIS Error             TolErr          ....  5.000e-07

------------------------------
INITIAL GUESS: MODEL POTENTIAL
------------------------------
Loading Hartree-Fock densities                     ... done
Atomic calculation to generate a density for atom 0 (C  with ECP)
  Multiplicity assumed   :    1
  Atomic configuration   : 1s2 2s2 2p2 
  Number of open shells  : 1
  Command: /home/aspe232/Project/Software/ORCA/6_0_1/build/orca ./output/carvacrol_methyl_ether/carvacrol_methyl_ether_atom6.inp "" > ./output/carvacrol_methyl_ether/carvacrol_methyl_ether_atom6.out
Returned from the atomic calculation with res=0
Atomic calculation to generate a density for atom 10 (O  with ECP)
  Multiplicity assumed   :    3
  Atomic configuration   : 1s2 2s2 2p4 
  Number of open shells  : 1
  Command: /home/aspe232/Project/Software/ORCA/6_0_1/build/orca ./output/carvacrol_methyl_ether/carvacrol_methyl_ether_atom8.inp "" > ./output/carvacrol_methyl_ether/carvacrol_methyl_ether_atom8.out
Returned from the atomic calculation with res=0
Calculating cut-offs                               ... done
Initializing the effective Hamiltonian             ... done
Setting up the integral package (SHARK)            ... done
Starting the Coulomb interaction                   ... done (   0.1 sec)
Making the grid                                    ... done (   0.8 sec)
Mapping shells                                     ... done
Starting the XC term evaluation                    ... done (   0.0 sec)
  promolecular density results
     # of electrons  =     89.995951763
     EX              =    -46.101433500
     EC              =     -3.635158006
     EX+EC           =    -49.736591506
Transforming the Hamiltonian                       ... done (   0.0 sec)
Diagonalizing the Hamiltonian                      ... done (   0.0 sec)
Back transforming the eigenvectors                 ... done (   0.0 sec)
Now organizing SCF variables                       ... done
                      ------------------
                      INITIAL GUESS DONE (   1.9 sec)
                      ------------------
             **** ENERGY FILE WAS UPDATED (./output/carvacrol_methyl_ether/carvacrol_methyl_ether.en.tmp) ****
Finished Guess after   2.5 sec
Maximum memory used throughout the entire GUESS-calculation: 22.7 MB


           ************************************************************
           *        Program running with 40 parallel MPI-processes    *
           *              working on a common directory               *
           ************************************************************

-------------------------------------------------------------------------------------------
                                      ORCA LEAN-SCF
                              memory conserving SCF solver
-------------------------------------------------------------------------------------------

----------------------------------------D-I-I-S--------------------------------------------
Iteration    Energy (Eh)           Delta-E    RMSDP     MaxDP     DIISErr   Damp  Time(sec)
-------------------------------------------------------------------------------------------
               ***  Starting incremental Fock matrix formation  ***
    1    -87.8930797431235646     0.00e+00  3.84e-03  8.05e-02  1.69e-01  0.700   5.3
    2    -88.0654652547448222    -1.72e-01  2.85e-03  5.98e-02  1.03e-01  0.700   3.9
                               ***Turning on AO-DIIS***
    3    -88.1582253961523747    -9.28e-02  1.56e-03  3.36e-02  5.56e-02  0.700   3.4
    4    -88.2131851946194843    -5.50e-02  3.39e-03  7.02e-02  3.47e-02  0.000   3.5
    5    -88.3283409050312116    -1.15e-01  2.26e-04  4.32e-03  3.49e-03  0.000   3.9
                              *** Initializing SOSCF ***
---------------------------------------S-O-S-C-F--------------------------------------
Iteration    Energy (Eh)           Delta-E    RMSDP     MaxDP     MaxGrad    Time(sec)
--------------------------------------------------------------------------------------
    6    -88.3286220150126269    -2.81e-04  1.01e-04  1.88e-03  1.20e-03     4.0
               *** Restarting incremental Fock matrix formation ***
    7    -88.3286762531387808    -5.42e-05  6.60e-05  1.07e-03  6.93e-04     4.8
    8    -88.3286874827590509    -1.12e-05  4.45e-05  8.44e-04  2.81e-04     4.4
    9    -88.3286907520190994    -3.27e-06  1.35e-05  1.74e-04  8.25e-05     4.2
   10    -88.3286911143040925    -3.62e-07  4.21e-06  8.68e-05  2.42e-05     4.2
   11    -88.3286911321455364    -1.78e-08  1.42e-06  3.90e-05  1.37e-05     4.2
   12    -88.3286911522676519    -2.01e-08  6.48e-07  1.47e-05  3.76e-06     3.6
   13    -88.3286911497318101     2.54e-09  2.02e-07  8.64e-06  2.21e-06     3.4
                 **** Energy Check signals convergence ****

               *****************************************************
               *                     SUCCESS                       *
               *           SCF CONVERGED AFTER  13 CYCLES          *
               *****************************************************

Recomputing exchange energy using gridx3       ... done (    4.348 sec)
Old exchange energy                            :    -12.658632552 Eh
New exchange energy                            :    -12.658661884 Eh
Exchange energy change after final integration :     -0.000029332 Eh
Total energy after final integration           :    -88.328720482 Eh
             **** ENERGY FILE WAS UPDATED (./output/carvacrol_methyl_ether/carvacrol_methyl_ether.en.tmp) ****

----------------
TOTAL SCF ENERGY
----------------

Total Energy       :        -88.32872048186489 Eh           -2403.54668 eV

Components:
Nuclear Repulsion  :        367.82223758554636 Eh           10008.95193 eV
Electronic Energy  :       -456.15092873527817 Eh          -12412.49781 eV
One Electron Energy:       -862.53885321793848 Eh          -23470.87543 eV
Two Electron Energy:        406.38792448266031 Eh           11058.37762 eV

Virial components:
Potential Energy   :       -156.95521126491701 Eh           -4270.96843 eV
Kinetic Energy     :         68.62649078305212 Eh            1867.42175 eV
Virial Ratio       :          2.28709364960970

DFT components:
N(Alpha)           :       32.999999409455 electrons
N(Beta)            :       32.999999409455 electrons
N(Total)           :       65.999998818910 electrons
E(X)               :      -13.441347296609 Eh       
E(C)               :       -2.486222038686 Eh       
E(XC)              :      -15.927569335295 Eh       

---------------
SCF CONVERGENCE
---------------

  Last Energy change         ...   -2.5358e-09  Tolerance :   1.0000e-08
  Last MAX-Density change    ...    8.6448e-06  Tolerance :   1.0000e-07
  Last RMS-Density change    ...    2.0209e-07  Tolerance :   5.0000e-09
  Last DIIS Error            ...    1.2037e-03  Tolerance :   5.0000e-07
  Last Orbital Gradient      ...    2.2144e-06  Tolerance :   1.0000e-05
  Last Orbital Rotation      ...    4.7664e-06  Tolerance :   1.0000e-05


----------------
ORBITAL ENERGIES
----------------

  NO   OCC          E(Eh)            E(eV) 
   0   2.0000      -1.170602       -31.8537 
   1   2.0000      -0.998075       -27.1590 
   2   2.0000      -0.946733       -25.7619 
   3   2.0000      -0.890169       -24.2227 
   4   2.0000      -0.884586       -24.0708 
   5   2.0000      -0.831613       -22.6293 
   6   2.0000      -0.813145       -22.1268 
   7   2.0000      -0.800518       -21.7832 
   8   2.0000      -0.728268       -19.8172 
   9   2.0000      -0.726046       -19.7567 
  10   2.0000      -0.679705       -18.4957 
  11   2.0000      -0.622191       -16.9307 
  12   2.0000      -0.608622       -16.5615 
  13   2.0000      -0.591270       -16.0893 
  14   2.0000      -0.581949       -15.8356 
  15   2.0000      -0.566869       -15.4253 
  16   2.0000      -0.546721       -14.8770 
  17   2.0000      -0.538053       -14.6412 
  18   2.0000      -0.530743       -14.4423 
  19   2.0000      -0.527408       -14.3515 
  20   2.0000      -0.520457       -14.1624 
  21   2.0000      -0.493458       -13.4277 
  22   2.0000      -0.493127       -13.4187 
  23   2.0000      -0.470371       -12.7994 
  24   2.0000      -0.468108       -12.7379 
  25   2.0000      -0.457639       -12.4530 
  26   2.0000      -0.451659       -12.2903 
  27   2.0000      -0.445029       -12.1099 
  28   2.0000      -0.429709       -11.6930 
  29   2.0000      -0.419190       -11.4067 
  30   2.0000      -0.411720       -11.2035 
  31   2.0000      -0.334255        -9.0955 
  32   2.0000      -0.306782        -8.3480 
  33   0.0000       0.072011         1.9595 
  34   0.0000       0.079136         2.1534 
  35   0.0000       0.083115         2.2617 
  36   0.0000       0.095092         2.5876 
  37   0.0000       0.095782         2.6064 
  38   0.0000       0.114577         3.1178 
  39   0.0000       0.119375         3.2484 
  40   0.0000       0.119507         3.2520 
  41   0.0000       0.132260         3.5990 
  42   0.0000       0.147104         4.0029 
  43   0.0000       0.151543         4.1237 
*Only the first 10 virtual orbitals were printed.

                    ********************************
                    * MULLIKEN POPULATION ANALYSIS *
                    ********************************

-----------------------
MULLIKEN ATOMIC CHARGES
-----------------------
   0 C :   -0.083698
   1 C :   -0.062669
   2 C :    0.111274
   3 C :   -0.015181
   4 C :   -0.051926
   5 C :    0.010786
   6 C :    0.024156
   7 C :   -0.116933
   8 C :   -0.066718
   9 C :   -0.066408
  10 O :   -0.359475
  11 C :    0.077234
  12 H :    0.057457
  13 H :    0.034442
  14 H :    0.057258
  15 H :    0.000012
  16 H :    0.005985
  17 H :    0.015456
  18 H :    0.039684
  19 H :    0.034211
  20 H :    0.049580
  21 H :    0.034407
  22 H :    0.049398
  23 H :    0.034142
  24 H :    0.034509
  25 H :    0.044961
  26 H :    0.062671
  27 H :    0.045382
Sum of atomic charges:   -0.0000000

--------------------------------
MULLIKEN REDUCED ORBITAL CHARGES
--------------------------------
  0 C s       :     0.952976  s :     0.952976
      pz      :     1.051590  p :     3.056533
      px      :     0.984151
      py      :     1.020792
      dz2     :     0.011664  d :     0.074189
      dxz     :     0.013370
      dyz     :     0.016637
      dx2y2   :     0.014128
      dxy     :     0.018390

  1 C s       :     1.047671  s :     1.047671
      pz      :     0.982634  p :     2.899574
      px      :     0.960628
      py      :     0.956311
      dz2     :     0.019385  d :     0.115424
      dxz     :     0.022278
      dyz     :     0.016231
      dx2y2   :     0.030610
      dxy     :     0.026920

  2 C s       :     1.068378  s :     1.068378
      pz      :     0.897241  p :     2.654627
      px      :     0.790373
      py      :     0.967013
      dz2     :     0.029758  d :     0.165721
      dxz     :     0.036258
      dyz     :     0.019390
      dx2y2   :     0.039645
      dxy     :     0.040670

  3 C s       :     0.977897  s :     0.977897
      pz      :     1.014514  p :     2.949044
      px      :     0.945008
      py      :     0.989522
      dz2     :     0.010415  d :     0.088240
      dxz     :     0.018855
      dyz     :     0.013478
      dx2y2   :     0.024548
      dxy     :     0.020946

  4 C s       :     1.042518  s :     1.042518
      pz      :     0.969292  p :     2.888442
      px      :     0.949887
      py      :     0.969263
      dz2     :     0.022341  d :     0.120966
      dxz     :     0.022984
      dyz     :     0.016090
      dx2y2   :     0.028561
      dxy     :     0.030990

  5 C s       :     0.983002  s :     0.983002
      pz      :     0.988000  p :     2.913998
      px      :     0.965794
      py      :     0.960204
      dz2     :     0.011163  d :     0.092214
      dxz     :     0.021127
      dyz     :     0.012437
      dx2y2   :     0.023996
      dxy     :     0.023491

  6 C s       :     1.002047  s :     1.002047
      pz      :     0.958260  p :     2.877484
      px      :     0.945146
      py      :     0.974078
      dz2     :     0.011183  d :     0.096313
      dxz     :     0.021838
      dyz     :     0.013731
      dx2y2   :     0.027044
      dxy     :     0.022517

  7 C s       :     1.045478  s :     1.045478
      pz      :     0.988968  p :     2.944710
      px      :     0.949030
      py      :     1.006711
      dz2     :     0.022684  d :     0.126745
      dxz     :     0.023323
      dyz     :     0.030536
      dx2y2   :     0.024265
      dxy     :     0.025938

  8 C s       :     0.966406  s :     0.966406
      pz      :     1.028067  p :     3.026078
      px      :     0.987391
      py      :     1.010620
      dz2     :     0.015187  d :     0.074233
      dxz     :     0.009380
      dyz     :     0.017948
      dx2y2   :     0.012829
      dxy     :     0.018890

  9 C s       :     0.966356  s :     0.966356
      pz      :     0.965175  p :     3.025819
      px      :     1.036430
      py      :     1.024215
      dz2     :     0.015293  d :     0.074233
      dxz     :     0.012392
      dyz     :     0.021221
      dx2y2   :     0.005453
      dxy     :     0.019875

 10 O s       :     1.709102  s :     1.709102
      pz      :     1.577355  p :     4.612774
      px      :     1.529275
      py      :     1.506144
      dz2     :     0.005906  d :     0.037600
      dxz     :     0.007855
      dyz     :     0.006965
      dx2y2   :     0.010386
      dxy     :     0.006488

 11 C s       :     0.984694  s :     0.984694
      pz      :     0.928719  p :     2.822513
      px      :     1.085013
      py      :     0.808780
      dz2     :     0.019996  d :     0.115559
      dxz     :     0.025046
      dyz     :     0.027090
      dx2y2   :     0.029563
      dxy     :     0.013865

 12 H s       :     0.898852  s :     0.898852
      pz      :     0.021569  p :     0.043691
      px      :     0.011109
      py      :     0.011014

 13 H s       :     0.921566  s :     0.921566
      pz      :     0.014958  p :     0.043992
      px      :     0.009979
      py      :     0.019056

 14 H s       :     0.899037  s :     0.899037
      pz      :     0.011804  p :     0.043704
      px      :     0.017238
      py      :     0.014662

 15 H s       :     0.946333  s :     0.946333
      pz      :     0.019095  p :     0.053655
      px      :     0.011239
      py      :     0.023321

 16 H s       :     0.942799  s :     0.942799
      pz      :     0.017473  p :     0.051216
      px      :     0.020337
      py      :     0.013406

 17 H s       :     0.934310  s :     0.934310
      pz      :     0.017818  p :     0.050235
      px      :     0.010083
      py      :     0.022334

 18 H s       :     0.919626  s :     0.919626
      pz      :     0.014148  p :     0.040690
      px      :     0.008827
      py      :     0.017715

 19 H s       :     0.922596  s :     0.922596
      pz      :     0.010157  p :     0.043193
      px      :     0.019623
      py      :     0.013412

 20 H s       :     0.907810  s :     0.907810
      pz      :     0.020563  p :     0.042611
      px      :     0.010409
      py      :     0.011639

 21 H s       :     0.921974  s :     0.921974
      pz      :     0.014242  p :     0.043619
      px      :     0.010836
      py      :     0.018541

 22 H s       :     0.907999  s :     0.907999
      pz      :     0.011956  p :     0.042603
      px      :     0.016958
      py      :     0.013689

 23 H s       :     0.922666  s :     0.922666
      pz      :     0.009905  p :     0.043193
      px      :     0.018977
      py      :     0.014310

 24 H s       :     0.921873  s :     0.921873
      pz      :     0.015583  p :     0.043618
      px      :     0.010769
      py      :     0.017266

 25 H s       :     0.914254  s :     0.914254
      pz      :     0.012449  p :     0.040785
      px      :     0.010910
      py      :     0.017427

 26 H s       :     0.896918  s :     0.896918
      pz      :     0.011090  p :     0.040411
      px      :     0.022537
      py      :     0.006784

 27 H s       :     0.913852  s :     0.913852
      pz      :     0.017267  p :     0.040765
      px      :     0.016276
      py      :     0.007222



                     *******************************
                     * LOEWDIN POPULATION ANALYSIS *
                     *******************************

----------------------
LOEWDIN ATOMIC CHARGES
----------------------
   0 C :   -0.112683
   1 C :   -0.045344
   2 C :   -0.002349
   3 C :   -0.050744
   4 C :   -0.026714
   5 C :   -0.052481
   6 C :   -0.037733
   7 C :   -0.088390
   8 C :   -0.112974
   9 C :   -0.112951
  10 O :   -0.073727
  11 C :   -0.060511
  12 H :    0.055745
  13 H :    0.051924
  14 H :    0.055738
  15 H :    0.035287
  16 H :    0.037714
  17 H :    0.046221
  18 H :    0.053172
  19 H :    0.046650
  20 H :    0.050833
  21 H :    0.045014
  22 H :    0.050810
  23 H :    0.046630
  24 H :    0.045026
  25 H :    0.046057
  26 H :    0.063672
  27 H :    0.046107

-------------------------------
LOEWDIN REDUCED ORBITAL CHARGES
-------------------------------
  0 C s       :     0.775801  s :     0.775801
      pz      :     1.066005  p :     3.098072
      px      :     0.994006
      py      :     1.038061
      dz2     :     0.036366  d :     0.238811
      dxz     :     0.042744
      dyz     :     0.055141
      dx2y2   :     0.046618
      dxy     :     0.057942

  1 C s       :     0.784386  s :     0.784386
      pz      :     0.945669  p :     2.895281
      px      :     0.985213
      py      :     0.964399
      dz2     :     0.055743  d :     0.365676
      dxz     :     0.070489
      dyz     :     0.056525
      dx2y2   :     0.095426
      dxy     :     0.087494

  2 C s       :     0.774801  s :     0.774801
      pz      :     0.886127  p :     2.740730
      px      :     0.883115
      py      :     0.971489
      dz2     :     0.079969  d :     0.486817
      dxz     :     0.108113
      dyz     :     0.060460
      dx2y2   :     0.122330
      dxy     :     0.115946

  3 C s       :     0.794812  s :     0.794812
      pz      :     0.974195  p :     2.968257
      px      :     0.992766
      py      :     1.001296
      dz2     :     0.031021  d :     0.287675
      dxz     :     0.059842
      dyz     :     0.044827
      dx2y2   :     0.083949
      dxy     :     0.068036

  4 C s       :     0.783423  s :     0.783423
      pz      :     0.925285  p :     2.866292
      px      :     0.973877
      py      :     0.967129
      dz2     :     0.063376  d :     0.376999
      dxz     :     0.071006
      dyz     :     0.054940
      dx2y2   :     0.089774
      dxy     :     0.097902

  5 C s       :     0.792222  s :     0.792222
      pz      :     0.957627  p :     2.960221
      px      :     1.018757
      py      :     0.983837
      dz2     :     0.032699  d :     0.300037
      dxz     :     0.066118
      dyz     :     0.044232
      dx2y2   :     0.077610
      dxy     :     0.079378

  6 C s       :     0.798200  s :     0.798200
      pz      :     0.938021  p :     2.932468
      px      :     1.005820
      py      :     0.988627
      dz2     :     0.031899  d :     0.307065
      dxz     :     0.068121
      dyz     :     0.045321
      dx2y2   :     0.092014
      dxy     :     0.069710

  7 C s       :     0.754131  s :     0.754131
      pz      :     0.986544  p :     2.946923
      px      :     0.958883
      py      :     1.001495
      dz2     :     0.068196  d :     0.387337
      dxz     :     0.070387
      dyz     :     0.095404
      dx2y2   :     0.076129
      dxy     :     0.077221

  8 C s       :     0.780843  s :     0.780843
      pz      :     1.047324  p :     3.088238
      px      :     1.009093
      py      :     1.031822
      dz2     :     0.049979  d :     0.243893
      dxz     :     0.030824
      dyz     :     0.058763
      dx2y2   :     0.043762
      dxy     :     0.060564

  9 C s       :     0.780845  s :     0.780845
      pz      :     0.983826  p :     3.088207
      px      :     1.054783
      py      :     1.049598
      dz2     :     0.050016  d :     0.243900
      dxz     :     0.040591
      dyz     :     0.071358
      dx2y2   :     0.017073
      dxy     :     0.064861

 10 O s       :     1.390645  s :     1.390645
      pz      :     1.549192  p :     4.582106
      px      :     1.537221
      py      :     1.495693
      dz2     :     0.017017  d :     0.100976
      dxz     :     0.020576
      dyz     :     0.019285
      dx2y2   :     0.024232
      dxy     :     0.019867

 11 C s       :     0.784812  s :     0.784812
      pz      :     0.969749  p :     2.927175
      px      :     1.091519
      py      :     0.865907
      dz2     :     0.053597  d :     0.348524
      dxz     :     0.076774
      dyz     :     0.086995
      dx2y2   :     0.093862
      dxy     :     0.037296

 12 H s       :     0.798001  s :     0.798001
      pz      :     0.062845  p :     0.146254
      px      :     0.042084
      py      :     0.041324

 13 H s       :     0.805376  s :     0.805376
      pz      :     0.049678  p :     0.142699
      px      :     0.036869
      py      :     0.056152

 14 H s       :     0.798015  s :     0.798015
      pz      :     0.043165  p :     0.146247
      px      :     0.054248
      py      :     0.048834

 15 H s       :     0.806585  s :     0.806585
      pz      :     0.056114  p :     0.158128
      px      :     0.036886
      py      :     0.065128

 16 H s       :     0.809155  s :     0.809155
      pz      :     0.051777  p :     0.153131
      px      :     0.058770
      py      :     0.042584

 17 H s       :     0.805006  s :     0.805006
      pz      :     0.051591  p :     0.148773
      px      :     0.034685
      py      :     0.062497

 18 H s       :     0.801929  s :     0.801929
      pz      :     0.050700  p :     0.144899
      px      :     0.036122
      py      :     0.058077

 19 H s       :     0.808123  s :     0.808123
      pz      :     0.040125  p :     0.145227
      px      :     0.058642
      py      :     0.046461

 20 H s       :     0.804610  s :     0.804610
      pz      :     0.061119  p :     0.144558
      px      :     0.040269
      py      :     0.043169

 21 H s       :     0.809447  s :     0.809447
      pz      :     0.048483  p :     0.145539
      px      :     0.040459
      py      :     0.056596

 22 H s       :     0.804643  s :     0.804643
      pz      :     0.043255  p :     0.144548
      px      :     0.053708
      py      :     0.047584

 23 H s       :     0.808145  s :     0.808145
      pz      :     0.038457  p :     0.145225
      px      :     0.058468
      py      :     0.048299

 24 H s       :     0.809439  s :     0.809439
      pz      :     0.049812  p :     0.145535
      px      :     0.041070
      py      :     0.054653

 25 H s       :     0.815336  s :     0.815336
      pz      :     0.041973  p :     0.138607
      px      :     0.041832
      py      :     0.054802

 26 H s       :     0.802987  s :     0.802987
      pz      :     0.039196  p :     0.133341
      px      :     0.065191
      py      :     0.028954

 27 H s       :     0.815279  s :     0.815279
      pz      :     0.054712  p :     0.138614
      px      :     0.053912
      py      :     0.029989



                      *****************************
                      * MAYER POPULATION ANALYSIS *
                      *****************************

  NA   - Mulliken gross atomic population
  ZA   - Total nuclear charge
  QA   - Mulliken gross atomic charge
  VA   - Mayer's total valence
  BVA  - Mayer's bonded valence
  FA   - Mayer's free valence

  ATOM       NA         ZA         QA         VA         BVA        FA
  0 C      4.0837     4.0000    -0.0837     3.9858     3.9858    -0.0000
  1 C      4.0627     4.0000    -0.0627     4.1164     4.1164    -0.0000
  2 C      3.8887     4.0000     0.1113     4.1153     4.1153    -0.0000
  3 C      4.0152     4.0000    -0.0152     4.0407     4.0407    -0.0000
  4 C      4.0519     4.0000    -0.0519     4.1184     4.1184    -0.0000
  5 C      3.9892     4.0000     0.0108     4.0464     4.0464     0.0000
  6 C      3.9758     4.0000     0.0242     4.0552     4.0552     0.0000
  7 C      4.1169     4.0000    -0.1169     4.0685     4.0685    -0.0000
  8 C      4.0667     4.0000    -0.0667     3.9559     3.9559    -0.0000
  9 C      4.0664     4.0000    -0.0664     3.9559     3.9559     0.0000
 10 O      6.3595     6.0000    -0.3595     2.0061     2.0061    -0.0000
 11 C      3.9228     4.0000     0.0772     3.9472     3.9472    -0.0000
 12 H      0.9425     1.0000     0.0575     1.0196     1.0196    -0.0000
 13 H      0.9656     1.0000     0.0344     1.0288     1.0288     0.0000
 14 H      0.9427     1.0000     0.0573     1.0199     1.0199     0.0000
 15 H      1.0000     1.0000     0.0000     1.0483     1.0483    -0.0000
 16 H      0.9940     1.0000     0.0060     1.0375     1.0375     0.0000
 17 H      0.9845     1.0000     0.0155     1.0409     1.0409     0.0000
 18 H      0.9603     1.0000     0.0397     1.0034     1.0034    -0.0000
 19 H      0.9658     1.0000     0.0342     1.0265     1.0265    -0.0000
 20 H      0.9504     1.0000     0.0496     1.0200     1.0200    -0.0000
 21 H      0.9656     1.0000     0.0344     1.0273     1.0273    -0.0000
 22 H      0.9506     1.0000     0.0494     1.0201     1.0201     0.0000
 23 H      0.9659     1.0000     0.0341     1.0264     1.0264    -0.0000
 24 H      0.9655     1.0000     0.0345     1.0271     1.0271     0.0000
 25 H      0.9550     1.0000     0.0450     1.0154     1.0154     0.0000
 26 H      0.9373     1.0000     0.0627     1.0261     1.0261    -0.0000
 27 H      0.9546     1.0000     0.0454     1.0152     1.0152     0.0000

  Mayer bond orders larger than 0.100000
B(  0-C ,  1-C ) :   1.0310 B(  0-C , 12-H ) :   0.9765 B(  0-C , 13-H ) :   0.9958 
B(  0-C , 14-H ) :   0.9767 B(  1-C ,  2-C ) :   1.4324 B(  1-C ,  6-C ) :   1.4375 
B(  2-C ,  3-C ) :   1.4207 B(  2-C , 10-O ) :   1.0289 B(  3-C ,  4-C ) :   1.4595 
B(  3-C , 15-H ) :   0.9827 B(  4-C ,  5-C ) :   1.4402 B(  4-C ,  7-C ) :   1.0172 
B(  5-C ,  6-C ) :   1.4466 B(  5-C , 16-H ) :   0.9890 B(  6-C , 17-H ) :   0.9873 
B(  7-C ,  8-C ) :   0.9904 B(  7-C ,  9-C ) :   0.9907 B(  7-C , 18-H ) :   0.9989 
B(  8-C , 19-H ) :   0.9949 B(  8-C , 20-H ) :   0.9954 B(  8-C , 21-H ) :   0.9929 
B(  9-C , 22-H ) :   0.9953 B(  9-C , 23-H ) :   0.9948 B(  9-C , 24-H ) :   0.9929 
B( 10-O , 11-C ) :   0.9320 B( 11-C , 25-H ) :   0.9916 B( 11-C , 26-H ) :   1.0026 
B( 11-C , 27-H ) :   0.9914 

-------
TIMINGS
-------

Total SCF time: 0 days 0 hours 1 min 2 sec 

Total time                  ....      62.046 sec
Sum of individual times     ....      59.789 sec  ( 96.4%)

SCF preparation             ....       2.563 sec  (  4.1%)
Fock matrix formation       ....      55.917 sec  ( 90.1%)
  Startup                   ....       0.121 sec  (  0.2% of F)
  Split-RI-J                ....       1.934 sec  (  3.5% of F)
  Chain of spheres X        ....      26.236 sec  ( 46.9% of F)
  XC integration            ....      27.021 sec  ( 48.3% of F)
    XC Preparation          ....       0.000 sec  (  0.0% of XC)
    Basis function eval.    ....       0.655 sec  (  2.4% of XC)
    Density eval.           ....       0.318 sec  (  1.2% of XC)
    XC-Functional eval.     ....       0.190 sec  (  0.7% of XC)
    XC-Potential eval.      ....       0.349 sec  (  1.3% of XC)
Diagonalization             ....       0.000 sec  (  0.0%)
Density matrix formation    ....       0.216 sec  (  0.3%)
Total Energy calculation    ....       0.206 sec  (  0.3%)
Population analysis         ....       0.054 sec  (  0.1%)
Orbital Transformation      ....       0.062 sec  (  0.1%)
Orbital Orthonormalization  ....       0.000 sec  (  0.0%)
DIIS solution               ....       0.420 sec  (  0.7%)
SOSCF solution              ....       0.351 sec  (  0.6%)
Finished LeanSCF after  62.1 sec

Maximum memory used throughout the entire LEANSCF-calculation: 45.0 MB


           ************************************************************
           *        Program running with 40 parallel MPI-processes    *
[...]
 30:    890.21   0.004264   21.55  0.001495  (-0.010722 -0.021367 -0.030388)
 31:    899.84   0.000948    4.79  0.000329  (-0.017383  0.001904  0.004804)
 32:    953.05   0.000218    1.10  0.000071  ( 0.002278  0.004628  0.006695)
 33:    983.30   0.002934   14.83  0.000931  ( 0.028675  0.000586 -0.010414)
 34:    984.96   0.000051    0.26  0.000016  ( 0.001072  0.002138  0.003226)
 35:    994.91   0.000037    0.19  0.000012  (-0.000853 -0.001920 -0.002695)
 36:   1035.16   0.005087   25.71  0.001534  ( 0.037310 -0.010528 -0.005552)
 37:   1088.25   0.000491    2.48  0.000141  (-0.003160 -0.006570 -0.009358)
 38:   1105.30   0.002297   11.61  0.000648  ( 0.017075 -0.017707  0.006587)
 39:   1117.29   0.004846   24.49  0.001353  (-0.009895 -0.027326  0.022557)
 40:   1171.65   0.000189    0.96  0.000050  ( 0.001870  0.003902  0.005623)
 41:   1186.69   0.006861   34.67  0.001804  ( 0.017230  0.028661 -0.026190)
 42:   1198.93   0.001577    7.97  0.000410  ( 0.003584  0.015743 -0.012236)
 43:   1204.68   0.000169    0.86  0.000044  (-0.001779 -0.003634 -0.005240)
 44:   1229.91   0.003553   17.96  0.000902  (-0.001970 -0.024188  0.017680)
 45:   1256.12   0.005232   26.44  0.001300  (-0.011328 -0.026001  0.022261)
 46:   1265.22   0.000251    1.27  0.000062  (-0.002010  0.006543 -0.003894)
 47:   1319.31   0.015594   78.80  0.003688  (-0.040249 -0.029345  0.034747)
 48:   1346.43   0.008020   40.53  0.001859  ( 0.036431  0.010847 -0.020346)
 49:   1370.73   0.017746   89.68  0.004040  ( 0.040580  0.032188 -0.036840)
 50:   1380.15   0.000089    0.45  0.000020  ( 0.001220  0.002482  0.003530)
 51:   1397.06   0.001284    6.49  0.000287  ( 0.006825 -0.013727  0.007197)
 52:   1434.94   0.002366   11.96  0.000515  ( 0.006070  0.012525  0.017914)
 53:   1449.54   0.000197    0.99  0.000042  (-0.003904  0.004812 -0.001998)
 54:   1452.65   0.000793    4.01  0.000170  ( 0.012566 -0.002168 -0.002790)
 55:   1489.16   0.009069   45.83  0.001901  ( 0.034080  0.015088 -0.022614)
 56:   1508.92   0.001904    9.62  0.000394  (-0.005511 -0.011042 -0.015537)
 57:   1514.91   0.000003    0.02  0.000001  ( 0.000278  0.000440  0.000637)
 58:   1516.04   0.000082    0.41  0.000017  ( 0.003708  0.000724 -0.001593)
 59:   1518.60   0.000757    3.82  0.000155  ( 0.003415  0.006694  0.009951)
 60:   1528.38   0.002211   11.17  0.000451  ( 0.006082  0.011781  0.016603)
 61:   1529.58   0.003588   18.13  0.000732  ( 0.013406  0.016996 -0.016232)
 62:   1532.36   0.001288    6.51  0.000262  (-0.002832 -0.012571  0.009814)
 63:   1537.77   0.006658   33.65  0.001351  (-0.030810 -0.009327  0.017744)
 64:   1542.01   0.010514   53.13  0.002128  ( 0.019241  0.030834 -0.028405)
 65:   1599.36   0.015808   79.89  0.003084  ( 0.048380  0.011275 -0.024832)
 66:   1694.93   0.009541   48.22  0.001757  ( 0.017492  0.028008 -0.025812)
 67:   1729.56   0.008200   41.44  0.001480  (-0.035111 -0.004188  0.015141)
 68:   3087.43   0.010001   50.54  0.001011  (-0.006785 -0.024296  0.019352)
 69:   3098.01   0.006106   30.86  0.000615  ( 0.006158  0.013672  0.019755)
 70:   3099.15   0.005307   26.82  0.000534  (-0.016238 -0.010704  0.012495)
 71:   3102.23   0.005539   27.99  0.000557  (-0.019243  0.013340 -0.002978)
 72:   3110.48   0.006578   33.24  0.000660  (-0.020932  0.014590 -0.002993)
 73:   3172.91   0.004911   24.82  0.000483  (-0.005976 -0.012131 -0.017323)
 74:   3187.37   0.000004    0.02  0.000000  (-0.000349  0.000170 -0.000482)
 75:   3190.75   0.009400   47.50  0.000919  (-0.019055  0.021883 -0.008796)
 76:   3193.50   0.001258    6.36  0.000123  ( 0.003113  0.006163  0.008676)
 77:   3196.21   0.002108   10.65  0.000206  (-0.004195 -0.008022 -0.011129)
 78:   3197.57   0.004050   20.47  0.000395  (-0.015849 -0.006375  0.010172)
 79:   3213.83   0.001610    8.13  0.000156  (-0.002437 -0.009588  0.007644)
 80:   3224.64   0.001993   10.07  0.000193  (-0.012534 -0.001934  0.005658)
 81:   3238.94   0.001981   10.01  0.000191  (-0.007952  0.010352 -0.004524)
 82:   3260.16   0.002552   12.90  0.000244  ( 0.008494  0.009117 -0.009435)
 83:   3272.67   0.000971    4.91  0.000093  (-0.001117 -0.007602  0.005792)

* The epsilon (eps) is given for a Dirac delta lineshape.
** The dipole moment derivative (T) already includes vibrational overlap.

The first frequency considered to be a vibration is 6
The total number of vibrations considered is 78


--------------------------
THERMOCHEMISTRY AT 298.15K
--------------------------

Temperature         ...   298.15 K
Pressure            ...     1.00 atm
Total Mass          ...   164.25 AMU
Quasi RRHO          ...     True
Cut-Off Frequency   ...     1.00 cm^-1

Throughout the following assumptions are being made:
  (1) The electronic state is orbitally nondegenerate
  (2) There are no thermally accessible electronically excited states
  (3) Hindered rotations indicated by low frequency modes are not
      treated as such but are treated as vibrations and this may
      cause some error
  (4) All equations used are the standard statistical mechanics
      equations for an ideal gas
  (5) All vibrations are strictly harmonic

freq.      30.50  E(vib)   ...       0.55 
freq.      82.75  E(vib)   ...       0.48 
freq.     102.16  E(vib)   ...       0.46 
freq.     148.86  E(vib)   ...       0.40 
freq.     167.10  E(vib)   ...       0.39 
freq.     187.33  E(vib)   ...       0.36 
freq.     233.64  E(vib)   ...       0.32 
freq.     235.17  E(vib)   ...       0.32 
freq.     245.73  E(vib)   ...       0.31 
freq.     265.50  E(vib)   ...       0.29 
freq.     293.33  E(vib)   ...       0.27 
freq.     297.24  E(vib)   ...       0.27 
freq.     349.08  E(vib)   ...       0.23 
freq.     392.22  E(vib)   ...       0.20 
freq.     450.58  E(vib)   ...       0.17 
freq.     483.18  E(vib)   ...       0.15 
freq.     508.39  E(vib)   ...       0.14 
freq.     545.18  E(vib)   ...       0.12 
freq.     607.11  E(vib)   ...       0.10 
freq.     677.48  E(vib)   ...       0.08 
freq.     722.06  E(vib)   ...       0.07 
freq.     756.75  E(vib)   ...       0.06 
freq.     802.24  E(vib)   ...       0.05 
freq.     851.27  E(vib)   ...       0.04 
freq.     890.21  E(vib)   ...       0.04 
freq.     899.84  E(vib)   ...       0.03 
freq.     953.05  E(vib)   ...       0.03 
freq.     983.30  E(vib)   ...       0.02 
freq.     984.96  E(vib)   ...       0.02 
freq.     994.91  E(vib)   ...       0.02 
freq.    1035.16  E(vib)   ...       0.02 
freq.    1088.25  E(vib)   ...       0.02 
freq.    1105.30  E(vib)   ...       0.02 
freq.    1117.29  E(vib)   ...       0.01 
freq.    1171.65  E(vib)   ...       0.01 
freq.    1186.69  E(vib)   ...       0.01 
freq.    1198.93  E(vib)   ...       0.01 
freq.    1204.68  E(vib)   ...       0.01 
freq.    1229.91  E(vib)   ...       0.01 
freq.    1256.12  E(vib)   ...       0.01 
freq.    1265.22  E(vib)   ...       0.01 
freq.    1319.31  E(vib)   ...       0.01 
freq.    1346.43  E(vib)   ...       0.01 
freq.    1370.73  E(vib)   ...       0.01 
freq.    1380.15  E(vib)   ...       0.01 
freq.    1397.06  E(vib)   ...       0.00 
freq.    1434.94  E(vib)   ...       0.00 
freq.    1449.54  E(vib)   ...       0.00 
freq.    1452.65  E(vib)   ...       0.00 
freq.    1489.16  E(vib)   ...       0.00 
freq.    1508.92  E(vib)   ...       0.00 
freq.    1514.91  E(vib)   ...       0.00 
freq.    1516.04  E(vib)   ...       0.00 
freq.    1518.60  E(vib)   ...       0.00 
freq.    1528.38  E(vib)   ...       0.00 
freq.    1529.58  E(vib)   ...       0.00 
freq.    1532.36  E(vib)   ...       0.00 
freq.    1537.77  E(vib)   ...       0.00 
freq.    1542.01  E(vib)   ...       0.00 
freq.    1599.36  E(vib)   ...       0.00 
freq.    1694.93  E(vib)   ...       0.00 
freq.    1729.56  E(vib)   ...       0.00 
freq.    3087.43  E(vib)   ...       0.00 
freq.    3098.01  E(vib)   ...       0.00 
freq.    3099.15  E(vib)   ...       0.00 
freq.    3102.23  E(vib)   ...       0.00 
freq.    3110.48  E(vib)   ...       0.00 
freq.    3172.91  E(vib)   ...       0.00 
freq.    3187.37  E(vib)   ...       0.00 
freq.    3190.75  E(vib)   ...       0.00 
freq.    3193.50  E(vib)   ...       0.00 
freq.    3196.21  E(vib)   ...       0.00 
freq.    3197.57  E(vib)   ...       0.00 
freq.    3213.83  E(vib)   ...       0.00 
freq.    3224.64  E(vib)   ...       0.00 
freq.    3238.94  E(vib)   ...       0.00 
freq.    3260.16  E(vib)   ...       0.00 
freq.    3272.67  E(vib)   ...       0.00 

------------
INNER ENERGY
------------

The inner energy is: U= E(el) + E(ZPE) + E(vib) + E(rot) + E(trans)
    E(el)   - is the total energy from the electronic structure calculation
              = E(kin-el) + E(nuc-el) + E(el-el) + E(nuc-nuc)
    E(ZPE)  - the the zero temperature vibrational energy from the frequency calculation
    E(vib)  - the the finite temperature correction to E(ZPE) due to population
              of excited vibrational states
    E(rot)  - is the rotational thermal energy
    E(trans)- is the translational thermal energy

Summary of contributions to the inner energy U:
Electronic energy                ...    -88.37475421 Eh
Zero point energy                ...      0.25114191 Eh     157.59 kcal/mol
Thermal vibrational correction   ...      0.00985128 Eh       6.18 kcal/mol
Thermal rotational correction    ...      0.00141627 Eh       0.89 kcal/mol
Thermal translational correction ...      0.00141627 Eh       0.89 kcal/mol
-----------------------------------------------------------------------
Total thermal energy                    -88.11092848 Eh


Summary of corrections to the electronic energy:
(perhaps to be used in another calculation)
Total thermal correction                  0.01268382 Eh       7.96 kcal/mol
Non-thermal (ZPE) correction              0.25114191 Eh     157.59 kcal/mol
-----------------------------------------------------------------------
Total correction                          0.26382573 Eh     165.55 kcal/mol


--------
ENTHALPY
--------

The enthalpy is H = U + kB*T
                kB is Boltzmann's constant
Total thermal energy              ...    -88.11092848 Eh 
Thermal Enthalpy correction       ...      0.00094421 Eh       0.59 kcal/mol
-----------------------------------------------------------------------
Total Enthalpy                    ...    -88.10998427 Eh


Note: Only C1 symmetry has been detected, increase convergence thresholds 
      if your molecule has a higher symmetry. Symmetry factor of 1.0 is   
      used for the rotational entropy correction. 
 

Note: Rotational entropy computed according to Herzberg 
Infrared and Raman Spectra, Chapter V,1, Van Nostrand Reinhold, 1945 
Point Group:  C1, Symmetry Number:   1  
Rotational constants in cm-1:     0.050893     0.019834     0.015799 

Vibrational entropy computed according to the QRRHO of S. Grimme
Chem.Eur.J. 2012 18 9955 using a reference frequency of 100.0 cm-1


-------
ENTROPY
-------

The entropy contributions are T*S = T*(S(el)+S(vib)+S(rot)+S(trans))
     S(el)   - electronic entropy
     S(vib)  - vibrational entropy
     S(rot)  - rotational entropy
     S(trans)- translational entropy
The entropies will be listed as multiplied by the temperature to get
units of energy

Electronic entropy                ...      0.00000000 Eh      0.00 kcal/mol
Vibrational entropy               ...      0.01704106 Eh     10.69 kcal/mol
Rotational entropy                ...      0.01472562 Eh      9.24 kcal/mol
Translational entropy             ...      0.01957401 Eh     12.28 kcal/mol
-----------------------------------------------------------------------
Final entropy term                ...      0.05134068 Eh     32.22 kcal/mol

In case the symmetry of your molecule has not been determined correctly
or in case you have a reason to use a different symmetry number we print 
out the resulting rotational entropy values for sn=1,12:

 non-linear molecules -----------------------------------
|  sn= 1 | S(rot)=       0.01472562 Eh      9.24 kcal/mol|
|  sn= 2 | S(rot)=       0.01407116 Eh      8.83 kcal/mol|
|  sn= 3 | S(rot)=       0.01368833 Eh      8.59 kcal/mol|
|  sn= 4 | S(rot)=       0.01341670 Eh      8.42 kcal/mol|
|  sn= 5 | S(rot)=       0.01320602 Eh      8.29 kcal/mol|
|  sn= 6 | S(rot)=       0.01303387 Eh      8.18 kcal/mol|
|  sn= 7 | S(rot)=       0.01288833 Eh      8.09 kcal/mol|
|  sn= 8 | S(rot)=       0.01276225 Eh      8.01 kcal/mol|
|  sn= 9 | S(rot)=       0.01265104 Eh      7.94 kcal/mol|
|  sn=10 | S(rot)=       0.01255156 Eh      7.88 kcal/mol|
|  sn=11 | S(rot)=       0.01246157 Eh      7.82 kcal/mol|
|  sn=12 | S(rot)=       0.01237942 Eh      7.77 kcal/mol|
 linear molecules ---------------------------------------
|  Dinfh | S(rot)=       0.00924210 Eh      5.80 kcal/mol|
|  Cinfv | S(rot)=       0.00989656 Eh      6.21 kcal/mol|
 --------------------------------------------------------


-------------------
GIBBS FREE ENERGY
-------------------

The Gibbs free energy is G = H - T*S

Total enthalpy                    ...    -88.10998427 Eh 
Total entropy correction          ...     -0.05134068 Eh    -32.22 kcal/mol
-----------------------------------------------------------------------
Final Gibbs free energy         ...    -88.16132495 Eh

For completeness - the Gibbs free energy minus the electronic energy
G-E(el)                           ...      0.21342926 Eh    133.93 kcal/mol


Maximum memory used throughout the entire PROP-calculation: 138.6 MB

--------------------------------
SUGGESTED CITATIONS FOR THIS RUN
--------------------------------

Below you find a list of papers that are relevant to this ORCA run
We neither can nor want to force you to cite these papers, but we appreciate if you do
You receive ORCA, which is the product of decades of hard work by many enthusiastic individuals, for free
The only thing we kindly ask in return is that you cite our papers,
We deeply appreciate it, if you show your appreciation for ORCA by not just citing the generic ORCA reference.

Please note that relegating all ORCA citations to the supporting information does *not* help us.
SI sections are not indexed - citations you put there will not count into any citation statistics
But we need these citations in order to attract the funding resources that allow us to do what we are doing

Therefore, if you are a happy ORCA user, please consider citing a few of the papers listed below in the main body of your paper

In addition to the list printed below, the program has created the file ./output/carvacrol_methyl_ether/carvacrol_methyl_ether.bibtex that contains the list in bibtex format
You can import this file easily into all common literature databanks and citation aid programs


List of essential papers. We consider these as the minimum necessary citations

  1. Neese,F.
     Software update: the ORCA program system, version 5.0
     WIRES Comput. Molec. Sci., 2022 12(1)e1606
     doi.org/10.1002/wcms.1606
  2. Mueller,M.; Hansen,A.; Grimme,S.
     wB97X-3c: A composite range-separated hybrid DFT method with a molecule-optimized polarized valence double-zeta basis set
     J. Chem. Phys., 2023 158 014103
     doi.org/10.1063/5.0133026

List of papers to cite with high priority. The work reported in these papers was absolutely
necessary for this run to complete.
Our perspective: the developers of density functionals and basis sets usually get cited in chemistry papers
Good! But without the algorithms to do something with them, the functionals or basis sets would not do anything.
Hence, in our opinion, the algorithm design and method developments papers are equally worthy of getting cited

  1. Neese,F.
     An improvement of the resolution of the identity approximation for the formation of the Coulomb matrix
     J. Comp. Chem., 2003 24(14)1740-1747
     doi.org/10.1002/jcc.10318
  2. Neese,F.; Wennmohs,F.; Hansen,A.; Becker,U.
     Efficient, approximate and parallel Hartree-Fock and hybrid DFT calculations. A 'chain-of-spheres' algorithm for the Hartree-Fock exchange
     Chem. Phys., 2009 356(1-3)98-109
     doi.org/10.1016/j.chemphys.2008.10.036
  3. Bykov,D.; Petrenko,T.; Izsak,R.; Kossmann,S.; Becker,U.; Valeev,E.; Neese,F.
     Efficient implementation of the analytic second derivatives of Hartree-Fock and hybrid DFT energies: a detailed analysis of different approximations
     Molec. Phys., 2015 113 1961-1977
     doi.org/10.1080/00268976.2015.1025114
  4. Helmich-Paris,B.; de Souza,B.; Neese,F.; Izsák,R.
     An improved chain of spheres for exchange algorithm
     J. Chem. Phys., 2021 155 104109
     doi.org/doi: 10.1063/5.0058766.
  5. Neese,F.
     The SHARK Integral Generation and Digestion System
     J. Comp. Chem., 2022  1-16
     doi.org/10.1002/jcc.26942
  6. Caldeweyher,E.; Bannwarth,C.; Grimme,S.
     Extension of the D3 dispersion coefficient model
     J. Chem. Phys., 2017 147 034112
     doi.org/10.1063/1.4993215
  7. Caldeweyher,E.; Ehlert,S.; Hansen,A.; Neugebauer,H.; Spicher,S.; Bannwarth,C.; Grimme,S.
     A generally applicable atomic-charge dependent London dispersion correction
     J. Chem. Phys., 2019 150 154122
     doi.org/10.1063/1.5090222
  8. Caldeweyher,E.; Mewes,J.; Ehlert,S.; Grimme,S.
     Extension and evaluation of the D4 London-dispersion model for periodic systems
     Phys. Chem. Chem. Phys., 2020 22(16)8499-8512
     doi.org/10.1039/D0CP00502A
  9. Wittmann,L.; Gordiy,I.; Friede,M.; Helmich-Paris,B.; Grimme,S.; Hansen,A.; Bursch,M.
     Extension of the D3 and D4 London Dispersion Corrections to the full Actinides Series
     Phys. Chem. Chem. Phys., 2024 26(32)21379-21394
     doi.org/https://doi.org/10.1039/D4CP01514B 

List of suggested additional citations. These are papers that are important in the 'surrounding' of 
of this run, or papers that preceded the highly important papers. If you like your results we are grateful for a citation.

  1. Izsak,R.; Neese,F.
     An overlap fitted chain of spheres exchange method
     J. Chem. Phys., 2011 135 144105
     doi.org/10.1063/1.3646921
  2. Izsak,R.; Hansen,A.; Neese,F.
     The resolution of identity and chain of spheres approximations for the LPNO-CCSD singles Fock term
     Molec. Phys., 2012 110 2413-2417
     doi.org/10.1080/00268976.2012.687466
  3. Neese,F.
     The ORCA program system
     WIRES Comput. Molec. Sci., 2012 2(1)73-78
     doi.org/10.1002/wcms.81
  4. Izsak,R.; Neese,F.; Klopper,W.
     Robust fitting techniques in the chain of spheres approximation to the Fock exchange: The role of the complementary space
     J. Chem. Phys., 2013 139 
     doi.org/10.1063/1.4819264
  5. Neese,F.
     Software update: the ORCA program system, version 4.0
     WIRES Comput. Molec. Sci., 2018 8(1)1-6
     doi.org/10.1002/wcms.1327
  6. Neese,F.; Wennmohs,F.; Becker,U.; Riplinger,C.
     The ORCA quantum chemistry program package
     J. Chem. Phys., 2020 152 Art. No. L224108
     doi.org/10.1063/5.0004608

List of optional additional citations

  1. Neese,F.
     Approximate second-order SCF convergence for spin unrestricted wavefunctions
     Chem. Phys. Lett., 2000 325(1-3)93-98
     doi.org/10.1016/s0009-2614(00)00662-x

Timings for individual modules:

Sum of individual times          ...      610.602 sec (=  10.177 min)
Startup calculation              ...       29.146 sec (=   0.486 min)   4.8 %
SCF iterations                   ...      314.764 sec (=   5.246 min)  51.5 %
Property integrals               ...       56.473 sec (=   0.941 min)   9.2 %
SCF Response                     ...       45.147 sec (=   0.752 min)   7.4 %
Property calculations            ...      104.123 sec (=   1.735 min)  17.1 %
SCF Gradient evaluation          ...       60.838 sec (=   1.014 min)  10.0 %
Geometry relaxation              ...        0.112 sec (=   0.002 min)   0.0 %
                             ****ORCA TERMINATED NORMALLY****
TOTAL RUN TIME: 0 days 0 hours 10 minutes 14 seconds 133 msec
