
                                 *****************
                                 * O   R   C   A *
                                 *****************

                                            #,                                       
                                            ###                                      
                                            ####                                     
                                            #####                                    
                                            ######                                   
                                           ########,                                 
                                     ,,################,,,,,                         
                               ,,#################################,,                 
                          ,,##########################################,,             
                       ,#########################################, ''#####,          
                    ,#############################################,,   '####,        
                  ,##################################################,,,,####,       
                ,###########''''           ''''###############################       
              ,#####''   ,,,,##########,,,,          '''####'''          '####       
            ,##' ,,,,###########################,,,                        '##       
           ' ,,###''''                  '''############,,,                           
         ,,##''                                '''############,,,,        ,,,,,,###''
      ,#''                                            '''#######################'''  
     '                                                          ''''####''''         
             ,#######,   #######,   ,#######,      ##                                
            ,#'     '#,  ##    ##  ,#'     '#,    #''#        ,####,   ,####,        
            ##       ##  ##   ,#'  ##            #'  '#       #'       #'  '#        
            ##       ##  #######   ##           ,######,      #####,   #    #        
            '#,     ,#'  ##    ##  '#,     ,#' ,#      #,     #,   #   #,  ,#        
             '#######'   ##     ##  '#######'  #'      '#     '####' # '####'        



                #########################################################
                #                        -***-                          #
                #          Department of theory and spectroscopy        #
                #                                                       #
                #                      Frank Neese                      #
                #                                                       #
                #     Directorship, Architecture, Infrastructure        #
                #                    SHARK, DRIVERS                     #
                #        Core code/Algorithms in most modules           #
                #                                                       #
                #        Max Planck Institute fuer Kohlenforschung      #
                #                Kaiser Wilhelm Platz 1                 #
                #                 D-45470 Muelheim/Ruhr                 #
                #                      Germany                          #
                #                                                       #
                #                  All rights reserved                  #
                #                        -***-                          #
                #########################################################


                         Program Version 6.0.1  -  RELEASE   -


 With contributions from (in alphabetic order):
[Max-Planck-Institut fuer Kohlenforschung]                               
  Daniel Aravena         : Magnetic Suceptibility                        
  Michael Atanasov       : Ab Initio Ligand Field Theory (pilot matlab implementation)
  Alexander A. Auer      : GIAO ZORA, VPT2 properties, NMR spectrum      
  Ute Becker             : All parallelization in ORCA, NUMFREQ, NUMCALC 
  Giovanni Bistoni       : ED, misc. LED, open-shell LED, HFLD           
  Martin Brehm           : Molecular dynamics                            
  Dmytro Bykov           : pre 5.0 version of the SCF Hessian            
  Marcos Casanova-Páez   : Triplet and SCS-CIS(D). UHF-(DLPNO)-IP/EA/STEOM-CCSD. UHF-CVS-IP/STEOM-CCSD   
  Vijay G. Chilkuri      : MRCI spin determinant printing, contributions to CSF-ICE 
  Pauline Colinet        : FMM embedding                                 
  Dipayan Datta          : RHF DLPNO-CCSD density                        
  Achintya Kumar Dutta   : EOM-CC, STEOM-CC                              
  Nicolas Foglia         : Exact transition moments, OPA infrastructure, MCD improvements    
  Dmitry Ganyushin       : Spin-Orbit,Spin-Spin,Magnetic field MRCI      
  Miquel Garcia-Rates    : C-PCM and meta-GGA Hessian, CCSD/C-PCM, Gaussian charge scheme 
  Tiago L. C. Gouveia    : GS-ROHF, GS-ROCIS                             
  Yang Guo               : DLPNO-NEVPT2, F12-NEVPT2, CIM, IAO-localization        
  Andreas Hansen         : Spin unrestricted coupled pair/coupled cluster methods 
  Ingolf Harden          : AUTO-CI MPn and infrastructure                
  Benjamin Helmich-Paris : MC-RPA, TRAH-(SCF,CASSCF), AVAS, COSX integrals, SCF dyn. polar. 
  Lee Huntington         : MR-EOM, pCC                                   
  Robert Izsak           : Overlap fitted RIJCOSX, COSX-SCS-MP3, EOM     
  Riya Kayal             : Wick's Theorem for AUTO-CI, AUTO-CI UHF-CCSDT 
  Emily Kempfer          : AUTO-CI, RHF CISDT and CCSDT                  
  Christian Kollmar      : KDIIS, OOCD, Brueckner-CCSD(T), CCSD density, CASPT2, CASPT2-K, improved NEVPT2 
  Axel Koslowski         : Symmetry handling                             
  Simone Kossmann        : meta-GGA functionals, TD-DFT gradient, OOMP2, (MP2 Hessian; deprecated post 5.0) 
  Lucas Lang             : DCDCAS                                        
  Marvin Lechner         : AUTO-CI (C++ implementation), FIC-MRCC        
  Spencer Leger          : CASSCF response                               
  Dagmar Lenk            : GEPOL surface, SMD, ORCA-2-JSON               
  Dimitrios Liakos       : Extrapolation schemes; Compound Job, initial MDCI parallelization 
  Dimitrios Manganas     : Further ROCIS development; embedding schemes. LFT, Crystal Embedding 
  Dimitrios Pantazis     : SARC Basis sets                               
  Anastasios Papadopoulos: AUTO-CI, single reference methods and gradients 
  Taras Petrenko         : pre 6.0 DFT Hessian and TD-DFT gradient, (ASA, deprecated), ECA, 1-Electron XAS/XES, NRVS 
  Peter Pinski           : DLPNO-MP2, DLPNO-MP2 Gradient                 
  Christoph Reimann      : Effective Core Potentials                     
  Marius Retegan         : Local ZFS, SOC                                
  Christoph Riplinger    : Optimizer, TS searches, QM/MM, DLPNO-CCSD(T), (RO)-DLPNO pert. Triples 
  Michael Roemelt        : Original ROCIS implementation                 
  Masaaki Saitow         : Open-shell DLPNO-CCSD energy and density      
  Barbara Sandhoefer     : DKH picture change effects                    
  Kantharuban Sivalingam : CASSCF convergence/infrastructure, NEVPT2 and variants, FIC-MRCI 
  Bernardo de Souza      : ESD, SOC TD-DFT                               
  Georgi L. Stoychev     : AutoAux, RI-MP2 NMR, DLPNO-MP2 response, X2C  
  Van Anh Tran           : RI-MP2 g-tensors                              
  Willem Van den Heuvel  : Paramagnetic NMR                              
  Zikuan Wang            : NOTCH, Electric field optimization            
  Frank Wennmohs         : Technical directorship and infrastructure     
  Hang Xu                : AUTO-CI-Response properties                   
                                                                         
[FACCTs GmbH]                                                            
  Markus Bursch, Miquel Garcia-Rates, Christoph Riplinger, Bernardo de Souza, Georgi L. Stoychev 
                                                                 
  APM, Basis sets (HGBS, AHGBS, def-TZVP (Ac-Lr), def2-XVPD (La-Lu)), CI-OPT, improved COSX, DLPNO-Multilevel,           
  DOCKER, DRACO, updates on ESD, GOAT, IRC, LR-CPCM, MBIS, meta-GGA TD-DFT gradient, ML-optimized integration grids, 
  MM, NACMEs, nearIR, NEB, NEB-TS, NL-DFT gradient (VV10), 2- and 3-layer-ONIOM, interface openCOSMO-RS, QMMM,   
  Crystal-QMMM, SF, symmetry and pop. for TD-DFT, r2SCAN hybrids, SOLVATOR                                   
                                                                         
[Other institutions]                                                     
  V. Asgeirsson          : NEB                                           
  Christoph Bannwarth    : sTDA-DFT, sTD-DFT, PBEh-3c, B97-3c, D3        
  Sebastian Ehlert       : rSCAN, r2SCAN, r2SCAN-3c, D4, dhf basis sets  
  Marvin Friede          : D4 for Fr, Ra, Ac-Lr                          
  Lars Goerigk           : TD-DFT with DH, B97 family of functionals     
  Stefan Grimme          : VdW corrections, initial TS optimization, DFT functionals, gCP, sTDA/sTD-DF 
  Waldemar Hujo          : DFT-NL                                        
  H. Jonsson             : NEB                                           
  Holger Kruse           : gCP                                           
  Marcel Mueller         : wB97X-3c, vDZP basis set                      
  Hagen Neugebauer       : wr2SCAN                                       
  Tobias Risthaus        : range-separated hybrid DFT                    
  Lukas Wittmann         : regularized MP2, r2SCAN double-hybrids, wr2SCAN        
                                                                         
We gratefully acknowledge several colleagues who have allowed us to      
interface, adapt or use parts of their codes:                            
  Ed Valeev, F. Pavosevic, A. Kumar             : LibInt (2-el integral package), F12 methods 
  Garnet Chan, S. Sharma, J. Yang, R. Olivares  : DMRG                   
  Ulf Ekstrom                                   : XCFun DFT Library      
  Mihaly Kallay                                 : mrcc  (arbitrary order and MRCC methods)
  Frank Weinhold                                : gennbo (NPA and NBO analysis)           
  Simon Mueller                                 : openCOSMO-RS                            
  Christopher J. Cramer and Donald G. Truhlar   : smd solvation model                     
  S Lehtola, MJT Oliveira, MAL Marques          : LibXC Library                           
  Liviu Ungur et al                             : ANISO software                          


 Your calculation uses the libint2 library for the computation of 2-el integrals
 For citations please refer to: http://libint.valeyev.net

 Your ORCA version has been built with support for libXC version: 6.2.2
 For citations please refer to: https://libxc.gitlab.io

 This ORCA versions uses:
   CBLAS   interface :  Fast vector & matrix operations
   LAPACKE interface :  Fast linear algebra routines
   SCALAPACK package :  Parallel linear algebra routines
   Shared memory     :  Shared parallel matrices
   BLAS/LAPACK       :  OpenBLAS 0.3.27  USE64BITINT DYNAMIC_ARCH NO_AFFINITY SkylakeX SINGLE_THREADED
        Core in use  :  SkylakeX
   Copyright (c) 2011-2014, The OpenBLAS Project


Your calculation utilizes the atom-pairwise dispersion correction
based on EEQ partial charges (D4)


================================================================================

cite the ECPs for C  [vDZP-ECP], O  [vDZP-ECP] as follows:
   B-Ne (ecp-2-mwb), Al-Ar (ecp-10-mwb), Ga-Kr (ecp-28-mwb), Y-Cd (ecp-28-mwb), In-Xe (ecp-46-mwb):
     A. Bergner, M. Dolg, W. Küchle, H. Stoll, and H. Preuß, Mol. Phys. 80, 1431 (1993)., T. Leininger, A. Berning, A. Nicklass, H. Stoll, H.-J. Werner, and H.-J.Flad, Chem. Phys. 217, 19 (1997).
   Na-Mg, K-Ca, Rb-Sr, Cs-Ba (CRENBL):
     L. Fernandez Pacios and P. A. Christiansen, J. Chem. Phys. 82, 2664 (1985)., M. M. Hurley, L. F. Pacios, P. A. Christiansen, R. B. Ross, and W. C. Ermler, J. Chem. Phys. 84, 6840 (1986)., L. A. LaJohn, P. A. Christiansen, R. B. Ross, T. Atashroo, and W. C. Ermler, J. Chem. Phys. 87, 2812 (1987)., R. B. Ross, J. M. Powers, T. Atashroo, W. C. Ermler, L. A. LaJohn, and P. A. Christiansen, J. Chem. Phys. 93, 6654 (1990). 
   Sc-Zn (ecp-10-mdf):
     M. Dolg, U. Wedig, H. Stoll, and H. Preuss, J. Chem. Phys. 86, 866 (1986). 
   Y-Cd (ecp-28-mwb), Hf-Hg (ecp-60-mwb):
     D. Andrae, U. Häußermann, M. Dolg, H. Stoll, and H. Preuß, Theor. Chim. Acta 77, 123 (1990). 
   La (ecp-46-mwb):
     M. Dolg, H. Stoll, and H. Preuss, J. Chem. Phys. 90, 1730 (1989)., M. Dolg, H. Stoll, and H. Preuss, Theor. Chim. Acta 85, 441 (1993).
   Ce-Lu (SBKJC-ecp):
     T. R. Cundari and W. J. Stevens, J. Chem. Phys. 98, 5555 (1993).
   Tl-Rn (ecp-78-mwb):
     W. Küchle, M. Dolg, H. Stoll, and H. Preuss, Mol. Phys. 74, 1245 (1991).

ECP parameters for C  [vDZP-ECP], O  [vDZP-ECP] have been obtained from:
MM, AH, SG, J. Chem. Phys. 158, 014103 (2023), 10.1063/5.0133026

----- Orbital basis set information -----
Your calculation utilizes the basis: vDZP
   Marcel Mueller, Andreas Hansen, Stefan Grimme 
   J. Chem. Phys. 158, 014103 (2023). DOI: 10.1063/5.0133026

----- AuxJ basis set information -----
Your calculation utilizes the auxiliary basis: def2/J
   F. Weigend, Phys. Chem. Chem. Phys. 8, 1057 (2006).

================================================================================
                                        WARNINGS
                       Please study these warnings very carefully!
================================================================================

WARNING: Frozen-Core approximation turned on, but there are no core electrons.
  ===> : Turning off frozen-core approximation


WARNING: Geometry Optimization
  ===> : Switching off AutoStart
         For restart on a previous wavefunction, please use MOREAD

================================================================================
                                       INPUT FILE
================================================================================
NAME = ./output/bisabolene_oxide_a/bisabolene_oxide_a.inp
|  1> ! wB97X-3c OPT FREQ TightSCF
|  2> %pal
|  3>   nprocs 40
|  4> end
|  5> * xyz 0 1
|  6> C      5.244162     1.446176    -0.229878
|  7> C      3.853100     0.917278    -0.442338
|  8> C      3.645472    -0.133801    -1.251023
|  9> C      2.252679    -0.675703    -1.415841
| 10> C      1.552749    -0.820696    -0.043160
| 11> C      1.813304     0.400595     0.913110
| 12> C      2.668305     1.512959     0.280058
| 13> C      0.061348    -1.194771    -0.272121
| 14> C     -0.884990    -0.092097    -0.629737
| 15> O     -0.836468    -0.659101     0.670145
| 16> C     -2.191438    -0.417448    -1.381081
| 17> C     -3.362881    -0.673086    -0.461446
| 18> C     -3.972824     0.282108     0.276275
| 19> C     -5.149753    -0.078421     1.145151
| 20> C     -3.537847     1.725816     0.232376
| 21> C     -0.275893    -2.652628    -0.614763
| 22> H      5.243318     2.311581     0.465110
| 23> H      5.887304     0.649114     0.199375
| 24> H      5.671487     1.776437    -1.200166
| 25> H      4.476251    -0.620027    -1.755069
| 26> H      1.678404     0.025190    -2.060536
| 27> H      2.297481    -1.659529    -1.930984
| 28> H      2.025263    -1.698578     0.452567
| 29> H      0.882285     0.864963     1.294110
| 30> H      2.351272     0.032143     1.814833
| 31> H      2.994211     2.224116     1.069090
| 32> H      2.049001     2.076896    -0.450954
| 33> H     -0.509518     0.952611    -0.633348
| 34> H     -2.049288    -1.293990    -2.046160
| 35> H     -2.433146     0.427895    -2.058630
| 36> H     -3.736984    -1.692690    -0.423893
| 37> H     -5.336005    -1.173661     1.167692
| 38> H     -4.960769     0.261250     2.185138
| 39> H     -6.060644     0.426436     0.760790
| 40> H     -3.589165     2.112059    -0.806867
| 41> H     -4.199923     2.355836     0.863515
| 42> H     -2.503399     1.826184     0.619566
| 43> H      0.347139    -3.338912    -0.004405
| 44> H     -1.339580    -2.892399    -0.403995
| 45> H     -0.064020    -2.840105    -1.687860
| 46> *
| 47> 
| 48>                          ****END OF INPUT****
================================================================================

                       *****************************
                       * Geometry Optimization Run *
                       *****************************

Geometry optimization settings:
Update method            Update   .... BFGS
Choice of coordinates    CoordSys .... (2022) Redundant Internals
Initial Hessian          InHess   .... Almloef's Model
Max. no of cycles        MaxIter  .... 120

Convergence Tolerances:
Energy Change            TolE     ....  5.0000e-06 Eh
Max. Gradient            TolMAXG  ....  3.0000e-04 Eh/bohr
RMS Gradient             TolRMSG  ....  1.0000e-04 Eh/bohr
Max. Displacement        TolMAXD  ....  4.0000e-03 bohr
RMS Displacement         TolRMSD  ....  2.0000e-03 bohr
Strict Convergence                .... False

------------------------------------------------------------------------------
                        ORCA OPTIMIZATION COORDINATE SETUP
------------------------------------------------------------------------------

The optimization will be done in redundant internal coordinates (2022)
Making redundant internal coordinates   ...  (2022 redundants) done
Evaluating the initial hessian          ...  (Almloef) done
Evaluating the coordinates              ...  done
Calculating the B-matrix                .... done
Calculating the G-matrix                .... done
Diagonalizing the G-matrix              .... done
Small eigenvalue found = 3.223e-03
Small eigenvalue found = 7.323e-03
Small eigenvalue found = 1.167e-02
Small eigenvalue found = 1.756e-02
Small eigenvalue found = 2.450e-02
The first mode is                       ....   90
The number of degrees of freedom        ....  114

    -----------------------------------------------------------------
                    Redundant Internal Coordinates


    -----------------------------------------------------------------
         Definition                    Initial Value    Approx d2E/dq
    -----------------------------------------------------------------
      1. B(C   1,C   0)                  1.5033         0.412067   
      2. B(C   2,C   1)                  1.3423         0.744379   
      3. B(C   3,C   2)                  1.5036         0.411680   
      4. B(C   4,C   3)                  1.5476         0.350139   
      5. B(C   5,C   4)                  1.5729         0.319150   
      6. B(C   6,C   5)                  1.5392         0.361160   
      7. B(C   6,C   1)                  1.5101         0.401894   
      8. B(C   7,C   4)                  1.5546         0.341355   
      9. B(C   8,C   7)                  1.4964         0.422590   
     10. B(O   9,C   8)                  1.4190         0.503059   
     11. B(O   9,C   7)                  1.4074         0.524873   
     12. B(C  10,C   8)                  1.5418         0.357714   
     13. B(C  11,C  10)                  1.5111         0.400466   
     14. B(C  12,C  11)                  1.3523         0.717662   
     15. B(C  13,C  12)                  1.5067         0.406987   
     16. B(C  14,C  12)                  1.5085         0.404350   
     17. B(C  15,C   7)                  1.5351         0.366663   
     18. B(H  16,C   0)                  1.1099         0.334683   
     19. B(H  17,C   0)                  1.1105         0.333984   
     20. B(H  18,C   0)                  1.1105         0.334017   
     21. B(H  19,C   2)                  1.0866         0.364643   
     22. B(H  20,C   3)                  1.1121         0.332070   
     23. B(H  21,C   3)                  1.1114         0.332829   
     24. B(H  22,C   4)                  1.1134         0.330421   
     25. B(H  23,C   5)                  1.1080         0.337097   
     26. B(H  24,C   5)                  1.1128         0.331196   
     27. B(H  25,C   6)                  1.1111         0.333249   
     28. B(H  26,C   6)                  1.1117         0.332473   
     29. B(H  27,C   8)                  1.1101         0.334421   
     30. B(H  28,C  10)                  1.1094         0.335277   
     31. B(H  29,C  10)                  1.1100         0.334591   
     32. B(H  30,C  11)                  1.0867         0.364468   
     33. B(H  31,C  13)                  1.1112         0.333129   
     34. B(H  32,C  13)                  1.1103         0.334279   
     35. B(H  33,C  13)                  1.1101         0.334460   
     36. B(H  34,C  14)                  1.1099         0.334733   
     37. B(H  35,C  14)                  1.1107         0.333758   
     38. B(H  36,C  14)                  1.1091         0.335716   
     39. B(H  37,C  15)                  1.1098         0.334817   
     40. B(H  38,C  15)                  1.1106         0.333904   
     41. B(H  39,C  15)                  1.1098         0.334882   
     42. A(C   1,C   0,H  17)          109.7559         0.325535   
     43. A(H  17,C   0,H  18)          109.1685         0.284081   
     44. A(C   1,C   0,H  16)          111.2296         0.325647   
     45. A(H  16,C   0,H  17)          108.5441         0.284169   
     46. A(H  16,C   0,H  18)          108.3922         0.284173   
     47. A(C   1,C   0,H  18)          109.7082         0.325540   
     48. A(C   2,C   1,C   6)          118.4058         0.415031   
     49. A(C   0,C   1,C   2)          120.2490         0.416881   
     50. A(C   0,C   1,C   6)          121.3059         0.374187   
     51. A(C   1,C   2,H  19)          120.7698         0.364841   
     52. A(C   3,C   2,H  19)          119.7438         0.330233   
     53. A(C   1,C   2,C   3)          119.4415         0.416811   
     54. A(C   4,C   3,H  21)          110.2671         0.316796   
     55. A(H  20,C   3,H  21)          108.0602         0.283670   
     56. A(C   2,C   3,C   4)          110.8228         0.365367   
     57. A(C   2,C   3,H  21)          109.4205         0.325300   
     58. A(C   2,C   3,H  20)          108.3461         0.325177   
     59. A(C   4,C   3,H  20)          109.8582         0.316679   
     60. A(C   5,C   4,H  22)          105.7373         0.311702   
     61. A(C   7,C   4,H  22)          106.4387         0.315118   
     62. A(C   5,C   4,C   7)          115.8056         0.348396   
     63. A(C   3,C   4,H  22)          106.0715         0.316422   
     64. A(C   3,C   4,C   5)          113.0532         0.349892   
     65. A(C   3,C   4,C   7)          109.0137         0.353894   
     66. A(C   4,C   5,C   6)          113.7732         0.351729   
     67. A(C   6,C   5,H  24)          107.6994         0.318145   
     68. A(H  23,C   5,H  24)          105.4477         0.284116   
     69. A(C   4,C   5,H  24)          108.4004         0.311820   
     70. A(C   6,C   5,H  23)          107.7767         0.319063   
     71. A(C   4,C   5,H  23)          113.2848         0.312713   
     72. A(H  25,C   6,H  26)          107.7987         0.283779   
     73. A(C   5,C   6,H  26)          109.1227         0.318344   
     74. A(C   1,C   6,H  25)          111.2265         0.324083   
     75. A(C   5,C   6,H  25)          109.4766         0.318465   
     76. A(C   1,C   6,C   5)          110.3341         0.365801   
     77. A(C   1,C   6,H  26)          108.8204         0.323959   
     78. A(C   8,C   7,O   9)           58.4081         0.391178   
     79. A(O   9,C   7,C  15)          111.7616         0.381623   
     80. A(C   8,C   7,C  15)          120.4990         0.369925   
     81. A(C   4,C   7,O   9)          114.9486         0.376924   
     82. A(C   4,C   7,C  15)          118.1750         0.356674   
     83. A(C   4,C   7,C   8)          117.6835         0.365414   
     84. A(C   7,C   8,O   9)           57.6574         0.388288   
     85. A(C  10,C   8,H  27)          118.9199         0.318150   
     86. A(O   9,C   8,H  27)          111.5582         0.334498   
     87. A(C   7,C   8,H  27)          118.7065         0.326960   
     88. A(O   9,C   8,C  10)          113.0207         0.377208   
     89. A(C   7,C   8,C  10)          119.7899         0.368358   
     90. A(C   7,O   9,C   8)           63.9344         0.400751   
     91. A(C  11,C  10,H  29)          109.3609         0.324108   
     92. A(C   8,C  10,H  29)          108.7395         0.318176   
     93. A(C  11,C  10,H  28)          109.2993         0.324217   
     94. A(C   8,C  10,H  28)          110.5046         0.318283   
     95. A(C   8,C  10,C  11)          113.3294         0.364979   
     96. A(H  28,C  10,H  29)          105.2884         0.284327   
     97. A(C  12,C  11,H  30)          119.2493         0.362538   
     98. A(C  10,C  11,H  30)          116.5279         0.328704   
     99. A(C  10,C  11,C  12)          124.2069         0.412085   
    100. A(C  13,C  12,C  14)          118.1024         0.373780   
    101. A(C  11,C  12,C  14)          122.0123         0.412791   
    102. A(C  11,C  12,C  13)          119.8620         0.413268   
    103. A(C  12,C  13,H  32)          109.5126         0.324919   
    104. A(C  12,C  13,H  31)          112.2396         0.324735   
    105. A(H  32,C  13,H  33)          108.9570         0.284178   
    106. A(H  31,C  13,H  33)          108.5264         0.284026   
    107. A(C  12,C  13,H  33)          109.4186         0.324948   
    108. A(H  31,C  13,H  32)          108.1241         0.284002   
    109. A(H  35,C  14,H  36)          107.8348         0.284275   
    110. A(H  34,C  14,H  36)          109.7867         0.284404   
    111. A(C  12,C  14,H  36)          110.2066         0.324801   
    112. A(H  34,C  14,H  35)          107.8855         0.284146   
    113. A(C  12,C  14,H  35)          110.7606         0.324489   
    114. A(C  12,C  14,H  34)          110.3029         0.324645   
    115. A(H  38,C  15,H  39)          109.2628         0.284184   
    116. A(H  37,C  15,H  39)          108.6720         0.284305   
    117. A(C   7,C  15,H  39)          109.5315         0.319507   
    118. A(H  37,C  15,H  38)          107.4460         0.284176   
    119. A(C   7,C  15,H  38)          111.9066         0.319354   
    120. A(C   7,C  15,H  37)          109.9489         0.319497   
    121. D(C   2,C   1,C   0,H  18)     60.2226         0.012571   
    122. D(C   2,C   1,C   0,H  16)   -179.8629         0.012571   
    123. D(C   6,C   1,C   0,H  16)     -2.1793         0.012571   
    124. D(C   2,C   1,C   0,H  17)    -59.7274         0.012571   
    125. D(C   6,C   1,C   0,H  17)    117.9562         0.012571   
    126. D(H  19,C   2,C   1,C   0)      0.4827         0.039459   
    127. D(C   3,C   2,C   1,C   6)      0.2884         0.039459   
    128. D(C   3,C   2,C   1,C   0)    178.0384         0.039459   
    129. D(H  19,C   2,C   1,C   6)   -177.2673         0.039459   
    130. D(H  21,C   3,C   2,C   1)   -167.7743         0.012549   
    131. D(H  20,C   3,C   2,C   1)     74.6297         0.012549   
    132. D(H  20,C   3,C   2,H  19)   -107.7891         0.012549   
    133. D(C   4,C   3,C   2,C   1)    -45.9682         0.012549   
    134. D(C   4,C   3,C   2,H  19)    131.6129         0.012549   
    135. D(C   5,C   4,C   3,C   2)     41.9985         0.009877   
    136. D(C   5,C   4,C   3,H  20)    -77.6978         0.009877   
    137. D(C   7,C   4,C   3,H  21)    -66.3733         0.009877   
    138. D(C   7,C   4,C   3,H  20)     52.6218         0.009877   
    139. D(C   7,C   4,C   3,C   2)    172.3181         0.009877   
    140. D(C   5,C   4,C   3,H  21)    163.3070         0.009877   
    141. D(H  23,C   5,C   4,H  22)   -118.8603         0.008355   
    142. D(H  23,C   5,C   4,C   7)     -1.2901         0.008355   
    143. D(H  23,C   5,C   4,C   3)    125.5132         0.008355   
    144. D(C   6,C   5,C   4,H  22)    117.5826         0.008355   
    145. D(C   6,C   5,C   4,C   7)   -124.8472         0.008355   
    146. D(C   6,C   5,C   4,C   3)      1.9562         0.008355   
    147. D(H  25,C   6,C   1,C   2)    168.0428         0.011982   
    148. D(H  25,C   6,C   1,C   0)     -9.6824         0.011982   
    149. D(C   5,C   6,C   1,C   2)     46.3476         0.011982   
    150. D(H  26,C   6,C   1,C   0)    108.9261         0.011982   
    151. D(C   5,C   6,C   1,C   0)   -131.3776         0.011982   
    152. D(H  25,C   6,C   5,H  24)    -47.5073         0.010460   
    153. D(H  25,C   6,C   5,H  23)     65.8167         0.010460   
    154. D(H  25,C   6,C   5,C   4)   -167.6819         0.010460   
    155. D(C   1,C   6,C   5,H  24)     75.2182         0.010460   
    156. D(C   1,C   6,C   5,H  23)   -171.4577         0.010460   
    157. D(C   1,C   6,C   5,C   4)    -44.9563         0.010460   
    158. D(O   9,C   7,C   4,C   5)    -17.0221         0.009428   
    159. D(O   9,C   7,C   4,C   3)   -145.8283         0.009428   
    160. D(C   8,C   7,C   4,H  22)    166.0532         0.009428   
    161. D(C   8,C   7,C   4,C   5)     48.8737         0.009428   
    162. D(O   9,C   7,C   4,H  22)    100.1573         0.009428   
    163. D(C   8,C   7,C   4,C   3)    -79.9325         0.009428   
    164. D(H  27,C   8,C   7,C   4)     -5.1082         0.014126   
    165. D(C  10,C   8,C   7,C  15)     -1.6225         0.014126   
    166. D(C  10,C   8,C   7,O   9)    -99.8375         0.014126   
    167. D(C  10,C   8,C   7,C   4)    156.4798         0.014126   
    168. D(O   9,C   8,C   7,C  15)     98.2150         0.014126   
    169. D(O   9,C   8,C   7,C   4)   -103.6826         0.014126   
    170. D(C   7,O   9,C   8,H  27)   -111.1684         0.020015   
    171. D(C   7,O   9,C   8,C  10)    111.7080         0.020015   
    172. D(C   8,O   9,C   7,C  15)   -113.3305         0.021859   
    173. D(C   8,O   9,C   7,C   4)    108.3873         0.021859   
    174. D(H  28,C  10,C   8,O   9)    -96.1323         0.010275   
    175. D(H  28,C  10,C   8,C   7)    -31.3802         0.010275   
    176. D(C  11,C  10,C   8,H  27)   -106.7681         0.010275   
    177. D(C  11,C  10,C   8,O   9)     26.9309         0.010275   
    178. D(H  28,C  10,C   8,H  27)    130.1687         0.010275   
    179. D(C  11,C  10,C   8,C   7)     91.6829         0.010275   
    180. D(H  30,C  11,C  10,C   8)   -111.1157         0.011901   
    181. D(C  12,C  11,C  10,H  29)    -51.1407         0.011901   
    182. D(C  12,C  11,C  10,H  28)   -165.9231         0.011901   
    183. D(C  12,C  11,C  10,C   8)     70.3518         0.011901   
    184. D(H  30,C  11,C  10,H  28)     12.6094         0.011901   
    185. D(C  14,C  12,C  11,H  30)   -177.7085         0.036431   
    186. D(C  14,C  12,C  11,C  10)      0.7866         0.036431   
    187. D(C  13,C  12,C  11,H  30)      0.4993         0.036431   
    188. D(C  13,C  12,C  11,C  10)    178.9943         0.036431   
    189. D(H  33,C  13,C  12,C  11)   -114.3264         0.012275   
    190. D(H  32,C  13,C  12,C  14)    -55.4136         0.012275   
    191. D(H  32,C  13,C  12,C  11)    126.3092         0.012275   
    192. D(H  31,C  13,C  12,C  14)   -175.5099         0.012275   
    193. D(H  31,C  13,C  12,C  11)      6.2129         0.012275   
    194. D(H  36,C  14,C  12,C  11)    -63.9529         0.012123   
    195. D(H  35,C  14,C  12,C  13)     -1.4359         0.012123   
    196. D(H  35,C  14,C  12,C  11)    176.8021         0.012123   
    197. D(H  34,C  14,C  12,C  13)   -120.8058         0.012123   
    198. D(H  34,C  14,C  12,C  11)     57.4322         0.012123   
    199. D(H  38,C  15,C   7,O   9)     22.8257         0.010759   
    200. D(H  38,C  15,C   7,C   8)    -42.3709         0.010759   
    201. D(H  38,C  15,C   7,C   4)    159.6318         0.010759   
    202. D(H  37,C  15,C   7,O   9)    -96.4967         0.010759   
    203. D(H  37,C  15,C   7,C   8)   -161.6933         0.010759   
    204. D(H  37,C  15,C   7,C   4)     40.3094         0.010759   
    -----------------------------------------------------------------

Number of atoms                         .... 40
Number of degrees of freedom            .... 204


         *************************************************************
         *                GEOMETRY OPTIMIZATION CYCLE   1            *
         *************************************************************
---------------------------------
CARTESIAN COORDINATES (ANGSTROEM)
---------------------------------
  C      5.244162    1.446176   -0.229878
  C      3.853100    0.917278   -0.442338
  C      3.645472   -0.133801   -1.251023
  C      2.252679   -0.675703   -1.415841
  C      1.552749   -0.820696   -0.043160
  C      1.813304    0.400595    0.913110
  C      2.668305    1.512959    0.280058
  C      0.061348   -1.194771   -0.272121
  C     -0.884990   -0.092097   -0.629737
  O     -0.836468   -0.659101    0.670145
  C     -2.191438   -0.417448   -1.381081
  C     -3.362881   -0.673086   -0.461446
  C     -3.972824    0.282108    0.276275
  C     -5.149753   -0.078421    1.145151
  C     -3.537847    1.725816    0.232376
  C     -0.275893   -2.652628   -0.614763
  H      5.243318    2.311581    0.465110
  H      5.887304    0.649114    0.199375
  H      5.671487    1.776437   -1.200166
  H      4.476251   -0.620027   -1.755069
  H      1.678404    0.025190   -2.060536
  H      2.297481   -1.659529   -1.930984
  H      2.025263   -1.698578    0.452567
  H      0.882285    0.864963    1.294110
  H      2.351272    0.032143    1.814833
  H      2.994211    2.224116    1.069090
  H      2.049001    2.076896   -0.450954
  H     -0.509518    0.952611   -0.633348
  H     -2.049288   -1.293990   -2.046160
  H     -2.433146    0.427895   -2.058630
  H     -3.736984   -1.692690   -0.423893
  H     -5.336005   -1.173661    1.167692
  H     -4.960769    0.261250    2.185138
  H     -6.060644    0.426436    0.760790
  H     -3.589165    2.112059   -0.806867
  H     -4.199923    2.355836    0.863515
  H     -2.503399    1.826184    0.619566
  H      0.347139   -3.338912   -0.004405
  H     -1.339580   -2.892399   -0.403995
  H     -0.064020   -2.840105   -1.687860

----------------------------
CARTESIAN COORDINATES (A.U.)
----------------------------
  NO LB      ZA    FRAG     MASS         X           Y           Z
   0 C     4.0000*   0    12.011    9.910030    2.732877   -0.434406
   1 C     4.0000*   0    12.011    7.281304    1.733404   -0.835898
   2 C     4.0000*   0    12.011    6.888944   -0.252847   -2.364091
   3 C     4.0000*   0    12.011    4.256946   -1.276894   -2.675552
   4 C     4.0000*   0    12.011    2.934270   -1.550891   -0.081561
   5 C     4.0000*   0    12.011    3.426648    0.757015    1.725528
   6 C     4.0000*   0    12.011    5.042366    2.859078    0.529233
   7 C     4.0000*   0    12.011    0.115931   -2.257790   -0.514234
   8 C     4.0000*   0    12.011   -1.672389   -0.174038   -1.190030
   9 O     6.0000*   0    15.999   -1.580695   -1.245520    1.266391
  10 C     4.0000*   0    12.011   -4.141218   -0.788862   -2.609865
  11 C     4.0000*   0    12.011   -6.354924   -1.271948   -0.872007
  12 C     4.0000*   0    12.011   -7.507549    0.533107    0.522084
  13 C     4.0000*   0    12.011   -9.731623   -0.148194    2.164022
  14 C     4.0000*   0    12.011   -6.685562    3.261320    0.439127
  15 C     4.0000*   0    12.011   -0.521362   -5.012740   -1.161734
  16 H     1.0000    0     1.008    9.908435    4.368255    0.878931
  17 H     1.0000    0     1.008   11.125392    1.226648    0.376764
  18 H     1.0000    0     1.008   10.717557    3.356979   -2.267985
  19 H     1.0000    0     1.008    8.458888   -1.171681   -3.316600
  20 H     1.0000    0     1.008    3.171724    0.047602   -3.893849
  21 H     1.0000    0     1.008    4.341610   -3.136055   -3.649031
  22 H     1.0000    0     1.008    3.827192   -3.209847    0.855228
  23 H     1.0000    0     1.008    1.667277    1.634543    2.445513
  24 H     1.0000    0     1.008    4.443260    0.060741    3.429537
  25 H     1.0000    0     1.008    5.658239    4.202970    2.020287
  26 H     1.0000    0     1.008    3.872051    3.924765   -0.852180
  27 H     1.0000    0     1.008   -0.962849    1.800174   -1.196854
  28 H     1.0000    0     1.008   -3.872593   -2.445287   -3.866682
  29 H     1.0000    0     1.008   -4.597980    0.808604   -3.890247
  30 H     1.0000    0     1.008   -7.061876   -3.198721   -0.801042
  31 H     1.0000    0     1.008  -10.083588   -2.217898    2.206618
  32 H     1.0000    0     1.008   -9.374495    0.493691    4.129312
  33 H     1.0000    0     1.008  -11.452957    0.805847    1.437685
  34 H     1.0000    0     1.008   -6.782539    3.991213   -1.524758
  35 H     1.0000    0     1.008   -7.936704    4.451885    1.631807
  36 H     1.0000    0     1.008   -4.730739    3.450988    1.170810
  37 H     1.0000    0     1.008    0.655998   -6.309629   -0.008324
  38 H     1.0000    0     1.008   -2.531439   -5.465842   -0.763440
  39 H     1.0000    0     1.008   -0.120980   -5.367021   -3.189593
* core charge reduced due to ECP

--------------------------------
INTERNAL COORDINATES (ANGSTROEM)
--------------------------------
 C      0   0   0     0.000000000000     0.00000000     0.00000000
 C      1   0   0     1.503304970340     0.00000000     0.00000000
 C      2   1   0     1.342329274005   120.24899618     0.00000000
 C      3   2   1     1.503560804084   119.44146816   178.03844099
 C      4   3   2     1.547636295358   110.82279813   314.03177645
 C      5   4   3     1.572861382197   113.05320342    41.99846458
 C      2   1   3     1.510109607480   121.30589307   177.68364622
 C      5   4   3     1.554552085955   109.01374849   172.31810659
 C      8   5   4     1.496440698449   117.68350670   280.06754378
 O      8   5   4     1.407437790281   114.94855934   214.17172288
 C      9   8   5     1.541809798983   119.78987646   156.47983224
 C     11   9   8     1.511078430300   113.32943204    91.68293859
 C     12  11   9     1.352278933773   124.20687271    70.35183244
 C     13  12  11     1.506681298171   119.86195660   178.99434541
 C     13  12  11     1.508451159963   122.01228055     0.78662444
 C      8   5   4     1.535083732144   118.17497270    78.68809854
 H      1   2   3     1.109925604041   111.22957749   180.13710296
 H      1   2   3     1.110494305261   109.75594041   300.27258877
 H      1   2   3     1.110467373087   109.70821996    60.22258267
 H      3   2   1     1.086587244557   120.76978675     0.48268589
 H      4   3   2     1.112058638786   108.34612591    74.62973437
 H      4   3   2     1.111437415210   109.42047260   192.22573622
 H      5   4   3     1.113414363411   106.07153383   286.57145641
 H      6   5   4     1.107968870404   113.28481792   125.51323611
 H      6   5   4     1.112776174285   108.40039261   242.17765622
 H      7   2   1     1.111094278857   111.22651849   350.31758998
 H      7   2   1     1.111728801700   108.82035681   108.92610434
 H      9   8   5     1.110138310018   118.70652896   354.89177226
 H     11   9   8     1.109442462007   110.50459069   328.61978812
 H     11   9   8     1.110000086628   108.73952539   213.52334829
 H     12  11   9     1.086717810305   116.52793509   248.88429723
 H     14  13  12     1.111192405385   112.23957797     6.21290493
 H     14  13  12     1.110254160391   109.51256927   126.30922641
 H     14  13  12     1.110106473565   109.41857551   245.67362109
 H     15  13  12     1.109884320649   110.30291322    57.43217771
 H     15  13  12     1.110678291629   110.76060956   176.80211208
 H     15  13  12     1.109086333983   110.20661045   296.04707545
 H     16   8   5     1.109815971161   109.94888407    40.30939525
 H     16   8   5     1.110559911141   111.90660141   159.63179576
 H     16   8   5     1.109763472577   109.53153825   280.95984349

---------------------------
INTERNAL COORDINATES (A.U.)
---------------------------
 C      0   0   0     0.000000000000     0.00000000     0.00000000
 C      1   0   0     2.840834689705     0.00000000     0.00000000
 C      2   1   0     2.536634709414   120.24899618     0.00000000
 C      3   2   1     2.841318145417   119.44146816   178.03844099
 C      4   3   2     2.924608753143   110.82279813   314.03177645
 C      5   4   3     2.972277258973   113.05320342    41.99846458
 C      2   1   3     2.853693590340   121.30589307   177.68364622
 C      5   4   3     2.937677703371   109.01374849   172.31810659
 C      8   5   4     2.827863095723   117.68350670   280.06754378
 O      8   5   4     2.659671974163   114.94855934   214.17172288
 C      9   8   5     2.913598270675   119.78987646   156.47983224
 C     11   9   8     2.855524400143   113.32943204    91.68293859
 C     12  11   9     2.555436841502   124.20687271    70.35183244
 C     13  12  11     2.847215024644   119.86195660   178.99434541
 C     13  12  11     2.850559578726   122.01228055     0.78662444
 C      8   5   4     2.900887846390   118.17497270    78.68809854
 H      1   2   3     2.097455420664   111.22957749   180.13710296
 H      1   2   3     2.098530110222   109.75594041   300.27258877
 H      1   2   3     2.098479215789   109.70821996    60.22258267
 H      3   2   1     2.053352312824   120.76978675     0.48268589
 H      4   3   2     2.101486272167   108.34612591    74.62973437
 H      4   3   2     2.100312329740   109.42047260   192.22573622
 H      5   4   3     2.104048220420   106.07153383   286.57145641
 H      6   5   4     2.093757729974   113.28481792   125.51323611
 H      6   5   4     2.102842217752   108.40039261   242.17765622
 H      7   2   1     2.099663896007   111.22651849   350.31758998
 H      7   2   1     2.100862970405   108.82035681   108.92610434
 H      9   8   5     2.097857376708   118.70652896   354.89177226
 H     11   9   8     2.096542414537   110.50459069   328.61978812
 H     11   9   8     2.097596172356   108.73952539   213.52334829
 H     12  11   9     2.053599046331   116.52793509   248.88429723
 H     14  13  12     2.099849328271   112.23957797     6.21290493
 H     14  13  12     2.098076302186   109.51256927   126.30922641
 H     14  13  12     2.097797214531   109.41857551   245.67362109
 H     15  13  12     2.097377406359   110.30291322    57.43217771
 H     15  13  12     2.098877794071   110.76060956   176.80211208
 H     15  13  12     2.095869430103   110.20661045   296.04707545
 H     16   8   5     2.097248244546   109.94888407    40.30939525
 H     16   8   5     2.098654087369   111.90660141   159.63179576
 H     16   8   5     2.097149036601   109.53153825   280.95984349

---------------------
BASIS SET INFORMATION
---------------------
There are 3 groups of distinct atoms

 Group   1 Type C   : 6s6p2d contracted to 2s2p1d pattern {42/42/2}
 Group   2 Type O   : 6s6p2d contracted to 2s2p1d pattern {42/42/2}
 Group   3 Type H   : 8s2p contracted to 2s1p pattern {53/2}

Atom   0C    basis set group =>   1
Atom   1C    basis set group =>   1
Atom   2C    basis set group =>   1
Atom   3C    basis set group =>   1
Atom   4C    basis set group =>   1
Atom   5C    basis set group =>   1
Atom   6C    basis set group =>   1
Atom   7C    basis set group =>   1
Atom   8C    basis set group =>   1
Atom   9O    basis set group =>   2
Atom  10C    basis set group =>   1
Atom  11C    basis set group =>   1
Atom  12C    basis set group =>   1
Atom  13C    basis set group =>   1
Atom  14C    basis set group =>   1
Atom  15C    basis set group =>   1
Atom  16H    basis set group =>   3
Atom  17H    basis set group =>   3
Atom  18H    basis set group =>   3
Atom  19H    basis set group =>   3
Atom  20H    basis set group =>   3
Atom  21H    basis set group =>   3
Atom  22H    basis set group =>   3
Atom  23H    basis set group =>   3
Atom  24H    basis set group =>   3
Atom  25H    basis set group =>   3
Atom  26H    basis set group =>   3
Atom  27H    basis set group =>   3
Atom  28H    basis set group =>   3
Atom  29H    basis set group =>   3
Atom  30H    basis set group =>   3
Atom  31H    basis set group =>   3
Atom  32H    basis set group =>   3
Atom  33H    basis set group =>   3
Atom  34H    basis set group =>   3
Atom  35H    basis set group =>   3
Atom  36H    basis set group =>   3
Atom  37H    basis set group =>   3
Atom  38H    basis set group =>   3
Atom  39H    basis set group =>   3
---------------------------------
AUXILIARY/J BASIS SET INFORMATION
---------------------------------
There are 3 groups of distinct atoms

 Group   1 Type C   : 12s5p4d2f1g contracted to 6s4p3d1f1g pattern {711111/2111/211/2/1}
 Group   2 Type O   : 12s5p4d2f1g contracted to 6s4p3d1f1g pattern {711111/2111/211/2/1}
 Group   3 Type H   : 5s2p1d contracted to 3s1p1d pattern {311/2/1}

Atom   0C    basis set group =>   1
Atom   1C    basis set group =>   1
Atom   2C    basis set group =>   1
Atom   3C    basis set group =>   1
Atom   4C    basis set group =>   1
Atom   5C    basis set group =>   1
Atom   6C    basis set group =>   1
Atom   7C    basis set group =>   1
Atom   8C    basis set group =>   1
Atom   9O    basis set group =>   2
Atom  10C    basis set group =>   1
Atom  11C    basis set group =>   1
Atom  12C    basis set group =>   1
Atom  13C    basis set group =>   1
Atom  14C    basis set group =>   1
Atom  15C    basis set group =>   1
Atom  16H    basis set group =>   3
Atom  17H    basis set group =>   3
Atom  18H    basis set group =>   3
Atom  19H    basis set group =>   3
Atom  20H    basis set group =>   3
Atom  21H    basis set group =>   3
Atom  22H    basis set group =>   3
Atom  23H    basis set group =>   3
Atom  24H    basis set group =>   3
Atom  25H    basis set group =>   3
Atom  26H    basis set group =>   3
Atom  27H    basis set group =>   3
Atom  28H    basis set group =>   3
Atom  29H    basis set group =>   3
Atom  30H    basis set group =>   3
Atom  31H    basis set group =>   3
Atom  32H    basis set group =>   3
Atom  33H    basis set group =>   3
Atom  34H    basis set group =>   3
Atom  35H    basis set group =>   3
Atom  36H    basis set group =>   3
Atom  37H    basis set group =>   3
Atom  38H    basis set group =>   3
Atom  39H    basis set group =>   3
-------------------------
ECP PARAMETER INFORMATION
-------------------------

 Group 1, Type C  ECP vDZP-ECP (replacing 2 core electrons, lmax=3)
 Group 2, Type O  ECP vDZP-ECP (replacing 2 core electrons, lmax=3)

Atom   0C    ECP group =>   1
Atom   1C    ECP group =>   1
Atom   2C    ECP group =>   1
Atom   3C    ECP group =>   1
Atom   4C    ECP group =>   1
Atom   5C    ECP group =>   1
Atom   6C    ECP group =>   1
Atom   7C    ECP group =>   1
Atom   8C    ECP group =>   1
Atom   9O    ECP group =>   2
Atom  10C    ECP group =>   1
Atom  11C    ECP group =>   1
Atom  12C    ECP group =>   1
Atom  13C    ECP group =>   1
Atom  14C    ECP group =>   1
Atom  15C    ECP group =>   1



           ************************************************************
           *        Program running with 40 parallel MPI-processes    *
           *              working on a common directory               *
           ************************************************************
------------------------------------------------------------------------------
                             ORCA STARTUP CALCULATIONS
                           -- RI-GTO INTEGRALS CHOSEN --
------------------------------------------------------------------------------
------------------------------------------------------------------------------
                   ___                                                        
                  /   \      - P O W E R E D   B Y -                         
                 /     \                                                     
                 |  |  |   _    _      __       _____    __    __             
                 |  |  |  | |  | |    /  \     |  _  \  |  |  /  |          
                  \  \/   | |  | |   /    \    | | | |  |  | /  /          
                 / \  \   | |__| |  /  /\  \   | |_| |  |  |/  /          
                |  |  |   |  __  | /  /__\  \  |    /   |      \           
                |  |  |   | |  | | |   __   |  |    \   |  |\   \          
                \     /   | |  | | |  |  |  |  | |\  \  |  | \   \       
                 \___/    |_|  |_| |__|  |__|  |_| \__\ |__|  \__/        
                                                                              
                      - O R C A' S   B I G   F R I E N D -                    
                                      &                                       
                       - I N T E G R A L  F E E D E R -                       
                                                                              
 v1 FN, 2020, v2 2021, v3 2022-2024                                           
------------------------------------------------------------------------------


----------------------
SHARK INTEGRAL PACKAGE
----------------------

Number of atoms                             ...     40
Number of basis functions                   ...    328
Number of shells                            ...    152
Maximum angular momentum                    ...      2
Integral batch strategy                     ... SHARK/LIBINT Hybrid
RI-J (if used) integral strategy            ... SPLIT-RIJ (Revised 2003 algorithm where possible)
Printlevel                                  ...      1
Contraction scheme used                     ... SEGMENTED contraction
Prescreening option                         ... SCHWARTZ
   Thresh                                   ... 2.500e-11
   Tcut                                     ... 2.500e-12
   Tpresel                                  ... 2.500e-12 
Coulomb Range Separation                    ... NOT USED
Exchange Range Separation                   ... Long Range
   Mu parameter                             ... 3.000e-01
   Scaling (regular/separated)              ... 1.670e-01 8.330e-01
Multipole approximations                    ... NOT USED
Finite Nucleus Model                        ... NOT USED
CABS basis                                  ... NOT available
Auxiliary Coulomb fitting basis             ... AVAILABLE
   # of basis functions in Aux-J            ...   1048
   # of shells in Aux-J                     ...    360
   Maximum angular momentum in Aux-J        ...      4
Auxiliary J/K fitting basis                 ... NOT available
Auxiliary Correlation fitting basis         ... NOT available
Auxiliary 'external' fitting basis          ... NOT available

Checking pre-screening integrals            ... done (  0.0 sec) Dimension = 152
Check shell pair data                       ... done (  0.0 sec)
Shell pair information
Shell pair cut-off parameter TPreSel        ...   2.5e-12
Total number of shell pairs                 ...     11628
Shell pairs after pre-screening             ...     11074
Total number of primitive shell pairs       ...    108456
Primitive shell pairs kept                  ...     75356
          la=0 lb=0:   3153 shell pairs
          la=1 lb=0:   4267 shell pairs
          la=1 lb=1:   1460 shell pairs
          la=2 lb=0:   1232 shell pairs
          la=2 lb=1:    832 shell pairs
          la=2 lb=2:    130 shell pairs

Calculating one electron integrals          ... done (  0.0 sec)
Calculating ECP integrals                   ... done (  0.2 sec)
Calculating RI/J V-Matrix + Cholesky decomp.... done (  0.1 sec)
Calculating Nuclear repulsion               ... done (  0.0 sec) ENN=    606.291995461406 Eh

Diagonalization of the overlap matrix:
Smallest eigenvalue                        ... 1.039e-03
Time for diagonalization                   ...    0.015 sec
Threshold for overlap eigenvalues          ... 1.000e-07
Number of eigenvalues below threshold      ... 0
Time for construction of square roots      ...    0.009 sec
Total time needed                          ...    0.027 sec

-------------------
DFT GRID GENERATION
-------------------

General Integration Accuracy     IntAcc      ... 4.388
Radial Grid Type                 RadialGrid  ... OptM3 with GC (2021)
Angular Grid (max. ang.)         AngularGrid ... 4 (Lebedev-302)
Angular grid pruning method      GridPruning ... 4 (adaptive)
Weight generation scheme         WeightScheme... mBecke (2022)
Basis function cutoff            BFCut       ... 1.0000e-11
Integration weight cutoff        WCut        ... 1.0000e-14
Partially contracted basis set               ... off
Rotationally invariant grid construction     ... off
Angular grids for H and He will be reduced by one unit

Total number of grid points                  ...   171656
Total number of batches                      ...     2699
Average number of points per batch           ...       63
Average number of grid points per atom       ...     4291

--------------------
COSX GRID GENERATION
--------------------

GRIDX 1
-------
General Integration Accuracy     IntAcc      ... 3.816
Radial Grid Type                 RadialGrid  ... OptM3 with GC (2021)
Angular Grid (max. ang.)         AngularGrid ... 1 (Lebedev-50)
Angular grid pruning method      GridPruning ... 4 (adaptive)
Weight generation scheme         WeightScheme... mBecke (2022)
Basis function cutoff            BFCut       ... 1.0000e-11
Integration weight cutoff        WCut        ... 1.0000e-14
Partially contracted basis set               ... on
Rotationally invariant grid construction     ... off
Angular grids for H and He will be reduced by one unit

Total number of grid points                  ...    21907
Total number of batches                      ...      196
Average number of points per batch           ...      111
Average number of grid points per atom       ...      548
UseSFitting                                  ... on

GRIDX 2
-------
General Integration Accuracy     IntAcc      ... 4.020
Radial Grid Type                 RadialGrid  ... OptM3 with GC (2021)
Angular Grid (max. ang.)         AngularGrid ... 2 (Lebedev-110)
Angular grid pruning method      GridPruning ... 4 (adaptive)
Weight generation scheme         WeightScheme... mBecke (2022)
Basis function cutoff            BFCut       ... 1.0000e-11
Integration weight cutoff        WCut        ... 1.0000e-14
Partially contracted basis set               ... on
Rotationally invariant grid construction     ... off
Angular grids for H and He will be reduced by one unit

Total number of grid points                  ...    45629
Total number of batches                      ...      378
Average number of points per batch           ...      120
Average number of grid points per atom       ...     1141
UseSFitting                                  ... on

GRIDX 3
-------
General Integration Accuracy     IntAcc      ... 4.338
Radial Grid Type                 RadialGrid  ... OptM3 with GC (2021)
Angular Grid (max. ang.)         AngularGrid ... 3 (Lebedev-194)
Angular grid pruning method      GridPruning ... 4 (adaptive)
Weight generation scheme         WeightScheme... mBecke (2022)
Basis function cutoff            BFCut       ... 1.0000e-11
Integration weight cutoff        WCut        ... 1.0000e-14
Partially contracted basis set               ... on
Rotationally invariant grid construction     ... off
Angular grids for H and He will be reduced by one unit

Total number of grid points                  ...    99141
Total number of batches                      ...      795
Average number of points per batch           ...      124
Average number of grid points per atom       ...     2479
UseSFitting                                  ... on
Initializing property integral containers    ... done (  0.0 sec)

SHARK setup successfully completed in   5.7 seconds

Maximum memory used throughout the entire STARTUP-calculation: 55.7 MB


           ************************************************************
           *        Program running with 40 parallel MPI-processes    *
           *              working on a common directory               *
           ************************************************************
-------------------------------------------------------------------------------
                                 ORCA GUESS
                   Start orbitals & Density for SCF / CASSCF
-------------------------------------------------------------------------------

------------
SCF SETTINGS
------------
Hamiltonian:
 Density Functional     Method          .... DFT(GTOs)
 Exchange Functional    Exchange        .... WB97X-V
 Correlation Functional Correlation     .... WB97X-V
 Gradients option       PostSCFGGA      .... off
 Hybrid DFT is turned on
   Fraction HF Exchange ScalHFX         ....  0.167000
   Scaling of DF-GGA-X  ScalDFX         ....  0.000000
   Scaling of DF-GGA-C  ScalDFC         ....  1.000000
   Scaling of DF-LDA-C  ScalLDAC        ....  1.000000
   Perturbative correction              ....  0.000000
 Long-range corrected/Screened/Range-Separated Hybrid DFT is turned on
   Amount of maximum screened exact exchange              ....  0.833000
   Range separation parameter mu (erf(mu*r12)/r12)        ....  0.300000
   NL short-range parameter             ....  6.000000
   NL long-range parameter              ....  0.010000
 RI-approximation to the Coulomb term is turned on
   Number of AuxJ basis functions       .... 1048
   RIJ-COSX (HFX calculated with COS-X)).... on


General Settings:
 Integral files         IntName         .... ./output/bisabolene_oxide_a/bisabolene_oxide_a
 Hartree-Fock type      HFTyp           .... RHF
 Total Charge           Charge          ....    0
 Multiplicity           Mult            ....    1
 Number of Electrons    NEL             ....   90
 Basis Dimension        Dim             ....  328
 Nuclear Repulsion      ENuc            ....    606.2919954614 Eh

Convergence Acceleration:
 AO-DIIS                CNVDIIS         .... on
   Start iteration      DIISMaxIt       ....    12
   Startup error        DIISStart       ....  0.200000
   # of expansion vecs  DIISMaxEq       ....     5
   Bias factor          DIISBfac        ....   1.050
   Max. coefficient     DIISMaxC        ....  10.000
 MO-DIIS                CNVKDIIS        .... off
 Trust-Rad. Augm. Hess. CNVTRAH         .... auto
   Auto Start mean grad. ratio tolernc. ....  1.125000
   Auto Start start iteration           ....    50
   Auto Start num. interpolation iter.  ....    10
   Max. Number of Micro iterations      ....    24
   Max. Number of Macro iterations      .... Maxiter - #DIIS iter
   Number of Davidson start vectors     ....     2
   Converg. threshold    (grad. norm)   ....   1.000e-05
   Grad. Scal. Fac. for Micro threshold ....   0.100
   Minimum threshold for Micro iter.    ....   1.000e-02
   NR start threshold (gradient norm)   ....   1.000e-04
   Initial trust radius                 ....   0.400
   Minimum AH scaling param. (alpha)    ....   1.000
   Maximum AH scaling param. (alpha)    .... 1000.000
   Quad. conv. algorithm                .... NR
   White noise on init. David. guess    .... on
   Maximum white noise                  ....   0.010
   Pseudo random numbers                .... off
   Inactive MOs                         .... canonical
   Orbital update algorithm             .... Taylor
   Preconditioner                       .... Diag
   Full preconditioner red. dimension   ....   250
 SOSCF                  CNVSOSCF        .... on
   Start iteration      SOSCFMaxIt      ....   150
   Startup grad/error   SOSCFStart      ....  0.003300
   Hessian update       SOSCFHessUp     .... L-BFGS
 Level Shifting         CNVShift        .... on
   Level shift para.    LevelShift      ....    0.2500
   Turn off err/grad.   ShiftErr        ....    0.0010
 Zerner damping         CNVZerner       .... off
 Static damping         CNVDamp         .... on
   Fraction old density DampFac         ....    0.7000
   Max. Damping (<1)    DampMax         ....    0.9800
   Min. Damping (>=0)   DampMin         ....    0.0000
   Turn off err/grad.   DampErr         ....    0.1000

SCF Procedure:
 Maximum # iterations   MaxIter         ....   125
 SCF integral mode      SCFMode         .... Direct
   Integral package                     .... SHARK and LIBINT hybrid scheme
 Reset frequency        DirectResetFreq ....    20
 Integral Threshold     Thresh          ....  2.500e-11 Eh
 Primitive CutOff       TCut            ....  2.500e-12 Eh

Convergence Tolerance:
 Convergence Check Mode ConvCheckMode   .... Total+1el-Energy
 Convergence forced     ConvForced      .... 0
 Energy Change          TolE            ....  1.000e-08 Eh
 1-El. energy change                    ....  1.000e-05 Eh
 Orbital Gradient       TolG            ....  1.000e-05
 Orbital Rotation angle TolX            ....  1.000e-05
 DIIS Error             TolErr          ....  5.000e-07

------------------------------
INITIAL GUESS: MODEL POTENTIAL
------------------------------
Loading Hartree-Fock densities                     ... done
Atomic calculation to generate a density for atom 0 (C  with ECP)
  Multiplicity assumed   :    1
  Atomic configuration   : 1s2 2s2 2p2 
  Number of open shells  : 1
  Command: /home/aspe232/Project/Software/ORCA/6_0_1/build/orca ./output/bisabolene_oxide_a/bisabolene_oxide_a_atom6.inp "" > ./output/bisabolene_oxide_a/bisabolene_oxide_a_atom6.out
Returned from the atomic calculation with res=0
Atomic calculation to generate a density for atom 9 (O  with ECP)
  Multiplicity assumed   :    3
  Atomic configuration   : 1s2 2s2 2p4 
  Number of open shells  : 1
  Command: /home/aspe232/Project/Software/ORCA/6_0_1/build/orca ./output/bisabolene_oxide_a/bisabolene_oxide_a_atom8.inp "" > ./output/bisabolene_oxide_a/bisabolene_oxide_a_atom8.out
Returned from the atomic calculation with res=0
Calculating cut-offs                               ... done
Initializing the effective Hamiltonian             ... done
Setting up the integral package (SHARK)            ... done
Starting the Coulomb interaction                   ... done (   0.1 sec)
Making the grid                                    ... done (   1.1 sec)
Mapping shells                                     ... done
Starting the XC term evaluation                    ... done (   0.1 sec)
  promolecular density results
     # of electrons  =    121.991496352
     EX              =    -61.079725350
     EC              =     -4.909607065
     EX+EC           =    -65.989332415
Transforming the Hamiltonian                       ... done (   0.0 sec)
Diagonalizing the Hamiltonian                      ... done (   0.0 sec)
Back transforming the eigenvectors                 ... done (   0.0 sec)
Now organizing SCF variables                       ... done
                      ------------------
                      INITIAL GUESS DONE (   2.5 sec)
                      ------------------
             **** ENERGY FILE WAS UPDATED (./output/bisabolene_oxide_a/bisabolene_oxide_a.en.tmp) ****
Finished Guess after   3.5 sec
Maximum memory used throughout the entire GUESS-calculation: 35.9 MB


           ************************************************************
           *        Program running with 40 parallel MPI-processes    *
           *              working on a common directory               *
           ************************************************************

-------------------------------------------------------------------------------------------
                                      ORCA LEAN-SCF
                              memory conserving SCF solver
-------------------------------------------------------------------------------------------

----------------------------------------D-I-I-S--------------------------------------------
Iteration    Energy (Eh)           Delta-E    RMSDP     MaxDP     DIISErr   Damp  Time(sec)
-------------------------------------------------------------------------------------------
               ***  Starting incremental Fock matrix formation  ***
    1    -115.2184980738841205     0.00e+00  3.23e-03  7.29e-02  1.77e-01  0.700   8.3
    2    -115.4805504804633074    -2.62e-01  2.37e-03  5.20e-02  1.09e-01  0.700   6.2
                               ***Turning on AO-DIIS***
    3    -115.6191461891648942    -1.39e-01  1.22e-03  2.74e-02  5.91e-02  0.700   6.0
    4    -115.7009011082371899    -8.18e-02  2.62e-03  6.16e-02  3.74e-02  0.000   6.1
    5    -115.8723199678032643    -1.71e-01  1.97e-04  3.53e-03  4.00e-03  0.000   5.9
                              *** Initializing SOSCF ***
---------------------------------------S-O-S-C-F--------------------------------------
Iteration    Energy (Eh)           Delta-E    RMSDP     MaxDP     MaxGrad    Time(sec)
--------------------------------------------------------------------------------------
    6    -115.8727442820313627    -4.24e-04  9.35e-05  3.61e-03  2.20e-03     5.6
               *** Restarting incremental Fock matrix formation ***
    7    -115.8727655561859819    -2.13e-05  6.02e-05  3.00e-03  3.05e-04     8.1
    8    -115.8727765378868071    -1.10e-05  2.87e-05  1.57e-03  3.77e-04     7.1
    9    -115.8727858589105608    -9.32e-06  5.18e-06  1.53e-04  2.44e-05     6.7
   10    -115.8727859451136055    -8.62e-08  2.01e-06  6.55e-05  1.74e-05     6.4
   11    -115.8727860077729019    -6.27e-08  5.68e-07  1.49e-05  5.22e-06     6.0
   12    -115.8727860080971368    -3.24e-10  2.26e-07  6.34e-06  1.94e-06     5.6
                 **** Energy Check signals convergence ****

               *****************************************************
               *                     SUCCESS                       *
               *           SCF CONVERGED AFTER  12 CYCLES          *
               *****************************************************

Recomputing exchange energy using gridx3       ... done (    9.713 sec)
Old exchange energy                            :    -17.204637616 Eh
New exchange energy                            :    -17.204588462 Eh
Exchange energy change after final integration :      0.000049154 Eh
Total energy after final integration           :   -115.872736854 Eh
             **** ENERGY FILE WAS UPDATED (./output/bisabolene_oxide_a/bisabolene_oxide_a.en.tmp) ****

----------------
TOTAL SCF ENERGY
----------------

Total Energy       :       -115.87273685408852 Eh           -3153.05747 eV

Components:
Nuclear Repulsion  :        606.29199546140637 Eh           16498.04394 eV
Electronic Energy  :       -722.16478146950351 Eh          -19651.10275 eV
One Electron Energy:      -1377.69611249900481 Eh          -37489.01713 eV
Two Electron Energy:        655.53133102950130 Eh           17837.91438 eV

Virial components:
Potential Energy   :       -206.18323388976316 Eh           -5610.53103 eV
Kinetic Energy     :         90.31049703567464 Eh            2457.47356 eV
Virial Ratio       :          2.28304837928548

DFT components:
N(Alpha)           :       44.999899765312 electrons
N(Beta)            :       44.999899765312 electrons
N(Total)           :       89.999799530624 electrons
E(X)               :      -17.993318848776 Eh       
E(C)               :       -3.383383281888 Eh       
E(XC)              :      -21.376702130664 Eh       

---------------
SCF CONVERGENCE
---------------

  Last Energy change         ...    3.2423e-10  Tolerance :   1.0000e-08
  Last MAX-Density change    ...    6.3416e-06  Tolerance :   1.0000e-07
  Last RMS-Density change    ...    2.2584e-07  Tolerance :   5.0000e-09
  Last DIIS Error            ...    2.1993e-03  Tolerance :   5.0000e-07
  Last Orbital Gradient      ...    1.9434e-06  Tolerance :   1.0000e-05
  Last Orbital Rotation      ...    3.3347e-06  Tolerance :   1.0000e-05


----------------
ORBITAL ENERGIES
----------------

  NO   OCC          E(Eh)            E(eV) 
   0   2.0000      -1.205149       -32.7938 
   1   2.0000      -0.979049       -26.6413 
   2   2.0000      -0.949969       -25.8500 
   3   2.0000      -0.911253       -24.7964 
   4   2.0000      -0.883323       -24.0364 
   5   2.0000      -0.874793       -23.8043 
   6   2.0000      -0.863041       -23.4845 
   7   2.0000      -0.821135       -22.3442 
   8   2.0000      -0.813839       -22.1457 
   9   2.0000      -0.789494       -21.4832 
  10   2.0000      -0.744480       -20.2583 
  11   2.0000      -0.736247       -20.0343 
  12   2.0000      -0.714172       -19.4336 
  13   2.0000      -0.672289       -18.2939 
  14   2.0000      -0.629659       -17.1339 
  15   2.0000      -0.626362       -17.0442 
  16   2.0000      -0.611893       -16.6505 
  17   2.0000      -0.591208       -16.0876 
  18   2.0000      -0.574042       -15.6205 
  19   2.0000      -0.568639       -15.4734 
  20   2.0000      -0.555944       -15.1280 
  21   2.0000      -0.545536       -14.8448 
  22   2.0000      -0.539181       -14.6719 
  23   2.0000      -0.535894       -14.5824 
  24   2.0000      -0.527650       -14.3581 
  25   2.0000      -0.520592       -14.1660 
  26   2.0000      -0.507706       -13.8154 
  27   2.0000      -0.507135       -13.7999 
  28   2.0000      -0.498952       -13.5772 
  29   2.0000      -0.496383       -13.5073 
  30   2.0000      -0.494035       -13.4434 
  31   2.0000      -0.486749       -13.2451 
  32   2.0000      -0.472959       -12.8699 
  33   2.0000      -0.469658       -12.7800 
  34   2.0000      -0.461742       -12.5646 
  35   2.0000      -0.455624       -12.3982 
  36   2.0000      -0.452166       -12.3040 
  37   2.0000      -0.435329       -11.8459 
  38   2.0000      -0.429129       -11.6772 
  39   2.0000      -0.414725       -11.2852 
  40   2.0000      -0.404099       -10.9961 
  41   2.0000      -0.378790       -10.3074 
  42   2.0000      -0.365441        -9.9441 
  43   2.0000      -0.325862        -8.8672 
  44   2.0000      -0.322054        -8.7635 
  45   0.0000       0.079448         2.1619 
  46   0.0000       0.084393         2.2965 
  47   0.0000       0.091721         2.4959 
  48   0.0000       0.095378         2.5954 
  49   0.0000       0.096540         2.6270 
  50   0.0000       0.098993         2.6937 
  51   0.0000       0.109797         2.9877 
  52   0.0000       0.114233         3.1084 
  53   0.0000       0.122018         3.3203 
  54   0.0000       0.128044         3.4843 
  55   0.0000       0.132345         3.6013 
*Only the first 10 virtual orbitals were printed.

                    ********************************
                    * MULLIKEN POPULATION ANALYSIS *
                    ********************************

-----------------------
MULLIKEN ATOMIC CHARGES
-----------------------
   0 C :   -0.093605
   1 C :   -0.060470
   2 C :   -0.017611
   3 C :   -0.068599
   4 C :   -0.086959
   5 C :   -0.040487
   6 C :   -0.068874
   7 C :    0.066838
   8 C :    0.089544
   9 O :   -0.331840
  10 C :   -0.090596
  11 C :   -0.003840
  12 C :   -0.053161
  13 C :   -0.086410
  14 C :   -0.101080
  15 C :   -0.059316
  16 H :    0.033635
  17 H :    0.054548
  18 H :    0.053676
  19 H :    0.009979
  20 H :    0.046293
  21 H :    0.049191
  22 H :    0.045589
  23 H :    0.045583
  24 H :    0.045111
  25 H :    0.041935
  26 H :    0.047589
  27 H :    0.021268
  28 H :    0.045275
  29 H :    0.047045
  30 H :    0.004670
  31 H :    0.037551
  32 H :    0.047558
  33 H :    0.046705
  34 H :    0.049612
  35 H :    0.037099
  36 H :    0.057372
  37 H :    0.046019
  38 H :    0.053411
  39 H :    0.039753
Sum of atomic charges:    0.0000000

--------------------------------
MULLIKEN REDUCED ORBITAL CHARGES
--------------------------------
  0 C s       :     0.956985  s :     0.956985
      pz      :     1.047862  p :     3.062858
      px      :     0.975620
      py      :     1.039377
      dz2     :     0.009460  d :     0.073761
      dxz     :     0.015962
      dyz     :     0.016534
      dx2y2   :     0.014292
      dxy     :     0.017513

  1 C s       :     1.082409  s :     1.082409
      pz      :     0.963377  p :     2.858862
      px      :     0.905556
      py      :     0.989929
      dz2     :     0.021894  d :     0.119199
      dxz     :     0.025291
      dyz     :     0.013655
      dx2y2   :     0.028566
      dxy     :     0.029792

  2 C s       :     1.018802  s :     1.018802
      pz      :     1.002302  p :     2.908121
      px      :     0.929736
      py      :     0.976083
      dz2     :     0.014274  d :     0.090687
      dxz     :     0.020624
      dyz     :     0.009177
      dx2y2   :     0.020959
      dxy     :     0.025652

  3 C s       :     0.992437  s :     0.992437
      pz      :     0.968772  p :     2.975348
      px      :     0.964500
      py      :     1.042076
      dz2     :     0.014804  d :     0.100815
      dxz     :     0.024396
      dyz     :     0.023552
      dx2y2   :     0.021059
      dxy     :     0.017004

  4 C s       :     1.044885  s :     1.044885
      pz      :     0.972002  p :     2.927642
      px      :     0.941797
      py      :     1.013844
      dz2     :     0.021974  d :     0.114432
      dxz     :     0.023011
      dyz     :     0.025669
      dx2y2   :     0.022504
      dxy     :     0.021273

  5 C s       :     1.001929  s :     1.001929
      pz      :     0.986098  p :     2.944803
      px      :     1.020529
      py      :     0.938176
      dz2     :     0.015490  d :     0.093755
      dxz     :     0.018360
      dyz     :     0.022519
      dx2y2   :     0.016844
      dxy     :     0.020542

  6 C s       :     0.996910  s :     0.996910
      pz      :     1.022336  p :     2.971860
      px      :     0.957203
      py      :     0.992321
      dz2     :     0.011999  d :     0.100104
      dxz     :     0.022511
      dyz     :     0.026282
      dx2y2   :     0.016734
      dxy     :     0.022578

  7 C s       :     1.117404  s :     1.117404
      pz      :     0.818328  p :     2.630703
      px      :     0.882098
      py      :     0.930277
      dz2     :     0.028447  d :     0.185055
      dxz     :     0.035283
      dyz     :     0.034247
      dx2y2   :     0.049990
      dxy     :     0.037088

  8 C s       :     1.103630  s :     1.103630
      pz      :     0.759361  p :     2.651918
      px      :     0.946393
      py      :     0.946164
      dz2     :     0.039822  d :     0.154908
      dxz     :     0.033523
      dyz     :     0.026623
      dx2y2   :     0.028163
      dxy     :     0.026776

  9 O s       :     1.822221  s :     1.822221
      pz      :     1.313068  p :     4.463169
      px      :     1.570580
      py      :     1.579520
      dz2     :     0.013908  d :     0.046450
      dxz     :     0.012162
      dyz     :     0.011771
      dx2y2   :     0.004295
      dxy     :     0.004313

 10 C s       :     0.984939  s :     0.984939
      pz      :     1.013685  p :     3.010127
      px      :     0.923709
      py      :     1.072733
      dz2     :     0.013013  d :     0.095530
      dxz     :     0.019879
      dyz     :     0.025598
      dx2y2   :     0.024018
      dxy     :     0.013022

 11 C s       :     1.030071  s :     1.030071
      pz      :     0.965854  p :     2.883402
      px      :     0.946487
      py      :     0.971061
      dz2     :     0.018983  d :     0.090366
      dxz     :     0.014691
      dyz     :     0.013540
      dx2y2   :     0.023229
      dxy     :     0.019924

 12 C s       :     1.101734  s :     1.101734
      pz      :     0.948076  p :     2.831980
      px      :     0.921935
      py      :     0.961969
      dz2     :     0.023275  d :     0.119447
      dxz     :     0.013971
      dyz     :     0.023941
      dx2y2   :     0.029474
      dxy     :     0.028785

 13 C s       :     0.960605  s :     0.960605
      pz      :     1.017329  p :     3.049860
      px      :     0.988633
      py      :     1.043898
      dz2     :     0.022985  d :     0.075944
      dxz     :     0.012937
      dyz     :     0.007907
      dx2y2   :     0.018438
      dxy     :     0.013678

 14 C s       :     0.956224  s :     0.956224
      pz      :     1.050776  p :     3.072103
      px      :     1.045051
      py      :     0.976276
      dz2     :     0.012783  d :     0.072753
      dxz     :     0.008977
      dyz     :     0.018264
      dx2y2   :     0.017255
      dxy     :     0.015474

 15 C s       :     0.954723  s :     0.954723
      pz      :     1.040407  p :     3.036049
      px      :     1.044781
      py      :     0.950861
      dz2     :     0.016861  d :     0.068545
      dxz     :     0.007209
      dyz     :     0.013883
      dx2y2   :     0.016613
      dxy     :     0.013979

 16 H s       :     0.922267  s :     0.922267
      pz      :     0.015599  p :     0.044098
      px      :     0.009934
      py      :     0.018564

 17 H s       :     0.901347  s :     0.901347
      pz      :     0.012259  p :     0.044104
      px      :     0.015024
      py      :     0.016822

 18 H s       :     0.902182  s :     0.902182
      pz      :     0.020225  p :     0.044141
      px      :     0.012486
      py      :     0.011431

 19 H s       :     0.940781  s :     0.940781
      pz      :     0.016122  p :     0.049240
      px      :     0.018830
      py      :     0.014288

 20 H s       :     0.911261  s :     0.911261
      pz      :     0.013795  p :     0.042446
      px      :     0.013621
      py      :     0.015030

 21 H s       :     0.907999  s :     0.907999
      pz      :     0.012440  p :     0.042810
      px      :     0.010057
      py      :     0.020313

 22 H s       :     0.914317  s :     0.914317
      pz      :     0.011637  p :     0.040094
      px      :     0.011718
      py      :     0.016740

 23 H s       :     0.908969  s :     0.908969
      pz      :     0.011452  p :     0.045448
      px      :     0.021914
      py      :     0.012082

 24 H s       :     0.913353  s :     0.913353
      pz      :     0.017483  p :     0.041535
      px      :     0.013042
      py      :     0.011011

 25 H s       :     0.915189  s :     0.915189
      pz      :     0.016729  p :     0.042877
      px      :     0.010779
      py      :     0.015369

 26 H s       :     0.909490  s :     0.909490
      pz      :     0.015744  p :     0.042922
      px      :     0.014448
      py      :     0.012729

 27 H s       :     0.937070  s :     0.937070
      pz      :     0.007562  p :     0.041663
      px      :     0.011634
      py      :     0.022467

 28 H s       :     0.910541  s :     0.910541
      pz      :     0.015105  p :     0.044184
      px      :     0.010203
      py      :     0.018875

 29 H s       :     0.908962  s :     0.908962
      pz      :     0.015178  p :     0.043993
      px      :     0.010973
      py      :     0.017842

 30 H s       :     0.945790  s :     0.945790
      pz      :     0.012945  p :     0.049540
      px      :     0.013708
      py      :     0.022887

 31 H s       :     0.918919  s :     0.918919
      pz      :     0.009931  p :     0.043530
      px      :     0.010257
      py      :     0.023342

 32 H s       :     0.908640  s :     0.908640
      pz      :     0.022243  p :     0.043802
      px      :     0.010575
      py      :     0.010985

 33 H s       :     0.909440  s :     0.909440
      pz      :     0.011798  p :     0.043855
      px      :     0.019613
      py      :     0.012445

 34 H s       :     0.905701  s :     0.905701
      pz      :     0.021997  p :     0.044687
[...]
 86:   1516.83   0.001026    5.18  0.000211  ( 0.000539  0.009839 -0.010676)
 87:   1521.26   0.001348    6.81  0.000277  (-0.008067  0.007272  0.012596)
 88:   1522.91   0.004347   21.97  0.000891  ( 0.020839  0.014374  0.015806)
 89:   1525.04   0.002069   10.46  0.000423  ( 0.006021 -0.013660  0.014162)
 90:   1529.11   0.001356    6.85  0.000277  (-0.008261  0.014067  0.003266)
 91:   1531.15   0.001451    7.33  0.000296  ( 0.000416  0.016582 -0.004540)
 92:   1543.35   0.001923    9.72  0.000389  (-0.008690  0.001893 -0.017599)
 93:   1578.84   0.002696   13.62  0.000533  (-0.000100  0.006231 -0.022227)
 94:   1798.85   0.000782    3.95  0.000136  (-0.000576  0.007393  0.008983)
 95:   1810.32   0.001025    5.18  0.000177  ( 0.009389 -0.009136  0.002242)
 96:   3067.33   0.005746   29.04  0.000585  ( 0.016196 -0.000120  0.017951)
 97:   3081.68   0.005204   26.30  0.000527  ( 0.013430 -0.017207 -0.007109)
 98:   3093.17   0.007862   39.73  0.000793  (-0.017330 -0.020662 -0.008118)
 99:   3094.55   0.006925   35.00  0.000698  (-0.019168  0.006204  0.017101)
100:   3097.10   0.002033   10.27  0.000205  (-0.007008  0.012365 -0.001690)
101:   3101.32   0.008031   40.58  0.000808  ( 0.016118 -0.022584  0.006186)
102:   3113.23   0.003571   18.04  0.000358  ( 0.003832 -0.015290 -0.010461)
103:   3124.05   0.005667   28.64  0.000566  (-0.009800  0.014046 -0.016516)
104:   3133.59   0.003344   16.90  0.000333  ( 0.000179 -0.004280 -0.017740)
105:   3150.33   0.007075   35.75  0.000701  (-0.011236 -0.008659 -0.022352)
106:   3159.60   0.003925   19.83  0.000388  (-0.004946  0.017055  0.008502)
107:   3168.78   0.001561    7.89  0.000154  (-0.004086 -0.011427 -0.002536)
108:   3169.81   0.000782    3.95  0.000077  ( 0.005843  0.005134  0.004063)
109:   3169.98   0.002041   10.31  0.000201  (-0.006966  0.009314 -0.008100)
110:   3171.45   0.003940   19.91  0.000388  (-0.012952 -0.011362 -0.009534)
111:   3180.64   0.001896    9.58  0.000186  ( 0.012075 -0.005168 -0.003675)
112:   3190.22   0.002631   13.29  0.000257  ( 0.000497 -0.016007 -0.000928)
113:   3197.82   0.002074   10.48  0.000202  (-0.007585  0.007609 -0.009326)
114:   3203.02   0.002525   12.76  0.000246  (-0.010342  0.002089  0.011604)
115:   3207.87   0.000849    4.29  0.000083  (-0.005212  0.006497 -0.003632)
116:   3213.70   0.003124   15.79  0.000303  ( 0.002368  0.012505 -0.011889)
117:   3228.29   0.003284   16.60  0.000317  (-0.011724  0.000685  0.013399)
118:   3230.17   0.004676   23.63  0.000452  (-0.017667 -0.002027  0.011643)
119:   3235.85   0.002486   12.56  0.000240  ( 0.014324  0.004969 -0.003148)

* The epsilon (eps) is given for a Dirac delta lineshape.
** The dipole moment derivative (T) already includes vibrational overlap.

The first frequency considered to be a vibration is 6
The total number of vibrations considered is 114


--------------------------
THERMOCHEMISTRY AT 298.15K
--------------------------

Temperature         ...   298.15 K
Pressure            ...     1.00 atm
Total Mass          ...   220.36 AMU
Quasi RRHO          ...     True
Cut-Off Frequency   ...     1.00 cm^-1

Throughout the following assumptions are being made:
  (1) The electronic state is orbitally nondegenerate
  (2) There are no thermally accessible electronically excited states
  (3) Hindered rotations indicated by low frequency modes are not
      treated as such but are treated as vibrations and this may
      cause some error
  (4) All equations used are the standard statistical mechanics
      equations for an ideal gas
  (5) All vibrations are strictly harmonic

freq.      20.32  E(vib)   ...       0.56 
freq.      28.23  E(vib)   ...       0.55 
freq.      43.65  E(vib)   ...       0.53 
freq.      59.88  E(vib)   ...       0.51 
freq.      76.34  E(vib)   ...       0.49 
freq.     119.52  E(vib)   ...       0.44 
freq.     133.11  E(vib)   ...       0.42 
freq.     145.34  E(vib)   ...       0.41 
freq.     171.68  E(vib)   ...       0.38 
freq.     187.41  E(vib)   ...       0.36 
freq.     195.92  E(vib)   ...       0.36 
freq.     220.24  E(vib)   ...       0.33 
freq.     241.60  E(vib)   ...       0.31 
freq.     254.24  E(vib)   ...       0.30 
freq.     281.37  E(vib)   ...       0.28 
freq.     306.08  E(vib)   ...       0.26 
freq.     331.51  E(vib)   ...       0.24 
freq.     348.64  E(vib)   ...       0.23 
freq.     385.01  E(vib)   ...       0.20 
freq.     424.75  E(vib)   ...       0.18 
freq.     433.39  E(vib)   ...       0.17 
freq.     460.13  E(vib)   ...       0.16 
freq.     467.66  E(vib)   ...       0.16 
freq.     503.31  E(vib)   ...       0.14 
freq.     525.89  E(vib)   ...       0.13 
freq.     543.67  E(vib)   ...       0.12 
freq.     573.86  E(vib)   ...       0.11 
freq.     604.08  E(vib)   ...       0.10 
freq.     684.17  E(vib)   ...       0.07 
freq.     740.53  E(vib)   ...       0.06 
freq.     797.54  E(vib)   ...       0.05 
freq.     803.12  E(vib)   ...       0.05 
freq.     833.45  E(vib)   ...       0.04 
freq.     842.65  E(vib)   ...       0.04 
freq.     867.54  E(vib)   ...       0.04 
freq.     900.43  E(vib)   ...       0.03 
freq.     947.07  E(vib)   ...       0.03 
freq.     949.57  E(vib)   ...       0.03 
freq.     968.88  E(vib)   ...       0.03 
freq.     980.31  E(vib)   ...       0.02 
freq.     985.71  E(vib)   ...       0.02 
freq.    1012.48  E(vib)   ...       0.02 
freq.    1036.85  E(vib)   ...       0.02 
freq.    1040.18  E(vib)   ...       0.02 
freq.    1043.17  E(vib)   ...       0.02 
freq.    1062.76  E(vib)   ...       0.02 
freq.    1078.90  E(vib)   ...       0.02 
freq.    1094.55  E(vib)   ...       0.02 
freq.    1116.54  E(vib)   ...       0.01 
freq.    1128.91  E(vib)   ...       0.01 
freq.    1138.99  E(vib)   ...       0.01 
freq.    1145.06  E(vib)   ...       0.01 
freq.    1154.63  E(vib)   ...       0.01 
freq.    1170.27  E(vib)   ...       0.01 
freq.    1184.59  E(vib)   ...       0.01 
freq.    1213.18  E(vib)   ...       0.01 
freq.    1232.86  E(vib)   ...       0.01 
freq.    1235.09  E(vib)   ...       0.01 
freq.    1258.17  E(vib)   ...       0.01 
freq.    1278.04  E(vib)   ...       0.01 
freq.    1293.35  E(vib)   ...       0.01 
freq.    1302.54  E(vib)   ...       0.01 
freq.    1344.85  E(vib)   ...       0.01 
freq.    1353.39  E(vib)   ...       0.01 
freq.    1357.10  E(vib)   ...       0.01 
freq.    1386.27  E(vib)   ...       0.00 
freq.    1396.64  E(vib)   ...       0.00 
freq.    1417.13  E(vib)   ...       0.00 
freq.    1417.61  E(vib)   ...       0.00 
freq.    1427.07  E(vib)   ...       0.00 
freq.    1436.00  E(vib)   ...       0.00 
freq.    1450.55  E(vib)   ...       0.00 
freq.    1453.47  E(vib)   ...       0.00 
freq.    1457.06  E(vib)   ...       0.00 
freq.    1459.60  E(vib)   ...       0.00 
freq.    1494.74  E(vib)   ...       0.00 
freq.    1503.02  E(vib)   ...       0.00 
freq.    1507.56  E(vib)   ...       0.00 
freq.    1508.81  E(vib)   ...       0.00 
freq.    1515.78  E(vib)   ...       0.00 
freq.    1516.83  E(vib)   ...       0.00 
freq.    1521.26  E(vib)   ...       0.00 
freq.    1522.91  E(vib)   ...       0.00 
freq.    1525.04  E(vib)   ...       0.00 
freq.    1529.11  E(vib)   ...       0.00 
freq.    1531.15  E(vib)   ...       0.00 
freq.    1543.35  E(vib)   ...       0.00 
freq.    1578.84  E(vib)   ...       0.00 
freq.    1798.85  E(vib)   ...       0.00 
freq.    1810.32  E(vib)   ...       0.00 
freq.    3067.33  E(vib)   ...       0.00 
freq.    3081.68  E(vib)   ...       0.00 
freq.    3093.17  E(vib)   ...       0.00 
freq.    3094.55  E(vib)   ...       0.00 
freq.    3097.10  E(vib)   ...       0.00 
freq.    3101.32  E(vib)   ...       0.00 
freq.    3113.23  E(vib)   ...       0.00 
freq.    3124.05  E(vib)   ...       0.00 
freq.    3133.59  E(vib)   ...       0.00 
freq.    3150.33  E(vib)   ...       0.00 
freq.    3159.60  E(vib)   ...       0.00 
freq.    3168.78  E(vib)   ...       0.00 
freq.    3169.81  E(vib)   ...       0.00 
freq.    3169.98  E(vib)   ...       0.00 
freq.    3171.45  E(vib)   ...       0.00 
freq.    3180.64  E(vib)   ...       0.00 
freq.    3190.22  E(vib)   ...       0.00 
freq.    3197.82  E(vib)   ...       0.00 
freq.    3203.02  E(vib)   ...       0.00 
freq.    3207.87  E(vib)   ...       0.00 
freq.    3213.70  E(vib)   ...       0.00 
freq.    3228.29  E(vib)   ...       0.00 
freq.    3230.17  E(vib)   ...       0.00 
freq.    3235.85  E(vib)   ...       0.00 

------------
INNER ENERGY
------------

The inner energy is: U= E(el) + E(ZPE) + E(vib) + E(rot) + E(trans)
    E(el)   - is the total energy from the electronic structure calculation
              = E(kin-el) + E(nuc-el) + E(el-el) + E(nuc-nuc)
    E(ZPE)  - the the zero temperature vibrational energy from the frequency calculation
    E(vib)  - the the finite temperature correction to E(ZPE) due to population
              of excited vibrational states
    E(rot)  - is the rotational thermal energy
    E(trans)- is the translational thermal energy

Summary of contributions to the inner energy U:
Electronic energy                ...   -115.95025056 Eh
Zero point energy                ...      0.36714221 Eh     230.38 kcal/mol
Thermal vibrational correction   ...      0.01489569 Eh       9.35 kcal/mol
Thermal rotational correction    ...      0.00141627 Eh       0.89 kcal/mol
Thermal translational correction ...      0.00141627 Eh       0.89 kcal/mol
-----------------------------------------------------------------------
Total thermal energy                   -115.56538012 Eh


Summary of corrections to the electronic energy:
(perhaps to be used in another calculation)
Total thermal correction                  0.01772824 Eh      11.12 kcal/mol
Non-thermal (ZPE) correction              0.36714221 Eh     230.38 kcal/mol
-----------------------------------------------------------------------
Total correction                          0.38487044 Eh     241.51 kcal/mol


--------
ENTHALPY
--------

The enthalpy is H = U + kB*T
                kB is Boltzmann's constant
Total thermal energy              ...   -115.56538012 Eh 
Thermal Enthalpy correction       ...      0.00094421 Eh       0.59 kcal/mol
-----------------------------------------------------------------------
Total Enthalpy                    ...   -115.56443591 Eh


Note: Only C1 symmetry has been detected, increase convergence thresholds 
      if your molecule has a higher symmetry. Symmetry factor of 1.0 is   
      used for the rotational entropy correction. 
 

Note: Rotational entropy computed according to Herzberg 
Infrared and Raman Spectra, Chapter V,1, Van Nostrand Reinhold, 1945 
Point Group:  C1, Symmetry Number:   1  
Rotational constants in cm-1:     0.028287     0.007967     0.007055 

Vibrational entropy computed according to the QRRHO of S. Grimme
Chem.Eur.J. 2012 18 9955 using a reference frequency of 100.0 cm-1


-------
ENTROPY
-------

The entropy contributions are T*S = T*(S(el)+S(vib)+S(rot)+S(trans))
     S(el)   - electronic entropy
     S(vib)  - vibrational entropy
     S(rot)  - rotational entropy
     S(trans)- translational entropy
The entropies will be listed as multiplied by the temperature to get
units of energy

Electronic entropy                ...      0.00000000 Eh      0.00 kcal/mol
Vibrational entropy               ...      0.02657704 Eh     16.68 kcal/mol
Rotational entropy                ...      0.01581410 Eh      9.92 kcal/mol
Translational entropy             ...      0.01999020 Eh     12.54 kcal/mol
-----------------------------------------------------------------------
Final entropy term                ...      0.06238134 Eh     39.14 kcal/mol

In case the symmetry of your molecule has not been determined correctly
or in case you have a reason to use a different symmetry number we print 
out the resulting rotational entropy values for sn=1,12:

 non-linear molecules -----------------------------------
|  sn= 1 | S(rot)=       0.01581410 Eh      9.92 kcal/mol|
|  sn= 2 | S(rot)=       0.01515965 Eh      9.51 kcal/mol|
|  sn= 3 | S(rot)=       0.01477681 Eh      9.27 kcal/mol|
|  sn= 4 | S(rot)=       0.01450519 Eh      9.10 kcal/mol|
|  sn= 5 | S(rot)=       0.01429450 Eh      8.97 kcal/mol|
|  sn= 6 | S(rot)=       0.01412236 Eh      8.86 kcal/mol|
|  sn= 7 | S(rot)=       0.01397681 Eh      8.77 kcal/mol|
|  sn= 8 | S(rot)=       0.01385073 Eh      8.69 kcal/mol|
|  sn= 9 | S(rot)=       0.01373953 Eh      8.62 kcal/mol|
|  sn=10 | S(rot)=       0.01364005 Eh      8.56 kcal/mol|
|  sn=11 | S(rot)=       0.01355006 Eh      8.50 kcal/mol|
|  sn=12 | S(rot)=       0.01346790 Eh      8.45 kcal/mol|
 linear molecules ---------------------------------------
|  Dinfh | S(rot)=       0.01000333 Eh      6.28 kcal/mol|
|  Cinfv | S(rot)=       0.01065778 Eh      6.69 kcal/mol|
 --------------------------------------------------------


-------------------
GIBBS FREE ENERGY
-------------------

The Gibbs free energy is G = H - T*S

Total enthalpy                    ...   -115.56443591 Eh 
Total entropy correction          ...     -0.06238134 Eh    -39.14 kcal/mol
-----------------------------------------------------------------------
Final Gibbs free energy         ...   -115.62681725 Eh

For completeness - the Gibbs free energy minus the electronic energy
G-E(el)                           ...      0.32343331 Eh    202.96 kcal/mol


Maximum memory used throughout the entire PROP-calculation: 252.3 MB

--------------------------------
SUGGESTED CITATIONS FOR THIS RUN
--------------------------------

Below you find a list of papers that are relevant to this ORCA run
We neither can nor want to force you to cite these papers, but we appreciate if you do
You receive ORCA, which is the product of decades of hard work by many enthusiastic individuals, for free
The only thing we kindly ask in return is that you cite our papers,
We deeply appreciate it, if you show your appreciation for ORCA by not just citing the generic ORCA reference.

Please note that relegating all ORCA citations to the supporting information does *not* help us.
SI sections are not indexed - citations you put there will not count into any citation statistics
But we need these citations in order to attract the funding resources that allow us to do what we are doing

Therefore, if you are a happy ORCA user, please consider citing a few of the papers listed below in the main body of your paper

In addition to the list printed below, the program has created the file ./output/bisabolene_oxide_a/bisabolene_oxide_a.bibtex that contains the list in bibtex format
You can import this file easily into all common literature databanks and citation aid programs


List of essential papers. We consider these as the minimum necessary citations

  1. Neese,F.
     Software update: the ORCA program system, version 5.0
     WIRES Comput. Molec. Sci., 2022 12(1)e1606
     doi.org/10.1002/wcms.1606
  2. Mueller,M.; Hansen,A.; Grimme,S.
     wB97X-3c: A composite range-separated hybrid DFT method with a molecule-optimized polarized valence double-zeta basis set
     J. Chem. Phys., 2023 158 014103
     doi.org/10.1063/5.0133026

List of papers to cite with high priority. The work reported in these papers was absolutely
necessary for this run to complete.
Our perspective: the developers of density functionals and basis sets usually get cited in chemistry papers
Good! But without the algorithms to do something with them, the functionals or basis sets would not do anything.
Hence, in our opinion, the algorithm design and method developments papers are equally worthy of getting cited

  1. Neese,F.
     An improvement of the resolution of the identity approximation for the formation of the Coulomb matrix
     J. Comp. Chem., 2003 24(14)1740-1747
     doi.org/10.1002/jcc.10318
  2. Neese,F.; Wennmohs,F.; Hansen,A.; Becker,U.
     Efficient, approximate and parallel Hartree-Fock and hybrid DFT calculations. A 'chain-of-spheres' algorithm for the Hartree-Fock exchange
     Chem. Phys., 2009 356(1-3)98-109
     doi.org/10.1016/j.chemphys.2008.10.036
  3. Bykov,D.; Petrenko,T.; Izsak,R.; Kossmann,S.; Becker,U.; Valeev,E.; Neese,F.
     Efficient implementation of the analytic second derivatives of Hartree-Fock and hybrid DFT energies: a detailed analysis of different approximations
     Molec. Phys., 2015 113 1961-1977
     doi.org/10.1080/00268976.2015.1025114
  4. Helmich-Paris,B.; de Souza,B.; Neese,F.; Izsák,R.
     An improved chain of spheres for exchange algorithm
     J. Chem. Phys., 2021 155 104109
     doi.org/doi: 10.1063/5.0058766.
  5. Neese,F.
     The SHARK Integral Generation and Digestion System
     J. Comp. Chem., 2022  1-16
     doi.org/10.1002/jcc.26942
  6. Caldeweyher,E.; Bannwarth,C.; Grimme,S.
     Extension of the D3 dispersion coefficient model
     J. Chem. Phys., 2017 147 034112
     doi.org/10.1063/1.4993215
  7. Caldeweyher,E.; Ehlert,S.; Hansen,A.; Neugebauer,H.; Spicher,S.; Bannwarth,C.; Grimme,S.
     A generally applicable atomic-charge dependent London dispersion correction
     J. Chem. Phys., 2019 150 154122
     doi.org/10.1063/1.5090222
  8. Caldeweyher,E.; Mewes,J.; Ehlert,S.; Grimme,S.
     Extension and evaluation of the D4 London-dispersion model for periodic systems
     Phys. Chem. Chem. Phys., 2020 22(16)8499-8512
     doi.org/10.1039/D0CP00502A
  9. Wittmann,L.; Gordiy,I.; Friede,M.; Helmich-Paris,B.; Grimme,S.; Hansen,A.; Bursch,M.
     Extension of the D3 and D4 London Dispersion Corrections to the full Actinides Series
     Phys. Chem. Chem. Phys., 2024 26(32)21379-21394
     doi.org/https://doi.org/10.1039/D4CP01514B 

List of suggested additional citations. These are papers that are important in the 'surrounding' of 
of this run, or papers that preceded the highly important papers. If you like your results we are grateful for a citation.

  1. Izsak,R.; Neese,F.
     An overlap fitted chain of spheres exchange method
     J. Chem. Phys., 2011 135 144105
     doi.org/10.1063/1.3646921
  2. Izsak,R.; Hansen,A.; Neese,F.
     The resolution of identity and chain of spheres approximations for the LPNO-CCSD singles Fock term
     Molec. Phys., 2012 110 2413-2417
     doi.org/10.1080/00268976.2012.687466
  3. Neese,F.
     The ORCA program system
     WIRES Comput. Molec. Sci., 2012 2(1)73-78
     doi.org/10.1002/wcms.81
  4. Izsak,R.; Neese,F.; Klopper,W.
     Robust fitting techniques in the chain of spheres approximation to the Fock exchange: The role of the complementary space
     J. Chem. Phys., 2013 139 
     doi.org/10.1063/1.4819264
  5. Neese,F.
     Software update: the ORCA program system, version 4.0
     WIRES Comput. Molec. Sci., 2018 8(1)1-6
     doi.org/10.1002/wcms.1327
  6. Neese,F.; Wennmohs,F.; Becker,U.; Riplinger,C.
     The ORCA quantum chemistry program package
     J. Chem. Phys., 2020 152 Art. No. L224108
     doi.org/10.1063/5.0004608

List of optional additional citations

  1. Neese,F.
     Approximate second-order SCF convergence for spin unrestricted wavefunctions
     Chem. Phys. Lett., 2000 325(1-3)93-98
     doi.org/10.1016/s0009-2614(00)00662-x

Timings for individual modules:

Sum of individual times          ...     2934.659 sec (=  48.911 min)
Startup calculation              ...      142.002 sec (=   2.367 min)   4.8 %
SCF iterations                   ...     1963.474 sec (=  32.725 min)  66.9 %
Property integrals               ...      149.009 sec (=   2.483 min)   5.1 %
SCF Response                     ...       90.239 sec (=   1.504 min)   3.1 %
Property calculations            ...      191.583 sec (=   3.193 min)   6.5 %
SCF Gradient evaluation          ...      397.515 sec (=   6.625 min)  13.5 %
Geometry relaxation              ...        0.835 sec (=   0.014 min)   0.0 %
                             ****ORCA TERMINATED NORMALLY****
TOTAL RUN TIME: 0 days 0 hours 49 minutes 7 seconds 367 msec
