
                                 *****************
                                 * O   R   C   A *
                                 *****************

                                            #,                                       
                                            ###                                      
                                            ####                                     
                                            #####                                    
                                            ######                                   
                                           ########,                                 
                                     ,,################,,,,,                         
                               ,,#################################,,                 
                          ,,##########################################,,             
                       ,#########################################, ''#####,          
                    ,#############################################,,   '####,        
                  ,##################################################,,,,####,       
                ,###########''''           ''''###############################       
              ,#####''   ,,,,##########,,,,          '''####'''          '####       
            ,##' ,,,,###########################,,,                        '##       
           ' ,,###''''                  '''############,,,                           
         ,,##''                                '''############,,,,        ,,,,,,###''
      ,#''                                            '''#######################'''  
     '                                                          ''''####''''         
             ,#######,   #######,   ,#######,      ##                                
            ,#'     '#,  ##    ##  ,#'     '#,    #''#        ,####,   ,####,        
            ##       ##  ##   ,#'  ##            #'  '#       #'       #'  '#        
            ##       ##  #######   ##           ,######,      #####,   #    #        
            '#,     ,#'  ##    ##  '#,     ,#' ,#      #,     #,   #   #,  ,#        
             '#######'   ##     ##  '#######'  #'      '#     '####' # '####'        



                #########################################################
                #                        -***-                          #
                #          Department of theory and spectroscopy        #
                #                                                       #
                #                      Frank Neese                      #
                #                                                       #
                #     Directorship, Architecture, Infrastructure        #
                #                    SHARK, DRIVERS                     #
                #        Core code/Algorithms in most modules           #
                #                                                       #
                #        Max Planck Institute fuer Kohlenforschung      #
                #                Kaiser Wilhelm Platz 1                 #
                #                 D-45470 Muelheim/Ruhr                 #
                #                      Germany                          #
                #                                                       #
                #                  All rights reserved                  #
                #                        -***-                          #
                #########################################################


                         Program Version 6.0.1  -  RELEASE   -


 With contributions from (in alphabetic order):
[Max-Planck-Institut fuer Kohlenforschung]                               
  Daniel Aravena         : Magnetic Suceptibility                        
  Michael Atanasov       : Ab Initio Ligand Field Theory (pilot matlab implementation)
  Alexander A. Auer      : GIAO ZORA, VPT2 properties, NMR spectrum      
  Ute Becker             : All parallelization in ORCA, NUMFREQ, NUMCALC 
  Giovanni Bistoni       : ED, misc. LED, open-shell LED, HFLD           
  Martin Brehm           : Molecular dynamics                            
  Dmytro Bykov           : pre 5.0 version of the SCF Hessian            
  Marcos Casanova-Páez   : Triplet and SCS-CIS(D). UHF-(DLPNO)-IP/EA/STEOM-CCSD. UHF-CVS-IP/STEOM-CCSD   
  Vijay G. Chilkuri      : MRCI spin determinant printing, contributions to CSF-ICE 
  Pauline Colinet        : FMM embedding                                 
  Dipayan Datta          : RHF DLPNO-CCSD density                        
  Achintya Kumar Dutta   : EOM-CC, STEOM-CC                              
  Nicolas Foglia         : Exact transition moments, OPA infrastructure, MCD improvements    
  Dmitry Ganyushin       : Spin-Orbit,Spin-Spin,Magnetic field MRCI      
  Miquel Garcia-Rates    : C-PCM and meta-GGA Hessian, CCSD/C-PCM, Gaussian charge scheme 
  Tiago L. C. Gouveia    : GS-ROHF, GS-ROCIS                             
  Yang Guo               : DLPNO-NEVPT2, F12-NEVPT2, CIM, IAO-localization        
  Andreas Hansen         : Spin unrestricted coupled pair/coupled cluster methods 
  Ingolf Harden          : AUTO-CI MPn and infrastructure                
  Benjamin Helmich-Paris : MC-RPA, TRAH-(SCF,CASSCF), AVAS, COSX integrals, SCF dyn. polar. 
  Lee Huntington         : MR-EOM, pCC                                   
  Robert Izsak           : Overlap fitted RIJCOSX, COSX-SCS-MP3, EOM     
  Riya Kayal             : Wick's Theorem for AUTO-CI, AUTO-CI UHF-CCSDT 
  Emily Kempfer          : AUTO-CI, RHF CISDT and CCSDT                  
  Christian Kollmar      : KDIIS, OOCD, Brueckner-CCSD(T), CCSD density, CASPT2, CASPT2-K, improved NEVPT2 
  Axel Koslowski         : Symmetry handling                             
  Simone Kossmann        : meta-GGA functionals, TD-DFT gradient, OOMP2, (MP2 Hessian; deprecated post 5.0) 
  Lucas Lang             : DCDCAS                                        
  Marvin Lechner         : AUTO-CI (C++ implementation), FIC-MRCC        
  Spencer Leger          : CASSCF response                               
  Dagmar Lenk            : GEPOL surface, SMD, ORCA-2-JSON               
  Dimitrios Liakos       : Extrapolation schemes; Compound Job, initial MDCI parallelization 
  Dimitrios Manganas     : Further ROCIS development; embedding schemes. LFT, Crystal Embedding 
  Dimitrios Pantazis     : SARC Basis sets                               
  Anastasios Papadopoulos: AUTO-CI, single reference methods and gradients 
  Taras Petrenko         : pre 6.0 DFT Hessian and TD-DFT gradient, (ASA, deprecated), ECA, 1-Electron XAS/XES, NRVS 
  Peter Pinski           : DLPNO-MP2, DLPNO-MP2 Gradient                 
  Christoph Reimann      : Effective Core Potentials                     
  Marius Retegan         : Local ZFS, SOC                                
  Christoph Riplinger    : Optimizer, TS searches, QM/MM, DLPNO-CCSD(T), (RO)-DLPNO pert. Triples 
  Michael Roemelt        : Original ROCIS implementation                 
  Masaaki Saitow         : Open-shell DLPNO-CCSD energy and density      
  Barbara Sandhoefer     : DKH picture change effects                    
  Kantharuban Sivalingam : CASSCF convergence/infrastructure, NEVPT2 and variants, FIC-MRCI 
  Bernardo de Souza      : ESD, SOC TD-DFT                               
  Georgi L. Stoychev     : AutoAux, RI-MP2 NMR, DLPNO-MP2 response, X2C  
  Van Anh Tran           : RI-MP2 g-tensors                              
  Willem Van den Heuvel  : Paramagnetic NMR                              
  Zikuan Wang            : NOTCH, Electric field optimization            
  Frank Wennmohs         : Technical directorship and infrastructure     
  Hang Xu                : AUTO-CI-Response properties                   
                                                                         
[FACCTs GmbH]                                                            
  Markus Bursch, Miquel Garcia-Rates, Christoph Riplinger, Bernardo de Souza, Georgi L. Stoychev 
                                                                 
  APM, Basis sets (HGBS, AHGBS, def-TZVP (Ac-Lr), def2-XVPD (La-Lu)), CI-OPT, improved COSX, DLPNO-Multilevel,           
  DOCKER, DRACO, updates on ESD, GOAT, IRC, LR-CPCM, MBIS, meta-GGA TD-DFT gradient, ML-optimized integration grids, 
  MM, NACMEs, nearIR, NEB, NEB-TS, NL-DFT gradient (VV10), 2- and 3-layer-ONIOM, interface openCOSMO-RS, QMMM,   
  Crystal-QMMM, SF, symmetry and pop. for TD-DFT, r2SCAN hybrids, SOLVATOR                                   
                                                                         
[Other institutions]                                                     
  V. Asgeirsson          : NEB                                           
  Christoph Bannwarth    : sTDA-DFT, sTD-DFT, PBEh-3c, B97-3c, D3        
  Sebastian Ehlert       : rSCAN, r2SCAN, r2SCAN-3c, D4, dhf basis sets  
  Marvin Friede          : D4 for Fr, Ra, Ac-Lr                          
  Lars Goerigk           : TD-DFT with DH, B97 family of functionals     
  Stefan Grimme          : VdW corrections, initial TS optimization, DFT functionals, gCP, sTDA/sTD-DF 
  Waldemar Hujo          : DFT-NL                                        
  H. Jonsson             : NEB                                           
  Holger Kruse           : gCP                                           
  Marcel Mueller         : wB97X-3c, vDZP basis set                      
  Hagen Neugebauer       : wr2SCAN                                       
  Tobias Risthaus        : range-separated hybrid DFT                    
  Lukas Wittmann         : regularized MP2, r2SCAN double-hybrids, wr2SCAN        
                                                                         
We gratefully acknowledge several colleagues who have allowed us to      
interface, adapt or use parts of their codes:                            
  Ed Valeev, F. Pavosevic, A. Kumar             : LibInt (2-el integral package), F12 methods 
  Garnet Chan, S. Sharma, J. Yang, R. Olivares  : DMRG                   
  Ulf Ekstrom                                   : XCFun DFT Library      
  Mihaly Kallay                                 : mrcc  (arbitrary order and MRCC methods)
  Frank Weinhold                                : gennbo (NPA and NBO analysis)           
  Simon Mueller                                 : openCOSMO-RS                            
  Christopher J. Cramer and Donald G. Truhlar   : smd solvation model                     
  S Lehtola, MJT Oliveira, MAL Marques          : LibXC Library                           
  Liviu Ungur et al                             : ANISO software                          


 Your calculation uses the libint2 library for the computation of 2-el integrals
 For citations please refer to: http://libint.valeyev.net

 Your ORCA version has been built with support for libXC version: 6.2.2
 For citations please refer to: https://libxc.gitlab.io

 This ORCA versions uses:
   CBLAS   interface :  Fast vector & matrix operations
   LAPACKE interface :  Fast linear algebra routines
   SCALAPACK package :  Parallel linear algebra routines
   Shared memory     :  Shared parallel matrices
   BLAS/LAPACK       :  OpenBLAS 0.3.27  USE64BITINT DYNAMIC_ARCH NO_AFFINITY SkylakeX SINGLE_THREADED
        Core in use  :  SkylakeX
   Copyright (c) 2011-2014, The OpenBLAS Project


Your calculation utilizes the atom-pairwise dispersion correction
based on EEQ partial charges (D4)


================================================================================

cite the ECPs for C  [vDZP-ECP], O  [vDZP-ECP] as follows:
   B-Ne (ecp-2-mwb), Al-Ar (ecp-10-mwb), Ga-Kr (ecp-28-mwb), Y-Cd (ecp-28-mwb), In-Xe (ecp-46-mwb):
     A. Bergner, M. Dolg, W. Küchle, H. Stoll, and H. Preuß, Mol. Phys. 80, 1431 (1993)., T. Leininger, A. Berning, A. Nicklass, H. Stoll, H.-J. Werner, and H.-J.Flad, Chem. Phys. 217, 19 (1997).
   Na-Mg, K-Ca, Rb-Sr, Cs-Ba (CRENBL):
     L. Fernandez Pacios and P. A. Christiansen, J. Chem. Phys. 82, 2664 (1985)., M. M. Hurley, L. F. Pacios, P. A. Christiansen, R. B. Ross, and W. C. Ermler, J. Chem. Phys. 84, 6840 (1986)., L. A. LaJohn, P. A. Christiansen, R. B. Ross, T. Atashroo, and W. C. Ermler, J. Chem. Phys. 87, 2812 (1987)., R. B. Ross, J. M. Powers, T. Atashroo, W. C. Ermler, L. A. LaJohn, and P. A. Christiansen, J. Chem. Phys. 93, 6654 (1990). 
   Sc-Zn (ecp-10-mdf):
     M. Dolg, U. Wedig, H. Stoll, and H. Preuss, J. Chem. Phys. 86, 866 (1986). 
   Y-Cd (ecp-28-mwb), Hf-Hg (ecp-60-mwb):
     D. Andrae, U. Häußermann, M. Dolg, H. Stoll, and H. Preuß, Theor. Chim. Acta 77, 123 (1990). 
   La (ecp-46-mwb):
     M. Dolg, H. Stoll, and H. Preuss, J. Chem. Phys. 90, 1730 (1989)., M. Dolg, H. Stoll, and H. Preuss, Theor. Chim. Acta 85, 441 (1993).
   Ce-Lu (SBKJC-ecp):
     T. R. Cundari and W. J. Stevens, J. Chem. Phys. 98, 5555 (1993).
   Tl-Rn (ecp-78-mwb):
     W. Küchle, M. Dolg, H. Stoll, and H. Preuss, Mol. Phys. 74, 1245 (1991).

ECP parameters for C  [vDZP-ECP], O  [vDZP-ECP] have been obtained from:
MM, AH, SG, J. Chem. Phys. 158, 014103 (2023), 10.1063/5.0133026

----- Orbital basis set information -----
Your calculation utilizes the basis: vDZP
   Marcel Mueller, Andreas Hansen, Stefan Grimme 
   J. Chem. Phys. 158, 014103 (2023). DOI: 10.1063/5.0133026

----- AuxJ basis set information -----
Your calculation utilizes the auxiliary basis: def2/J
   F. Weigend, Phys. Chem. Chem. Phys. 8, 1057 (2006).

================================================================================
                                        WARNINGS
                       Please study these warnings very carefully!
================================================================================

WARNING: Frozen-Core approximation turned on, but there are no core electrons.
  ===> : Turning off frozen-core approximation


WARNING: Geometry Optimization
  ===> : Switching off AutoStart
         For restart on a previous wavefunction, please use MOREAD

================================================================================
                                       INPUT FILE
================================================================================
NAME = ./output/linalyl_acetate/linalyl_acetate.inp
|  1> ! wB97X-3c OPT FREQ TightSCF
|  2> %pal
|  3>   nprocs 40
|  4> end
|  5> * xyz 0 1
|  6> C      3.061633    -1.056697    -0.505340
|  7> C      3.037349     0.237723     0.270192
|  8> C      1.943556     1.032553     0.308283
|  9> C      0.626027     0.694579    -0.343460
| 10> C     -0.248036    -0.149356     0.599928
| 11> C     -1.582751    -0.603772    -0.056291
| 12> C     -2.469598    -1.336388     0.972377
| 13> C     -1.306603    -1.541449    -1.222034
| 14> C     -0.648778    -2.702306    -1.100515
| 15> O     -2.295880     0.524074    -0.591153
| 16> C     -2.767880     1.633286     0.127885
| 17> O     -2.567251     1.748771     1.366369
| 18> C     -3.472715     2.724280    -0.603056
| 19> C      4.297750     0.663116     0.977874
| 20> H      2.888833    -0.858721    -1.583777
| 21> H      4.047973    -1.557427    -0.405421
| 22> H      2.286482    -1.752335    -0.125168
| 23> H      1.987301     1.971441     0.854070
| 24> H      0.100101     1.646901    -0.568224
| 25> H      0.788398     0.178618    -1.312214
| 26> H     -0.455757     0.446109     1.513812
| 27> H      0.321161    -1.038120     0.944274
| 28> H     -1.968706    -2.251160     1.353824
| 29> H     -3.434587    -1.628941     0.505443
| 30> H     -2.688618    -0.693594     1.848565
| 31> H     -1.652443    -1.255284    -2.211729
| 32> H     -0.480287    -3.321620    -1.975378
| 33> H     -0.273811    -3.046684    -0.142911
| 34> H     -2.746001     3.519858    -0.868542
| 35> H     -3.930176     2.323879    -1.531933
| 36> H     -4.273718     3.155650     0.033719
| 37> H      5.095996     0.850080     0.229404
| 38> H      4.628756    -0.144556     1.663999
| 39> H      4.152279     1.587493     1.577129
| 40> *
| 41> 
| 42>                          ****END OF INPUT****
================================================================================

                       *****************************
                       * Geometry Optimization Run *
                       *****************************

Geometry optimization settings:
Update method            Update   .... BFGS
Choice of coordinates    CoordSys .... (2022) Redundant Internals
Initial Hessian          InHess   .... Almloef's Model
Max. no of cycles        MaxIter  .... 102

Convergence Tolerances:
Energy Change            TolE     ....  5.0000e-06 Eh
Max. Gradient            TolMAXG  ....  3.0000e-04 Eh/bohr
RMS Gradient             TolRMSG  ....  1.0000e-04 Eh/bohr
Max. Displacement        TolMAXD  ....  4.0000e-03 bohr
RMS Displacement         TolRMSD  ....  2.0000e-03 bohr
Strict Convergence                .... False

------------------------------------------------------------------------------
                        ORCA OPTIMIZATION COORDINATE SETUP
------------------------------------------------------------------------------

The optimization will be done in redundant internal coordinates (2022)
Making redundant internal coordinates   ...  (2022 redundants) done
Evaluating the initial hessian          ...  (Almloef) done
Evaluating the coordinates              ...  done
Calculating the B-matrix                .... done
Calculating the G-matrix                .... done
Diagonalizing the G-matrix              .... done
Small eigenvalue found = 4.726e-03
Small eigenvalue found = 6.705e-03
Small eigenvalue found = 9.032e-03
Small eigenvalue found = 1.270e-02
Small eigenvalue found = 1.884e-02
Small eigenvalue found = 2.917e-02
The first mode is                       ....   51
The number of degrees of freedom        ....   96

    -----------------------------------------------------------------
                    Redundant Internal Coordinates


    -----------------------------------------------------------------
         Definition                    Initial Value    Approx d2E/dq
    -----------------------------------------------------------------
      1. B(C   1,C   0)                  1.5092         0.403299   
      2. B(C   2,C   1)                  1.3526         0.716756   
      3. B(C   3,C   2)                  1.5083         0.404619   
      4. B(C   4,C   3)                  1.5382         0.362431   
      5. B(C   5,C   4)                  1.5552         0.340570   
      6. B(C   6,C   5)                  1.5432         0.355927   
      7. B(C   7,C   5)                  1.5213         0.385661   
      8. B(C   8,C   7)                  1.3398         0.751301   
      9. B(O   9,C   5)                  1.4376         0.469837   
     10. B(C  10,O   9)                  1.4036         0.532285   
     11. B(O  11,C  10)                  1.2599         0.902379   
     12. B(C  12,C  10)                  1.4904         0.432050   
     13. B(C  13,C   1)                  1.5068         0.406841   
     14. B(H  14,C   0)                  1.1100         0.334602   
     15. B(H  15,C   0)                  1.1107         0.333772   
     16. B(H  16,C   0)                  1.1087         0.336145   
     17. B(H  17,C   2)                  1.0869         0.364251   
     18. B(H  18,C   3)                  1.1109         0.333522   
     19. B(H  19,C   3)                  1.1095         0.335165   
     20. B(H  20,C   4)                  1.1104         0.334143   
     21. B(H  21,C   4)                  1.1102         0.334391   
     22. B(H  22,C   6)                  1.1105         0.333981   
     23. B(H  23,C   6)                  1.1112         0.333090   
     24. B(H  24,C   6)                  1.1085         0.336391   
     25. B(H  25,C   7)                  1.0867         0.364446   
     26. B(H  26,C   8)                  1.0850         0.366714   
     27. B(H  27,C   8)                  1.0845         0.367411   
     28. B(H  28,C  12)                  1.1097         0.334901   
     29. B(H  29,C  12)                  1.1101         0.334423   
     30. B(H  30,C  12)                  1.1105         0.334000   
     31. B(H  31,C  13)                  1.1101         0.334447   
     32. B(H  32,C  13)                  1.1103         0.334278   
     33. B(H  33,C  13)                  1.1112         0.333133   
     34. A(C   1,C   0,H  16)          110.5292         0.324730   
     35. A(H  14,C   0,H  16)          109.6459         0.284443   
     36. A(H  15,C   0,H  16)          107.8882         0.284333   
     37. A(C   1,C   0,H  14)          110.1080         0.324485   
     38. A(C   1,C   0,H  15)          110.7779         0.324353   
     39. A(H  14,C   0,H  15)          107.8224         0.284130   
     40. A(C   0,C   1,C   2)          122.1063         0.412508   
     41. A(C   2,C   1,C  13)          119.8214         0.413149   
     42. A(C   0,C   1,C  13)          118.0370         0.373589   
     43. A(C   3,C   2,H  17)          116.4692         0.329232   
     44. A(C   1,C   2,C   3)          124.2315         0.412747   
     45. A(C   1,C   2,H  17)          119.2883         0.362423   
     46. A(C   2,C   3,H  18)          107.9926         0.324487   
     47. A(C   4,C   3,H  18)          108.9900         0.318691   
     48. A(C   4,C   3,H  19)          111.3152         0.318946   
     49. A(C   2,C   3,C   4)          110.7500         0.366445   
     50. A(H  18,C   3,H  19)          106.9345         0.284171   
     51. A(C   2,C   3,H  19)          110.7110         0.324749   
     52. A(C   3,C   4,H  20)          108.4722         0.318787   
     53. A(C   3,C   4,H  21)          109.7620         0.318826   
     54. A(H  20,C   4,H  21)          105.6616         0.284151   
     55. A(C   5,C   4,H  21)          109.6936         0.315612   
     56. A(C   5,C   4,H  20)          110.0863         0.315574   
     57. A(C   3,C   4,C   5)          112.9045         0.355832   
     58. A(C   6,C   5,C   7)          108.8137         0.362326   
     59. A(C   4,C   5,C   7)          110.3431         0.359611   
     60. A(C   7,C   5,O   9)          106.7684         0.377659   
     61. A(C   4,C   5,C   6)          110.5281         0.354741   
     62. A(C   6,C   5,O   9)          109.5960         0.372464   
     63. A(C   4,C   5,O   9)          110.7009         0.369649   
     64. A(H  22,C   6,H  24)          107.1742         0.284393   
     65. A(C   5,C   6,H  24)          111.4158         0.318195   
     66. A(H  22,C   6,H  23)          108.6121         0.283958   
     67. A(C   5,C   6,H  23)          110.1176         0.317684   
     68. A(C   5,C   6,H  22)          111.1510         0.317822   
     69. A(H  23,C   6,H  24)          108.2527         0.284275   
     70. A(C   8,C   7,H  25)          117.8400         0.365385   
     71. A(C   5,C   7,H  25)          118.5401         0.326665   
     72. A(C   5,C   7,C   8)          123.6179         0.412680   
     73. A(H  26,C   8,H  27)          118.4896         0.292597   
     74. A(C   7,C   8,H  27)          121.6657         0.365893   
     75. A(C   7,C   8,H  26)          119.8446         0.365774   
     76. A(C   5,O   9,C  10)          126.5982         0.396943   
     77. A(O  11,C  10,C  12)          119.3596         0.432323   
     78. A(O   9,C  10,C  12)          119.0953         0.393661   
     79. A(O   9,C  10,O  11)          121.4960         0.445963   
     80. A(H  29,C  12,H  30)          108.8243         0.284137   
     81. A(H  28,C  12,H  30)          109.3323         0.284200   
     82. A(C  10,C  12,H  30)          110.1357         0.328087   
     83. A(H  28,C  12,H  29)          109.1623         0.284256   
     84. A(C  10,C  12,H  29)          109.9506         0.328155   
     85. A(C  10,C  12,H  28)          109.4155         0.328232   
     86. A(H  32,C  13,H  33)          108.1146         0.284003   
     87. A(H  31,C  13,H  33)          108.5201         0.284025   
     88. A(C   1,C  13,H  33)          112.2491         0.324717   
     89. A(H  31,C  13,H  32)          108.9537         0.284176   
     90. A(C   1,C  13,H  32)          109.5273         0.324900   
     91. A(C   1,C  13,H  31)          109.4130         0.324927   
     92. D(C   2,C   1,C   0,H  14)     60.9652         0.012062   
     93. D(C  13,C   1,C   0,H  14)   -116.8681         0.012062   
     94. D(C  13,C   1,C   0,H  15)      2.3093         0.012062   
     95. D(C   2,C   1,C   0,H  15)   -179.8574         0.012062   
     96. D(C   2,C   1,C   0,H  16)    -60.3270         0.012062   
     97. D(C   3,C   2,C   1,C  13)   -178.9239         0.036331   
     98. D(C   3,C   2,C   1,C   0)      3.2805         0.036331   
     99. D(H  17,C   2,C   1,C  13)     -0.1708         0.036331   
    100. D(H  17,C   2,C   1,C   0)   -177.9664         0.036331   
    101. D(H  19,C   3,C   2,C   1)    -37.3054         0.012138   
    102. D(H  18,C   3,C   2,H  17)     27.1524         0.012138   
    103. D(H  18,C   3,C   2,C   1)   -154.0625         0.012138   
    104. D(C   4,C   3,C   2,C   1)     86.6684         0.012138   
    105. D(C   4,C   3,C   2,H  17)    -92.1168         0.012138   
    106. D(C   5,C   4,C   3,C   2)   -176.3145         0.010529   
    107. D(H  20,C   4,C   3,H  19)   -174.9789         0.010529   
    108. D(H  20,C   4,C   3,H  18)    -57.2726         0.010529   
    109. D(H  20,C   4,C   3,C   2)     61.3941         0.010529   
    110. D(C   5,C   4,C   3,H  19)    -52.6875         0.010529   
    111. D(C   5,C   4,C   3,H  18)     65.0188         0.010529   
    112. D(C   7,C   5,C   4,H  21)    -58.1399         0.009388   
    113. D(C   7,C   5,C   4,H  20)   -174.0003         0.009388   
    114. D(C   7,C   5,C   4,C   3)     64.6176         0.009388   
    115. D(C   6,C   5,C   4,H  21)     62.2643         0.009388   
    116. D(C   6,C   5,C   4,H  20)    -53.5961         0.009388   
    117. D(C   6,C   5,C   4,C   3)   -174.9782         0.009388   
    118. D(H  23,C   6,C   5,C   4)    178.1754         0.010180   
    119. D(H  22,C   6,C   5,O   9)    176.3103         0.010180   
    120. D(H  22,C   6,C   5,C   7)     59.8988         0.010180   
    121. D(H  23,C   6,C   5,C   7)    -60.5100         0.010180   
    122. D(H  22,C   6,C   5,C   4)    -61.4158         0.010180   
    123. D(H  23,C   6,C   5,O   9)     55.9015         0.010180   
    124. D(H  25,C   7,C   5,C   6)    118.3696         0.011079   
    125. D(H  25,C   7,C   5,C   4)   -120.2027         0.011079   
    126. D(C   8,C   7,C   5,O   9)    179.6348         0.011079   
    127. D(C   8,C   7,C   5,C   6)    -62.1550         0.011079   
    128. D(C   8,C   7,C   5,C   4)     59.2726         0.011079   
    129. D(H  27,C   8,C   7,H  25)    179.8148         0.040268   
    130. D(H  27,C   8,C   7,C   5)      0.3360         0.040268   
    131. D(H  26,C   8,C   7,H  25)     -0.1378         0.040268   
    132. D(H  26,C   8,C   7,C   5)   -179.6166         0.040268   
    133. D(C  10,O   9,C   5,C   7)    179.3150         0.017400   
    134. D(C  10,O   9,C   5,C   6)     61.6183         0.017400   
    135. D(C  10,O   9,C   5,C   4)    -60.5525         0.017400   
    136. D(C  12,C  10,O   9,C   5)    179.0721         0.020435   
    137. D(O  11,C  10,O   9,C   5)      1.6380         0.020435   
    138. D(H  30,C  12,C  10,O   9)    145.4719         0.013783   
    139. D(H  29,C  12,C  10,O  11)   -156.9529         0.013783   
    140. D(H  29,C  12,C  10,O   9)     25.5574         0.013783   
    141. D(H  28,C  12,C  10,O  11)     83.1662         0.013783   
    142. D(H  28,C  12,C  10,O   9)    -94.3236         0.013783   
    143. D(H  33,C  13,C   1,C   0)   -175.8416         0.012266   
    144. D(H  32,C  13,C   1,C   2)    126.3744         0.012266   
    145. D(H  32,C  13,C   1,C   0)    -55.7411         0.012266   
    146. D(H  31,C  13,C   1,C   2)   -114.2597         0.012266   
    147. D(H  31,C  13,C   1,C   0)     63.6248         0.012266   
    -----------------------------------------------------------------

Number of atoms                         .... 34
Number of degrees of freedom            .... 147


         *************************************************************
         *                GEOMETRY OPTIMIZATION CYCLE   1            *
         *************************************************************
---------------------------------
CARTESIAN COORDINATES (ANGSTROEM)
---------------------------------
  C      3.061633   -1.056697   -0.505340
  C      3.037349    0.237723    0.270192
  C      1.943556    1.032553    0.308283
  C      0.626027    0.694579   -0.343460
  C     -0.248036   -0.149356    0.599928
  C     -1.582751   -0.603772   -0.056291
  C     -2.469598   -1.336388    0.972377
  C     -1.306603   -1.541449   -1.222034
  C     -0.648778   -2.702306   -1.100515
  O     -2.295880    0.524074   -0.591153
  C     -2.767880    1.633286    0.127885
  O     -2.567251    1.748771    1.366369
  C     -3.472715    2.724280   -0.603056
  C      4.297750    0.663116    0.977874
  H      2.888833   -0.858721   -1.583777
  H      4.047973   -1.557427   -0.405421
  H      2.286482   -1.752335   -0.125168
  H      1.987301    1.971441    0.854070
  H      0.100101    1.646901   -0.568224
  H      0.788398    0.178618   -1.312214
  H     -0.455757    0.446109    1.513812
  H      0.321161   -1.038120    0.944274
  H     -1.968706   -2.251160    1.353824
  H     -3.434587   -1.628941    0.505443
  H     -2.688618   -0.693594    1.848565
  H     -1.652443   -1.255284   -2.211729
  H     -0.480287   -3.321620   -1.975378
  H     -0.273811   -3.046684   -0.142911
  H     -2.746001    3.519858   -0.868542
  H     -3.930176    2.323879   -1.531933
  H     -4.273718    3.155650    0.033719
  H      5.095996    0.850080    0.229404
  H      4.628756   -0.144556    1.663999
  H      4.152279    1.587493    1.577129

----------------------------
CARTESIAN COORDINATES (A.U.)
----------------------------
  NO LB      ZA    FRAG     MASS         X           Y           Z
   0 C     4.0000*   0    12.011    5.785648   -1.996868   -0.954954
   1 C     4.0000*   0    12.011    5.739758    0.449231    0.510589
   2 C     4.0000*   0    12.011    3.672789    1.951242    0.582570
   3 C     4.0000*   0    12.011    1.183020    1.312564   -0.649045
   4 C     4.0000*   0    12.011   -0.468720   -0.282242    1.133700
   5 C     4.0000*   0    12.011   -2.990966   -1.140964   -0.106375
   6 C     4.0000*   0    12.011   -4.666864   -2.525407    1.837526
   7 C     4.0000*   0    12.011   -2.469122   -2.912916   -2.309310
   8 C     4.0000*   0    12.011   -1.226013   -5.106618   -2.079672
   9 O     6.0000*   0    15.999   -4.338584    0.990356   -1.117117
  10 C     4.0000*   0    12.011   -5.230535    3.086463    0.241668
  11 O     6.0000*   0    15.999   -4.851401    3.304698    2.582063
  12 C     4.0000*   0    12.011   -6.562480    5.148143   -1.139611
  13 C     4.0000*   0    12.011    8.121570    1.253108    1.847914
  14 H     1.0000    0     1.008    5.459103   -1.622748   -2.992905
  15 H     1.0000    0     1.008    7.649560   -2.943111   -0.766135
  16 H     1.0000    0     1.008    4.320825   -3.311433   -0.236533
  17 H     1.0000    0     1.008    3.755455    3.725484    1.613958
  18 H     1.0000    0     1.008    0.189163    3.112192   -1.073788
  19 H     1.0000    0     1.008    1.489856    0.337539   -2.479725
  20 H     1.0000    0     1.008   -0.861256    0.843024    2.860690
  21 H     1.0000    0     1.008    0.606906   -1.961762    1.784419
  22 H     1.0000    0     1.008   -3.720315   -4.254076    2.558357
  23 H     1.0000    0     1.008   -6.490429   -3.078252    0.955149
  24 H     1.0000    0     1.008   -5.080752   -1.310703    3.493282
  25 H     1.0000    0     1.008   -3.122665   -2.372143   -4.179562
  26 H     1.0000    0     1.008   -0.907611   -6.276952   -3.732923
  27 H     1.0000    0     1.008   -0.517428   -5.757398   -0.270063
  28 H     1.0000    0     1.008   -5.189190    6.651568   -1.641307
  29 H     1.0000    0     1.008   -7.426956    4.391495   -2.894934
  30 H     1.0000    0     1.008   -8.076157    5.963314    0.063720
  31 H     1.0000    0     1.008    9.630037    1.606418    0.433511
  32 H     1.0000    0     1.008    8.747081   -0.273171    3.144502
  33 H     1.0000    0     1.008    7.846670    2.999927    2.980342
* core charge reduced due to ECP

--------------------------------
INTERNAL COORDINATES (ANGSTROEM)
--------------------------------
 C      0   0   0     0.000000000000     0.00000000     0.00000000
 C      1   0   0     1.509159611201     0.00000000     0.00000000
 C      2   1   0     1.352622926033   122.10628535     0.00000000
 C      3   2   1     1.508269879221   124.23154459     3.28054267
 C      4   3   2     1.538243586282   110.74997543    86.66836621
 C      5   4   3     1.555178899112   112.90452435   183.68548731
 C      6   5   4     1.543172595366   110.52811442   185.02179080
 C      6   5   4     1.521332513385   110.34309697    64.61761184
 C      8   6   5     1.339809528416   123.61790108    59.27263844
 O      6   5   4     1.437590668237   110.70087206   306.64567940
 C     10   6   5     1.403620641907   126.59821420   299.44746674
 O     11  10   6     1.259933093113   121.49602839     1.63795687
 C     11  10   6     1.490414382225   119.09527541   179.07210092
 C      2   1   3     1.506779246729   118.03696806   182.16675469
 H      1   2   3     1.109991306067   110.10798038    60.96516874
 H      1   2   3     1.110666887532   110.77791257   180.14255947
 H      1   2   3     1.108738945572   110.52921202   299.67302158
 H      3   2   1     1.086879823595   119.28828870   182.03363395
 H      4   3   2     1.110870921780   107.99263587   205.93754809
 H      4   3   2     1.109533418910   110.71097796   322.69463365
 H      5   4   3     1.110365050568   108.47221832    61.39410376
 H      5   4   3     1.110162528741   109.76199194   306.40484451
 H      7   6   5     1.110496475211   111.15097772   298.58423533
 H      7   6   5     1.111223824567   110.11762736   178.17543316
 H      7   6   5     1.108539263256   111.41582174    58.04533341
 H      8   6   5     1.086734514889   118.54013023   239.79726064
 H      9   8   6     1.085045766982   119.84460586   180.38343831
 H      9   8   6     1.084528413085   121.66574478     0.33603524
 H     13  11  10     1.109747902938   109.41552454   265.67643623
 H     13  11  10     1.110136932298   109.95060798    25.55736117
 H     13  11  10     1.110481104537   110.13571793   145.47186636
 H     14   2   1     1.110116910380   109.41300827    63.62476439
 H     14   2   1     1.110255172132   109.52732272   304.25889503
 H     14   2   1     1.111189095067   112.24911253   184.15842464

---------------------------
INTERNAL COORDINATES (A.U.)
---------------------------
 C      0   0   0     0.000000000000     0.00000000     0.00000000
 C      1   0   0     2.851898357545     0.00000000     0.00000000
 C      2   1   0     2.556086892666   122.10628535     0.00000000
 C      3   2   1     2.850217007771   124.23154459     3.28054267
 C      4   3   2     2.906859105334   110.74997543    86.66836621
 C      5   4   3     2.938862208574   112.90452435   183.68548731
 C      6   5   4     2.916173582614   110.52811442   185.02179080
 C      6   5   4     2.874901808928   110.34309697    64.61761184
 C      8   6   5     2.531873080325   123.61790108    59.27263844
 O      6   5   4     2.716652655648   110.70087206   306.64567940
 C     10   6   5     2.652458609123   126.59821420   299.44746674
 O     11  10   6     2.380928493048   121.49602839     1.63795687
 C     11  10   6     2.816475008462   119.09527541   179.07210092
 C      2   1   3     2.847400120594   118.03696806   182.16675469
 H      1   2   3     2.097579579501   110.10798038    60.96516874
 H      1   2   3     2.098856243451   110.77791257   180.14255947
 H      1   2   3     2.095212961144   110.52921202   299.67302158
 H      3   2   1     2.053905207079   119.28828870   182.03363395
 H      4   3   2     2.099241812301   107.99263587   205.93754809
 H      4   3   2     2.096714298173   110.71097796   322.69463365
 H      5   4   3     2.098285854250   108.47221832    61.39410376
 H      5   4   3     2.097903143462   109.76199194   306.40484451
 H      7   6   5     2.098534210834   111.15097772   298.58423533
 H      7   6   5     2.099908701921   110.11762736   178.17543316
 H      7   6   5     2.094835616253   111.41582174    58.04533341
 H      8   6   5     2.053630613419   118.54013023   239.79726064
 H      9   8   6     2.050439342367   119.84460586   180.38343831
 H      9   8   6     2.049461685187   121.66574478     0.33603524
 H     13  11  10     2.097119614247   109.41552454   265.67643623
 H     13  11  10     2.097854773194   109.95060798    25.55736117
 H     13  11  10     2.098505164470   110.13571793   145.47186636
 H     14   2   1     2.097816937253   109.41300827    63.62476439
 H     14   2   1     2.098078214098   109.52732272   304.25889503
 H     14   2   1     2.099843072676   112.24911253   184.15842464

---------------------
BASIS SET INFORMATION
---------------------
There are 3 groups of distinct atoms

 Group   1 Type C   : 6s6p2d contracted to 2s2p1d pattern {42/42/2}
 Group   2 Type O   : 6s6p2d contracted to 2s2p1d pattern {42/42/2}
 Group   3 Type H   : 8s2p contracted to 2s1p pattern {53/2}

Atom   0C    basis set group =>   1
Atom   1C    basis set group =>   1
Atom   2C    basis set group =>   1
Atom   3C    basis set group =>   1
Atom   4C    basis set group =>   1
Atom   5C    basis set group =>   1
Atom   6C    basis set group =>   1
Atom   7C    basis set group =>   1
Atom   8C    basis set group =>   1
Atom   9O    basis set group =>   2
Atom  10C    basis set group =>   1
Atom  11O    basis set group =>   2
Atom  12C    basis set group =>   1
Atom  13C    basis set group =>   1
Atom  14H    basis set group =>   3
Atom  15H    basis set group =>   3
Atom  16H    basis set group =>   3
Atom  17H    basis set group =>   3
Atom  18H    basis set group =>   3
Atom  19H    basis set group =>   3
Atom  20H    basis set group =>   3
Atom  21H    basis set group =>   3
Atom  22H    basis set group =>   3
Atom  23H    basis set group =>   3
Atom  24H    basis set group =>   3
Atom  25H    basis set group =>   3
Atom  26H    basis set group =>   3
Atom  27H    basis set group =>   3
Atom  28H    basis set group =>   3
Atom  29H    basis set group =>   3
Atom  30H    basis set group =>   3
Atom  31H    basis set group =>   3
Atom  32H    basis set group =>   3
Atom  33H    basis set group =>   3
---------------------------------
AUXILIARY/J BASIS SET INFORMATION
---------------------------------
There are 3 groups of distinct atoms

 Group   1 Type C   : 12s5p4d2f1g contracted to 6s4p3d1f1g pattern {711111/2111/211/2/1}
 Group   2 Type O   : 12s5p4d2f1g contracted to 6s4p3d1f1g pattern {711111/2111/211/2/1}
 Group   3 Type H   : 5s2p1d contracted to 3s1p1d pattern {311/2/1}

Atom   0C    basis set group =>   1
Atom   1C    basis set group =>   1
Atom   2C    basis set group =>   1
Atom   3C    basis set group =>   1
Atom   4C    basis set group =>   1
Atom   5C    basis set group =>   1
Atom   6C    basis set group =>   1
Atom   7C    basis set group =>   1
Atom   8C    basis set group =>   1
Atom   9O    basis set group =>   2
Atom  10C    basis set group =>   1
Atom  11O    basis set group =>   2
Atom  12C    basis set group =>   1
Atom  13C    basis set group =>   1
Atom  14H    basis set group =>   3
Atom  15H    basis set group =>   3
Atom  16H    basis set group =>   3
Atom  17H    basis set group =>   3
Atom  18H    basis set group =>   3
Atom  19H    basis set group =>   3
Atom  20H    basis set group =>   3
Atom  21H    basis set group =>   3
Atom  22H    basis set group =>   3
Atom  23H    basis set group =>   3
Atom  24H    basis set group =>   3
Atom  25H    basis set group =>   3
Atom  26H    basis set group =>   3
Atom  27H    basis set group =>   3
Atom  28H    basis set group =>   3
Atom  29H    basis set group =>   3
Atom  30H    basis set group =>   3
Atom  31H    basis set group =>   3
Atom  32H    basis set group =>   3
Atom  33H    basis set group =>   3
-------------------------
ECP PARAMETER INFORMATION
-------------------------

 Group 1, Type C  ECP vDZP-ECP (replacing 2 core electrons, lmax=3)
 Group 2, Type O  ECP vDZP-ECP (replacing 2 core electrons, lmax=3)

Atom   0C    ECP group =>   1
Atom   1C    ECP group =>   1
Atom   2C    ECP group =>   1
Atom   3C    ECP group =>   1
Atom   4C    ECP group =>   1
Atom   5C    ECP group =>   1
Atom   6C    ECP group =>   1
Atom   7C    ECP group =>   1
Atom   8C    ECP group =>   1
Atom   9O    ECP group =>   2
Atom  10C    ECP group =>   1
Atom  11O    ECP group =>   2
Atom  12C    ECP group =>   1
Atom  13C    ECP group =>   1



           ************************************************************
           *        Program running with 40 parallel MPI-processes    *
           *              working on a common directory               *
           ************************************************************
------------------------------------------------------------------------------
                             ORCA STARTUP CALCULATIONS
                           -- RI-GTO INTEGRALS CHOSEN --
------------------------------------------------------------------------------
------------------------------------------------------------------------------
                   ___                                                        
                  /   \      - P O W E R E D   B Y -                         
                 /     \                                                     
                 |  |  |   _    _      __       _____    __    __             
                 |  |  |  | |  | |    /  \     |  _  \  |  |  /  |          
                  \  \/   | |  | |   /    \    | | | |  |  | /  /          
                 / \  \   | |__| |  /  /\  \   | |_| |  |  |/  /          
                |  |  |   |  __  | /  /__\  \  |    /   |      \           
                |  |  |   | |  | | |   __   |  |    \   |  |\   \          
                \     /   | |  | | |  |  |  |  | |\  \  |  | \   \       
                 \___/    |_|  |_| |__|  |__|  |_| \__\ |__|  \__/        
                                                                              
                      - O R C A' S   B I G   F R I E N D -                    
                                      &                                       
                       - I N T E G R A L  F E E D E R -                       
                                                                              
 v1 FN, 2020, v2 2021, v3 2022-2024                                           
------------------------------------------------------------------------------


----------------------
SHARK INTEGRAL PACKAGE
----------------------

Number of atoms                             ...     34
Number of basis functions                   ...    282
Number of shells                            ...    130
Maximum angular momentum                    ...      2
Integral batch strategy                     ... SHARK/LIBINT Hybrid
RI-J (if used) integral strategy            ... SPLIT-RIJ (Revised 2003 algorithm where possible)
Printlevel                                  ...      1
Contraction scheme used                     ... SEGMENTED contraction
Prescreening option                         ... SCHWARTZ
   Thresh                                   ... 2.500e-11
   Tcut                                     ... 2.500e-12
   Tpresel                                  ... 2.500e-12 
Coulomb Range Separation                    ... NOT USED
Exchange Range Separation                   ... Long Range
   Mu parameter                             ... 3.000e-01
   Scaling (regular/separated)              ... 1.670e-01 8.330e-01
Multipole approximations                    ... NOT USED
Finite Nucleus Model                        ... NOT USED
CABS basis                                  ... NOT available
Auxiliary Coulomb fitting basis             ... AVAILABLE
   # of basis functions in Aux-J            ...    906
   # of shells in Aux-J                     ...    310
   Maximum angular momentum in Aux-J        ...      4
Auxiliary J/K fitting basis                 ... NOT available
Auxiliary Correlation fitting basis         ... NOT available
Auxiliary 'external' fitting basis          ... NOT available

Checking pre-screening integrals            ... done (  0.0 sec) Dimension = 130
Check shell pair data                       ... done (  0.0 sec)
Shell pair information
Shell pair cut-off parameter TPreSel        ...   2.5e-12
Total number of shell pairs                 ...      8515
Shell pairs after pre-screening             ...      8330
Total number of primitive shell pairs       ...     79096
Primitive shell pairs kept                  ...     58282
          la=0 lb=0:   2321 shell pairs
          la=1 lb=0:   3193 shell pairs
          la=1 lb=1:   1116 shell pairs
          la=2 lb=0:    941 shell pairs
          la=2 lb=1:    654 shell pairs
          la=2 lb=2:    105 shell pairs

Calculating one electron integrals          ... done (  0.0 sec)
Calculating ECP integrals                   ... done (  0.2 sec)
Calculating RI/J V-Matrix + Cholesky decomp.... done (  0.0 sec)
Calculating Nuclear repulsion               ... done (  0.0 sec) ENN=    501.946020963311 Eh

Diagonalization of the overlap matrix:
Smallest eigenvalue                        ... 1.115e-03
Time for diagonalization                   ...    0.011 sec
Threshold for overlap eigenvalues          ... 1.000e-07
Number of eigenvalues below threshold      ... 0
Time for construction of square roots      ...    0.006 sec
Total time needed                          ...    0.020 sec

-------------------
DFT GRID GENERATION
-------------------

General Integration Accuracy     IntAcc      ... 4.388
Radial Grid Type                 RadialGrid  ... OptM3 with GC (2021)
Angular Grid (max. ang.)         AngularGrid ... 4 (Lebedev-302)
Angular grid pruning method      GridPruning ... 4 (adaptive)
Weight generation scheme         WeightScheme... mBecke (2022)
Basis function cutoff            BFCut       ... 1.0000e-11
Integration weight cutoff        WCut        ... 1.0000e-14
Partially contracted basis set               ... off
Rotationally invariant grid construction     ... off
Angular grids for H and He will be reduced by one unit

Total number of grid points                  ...   147654
Total number of batches                      ...     2322
Average number of points per batch           ...       63
Average number of grid points per atom       ...     4343

--------------------
COSX GRID GENERATION
--------------------

GRIDX 1
-------
General Integration Accuracy     IntAcc      ... 3.816
Radial Grid Type                 RadialGrid  ... OptM3 with GC (2021)
Angular Grid (max. ang.)         AngularGrid ... 1 (Lebedev-50)
Angular grid pruning method      GridPruning ... 4 (adaptive)
Weight generation scheme         WeightScheme... mBecke (2022)
Basis function cutoff            BFCut       ... 1.0000e-11
Integration weight cutoff        WCut        ... 1.0000e-14
Partially contracted basis set               ... on
Rotationally invariant grid construction     ... off
Angular grids for H and He will be reduced by one unit

Total number of grid points                  ...    18856
Total number of batches                      ...      170
Average number of points per batch           ...      110
Average number of grid points per atom       ...      555
UseSFitting                                  ... on

GRIDX 2
-------
General Integration Accuracy     IntAcc      ... 4.020
Radial Grid Type                 RadialGrid  ... OptM3 with GC (2021)
Angular Grid (max. ang.)         AngularGrid ... 2 (Lebedev-110)
Angular grid pruning method      GridPruning ... 4 (adaptive)
Weight generation scheme         WeightScheme... mBecke (2022)
Basis function cutoff            BFCut       ... 1.0000e-11
Integration weight cutoff        WCut        ... 1.0000e-14
Partially contracted basis set               ... on
Rotationally invariant grid construction     ... off
Angular grids for H and He will be reduced by one unit

Total number of grid points                  ...    39519
Total number of batches                      ...      327
Average number of points per batch           ...      120
Average number of grid points per atom       ...     1162
UseSFitting                                  ... on

GRIDX 3
-------
General Integration Accuracy     IntAcc      ... 4.338
Radial Grid Type                 RadialGrid  ... OptM3 with GC (2021)
Angular Grid (max. ang.)         AngularGrid ... 3 (Lebedev-194)
Angular grid pruning method      GridPruning ... 4 (adaptive)
Weight generation scheme         WeightScheme... mBecke (2022)
Basis function cutoff            BFCut       ... 1.0000e-11
Integration weight cutoff        WCut        ... 1.0000e-14
Partially contracted basis set               ... on
Rotationally invariant grid construction     ... off
Angular grids for H and He will be reduced by one unit

Total number of grid points                  ...    85964
Total number of batches                      ...      689
Average number of points per batch           ...      124
Average number of grid points per atom       ...     2528
UseSFitting                                  ... on
Initializing property integral containers    ... done (  0.0 sec)

SHARK setup successfully completed in   4.5 seconds

Maximum memory used throughout the entire STARTUP-calculation: 46.0 MB


           ************************************************************
           *        Program running with 40 parallel MPI-processes    *
           *              working on a common directory               *
           ************************************************************
-------------------------------------------------------------------------------
                                 ORCA GUESS
                   Start orbitals & Density for SCF / CASSCF
-------------------------------------------------------------------------------

------------
SCF SETTINGS
------------
Hamiltonian:
 Density Functional     Method          .... DFT(GTOs)
 Exchange Functional    Exchange        .... WB97X-V
 Correlation Functional Correlation     .... WB97X-V
 Gradients option       PostSCFGGA      .... off
 Hybrid DFT is turned on
   Fraction HF Exchange ScalHFX         ....  0.167000
   Scaling of DF-GGA-X  ScalDFX         ....  0.000000
   Scaling of DF-GGA-C  ScalDFC         ....  1.000000
   Scaling of DF-LDA-C  ScalLDAC        ....  1.000000
   Perturbative correction              ....  0.000000
 Long-range corrected/Screened/Range-Separated Hybrid DFT is turned on
   Amount of maximum screened exact exchange              ....  0.833000
   Range separation parameter mu (erf(mu*r12)/r12)        ....  0.300000
   NL short-range parameter             ....  6.000000
   NL long-range parameter              ....  0.010000
 RI-approximation to the Coulomb term is turned on
   Number of AuxJ basis functions       .... 906
   RIJ-COSX (HFX calculated with COS-X)).... on


General Settings:
 Integral files         IntName         .... ./output/linalyl_acetate/linalyl_acetate
 Hartree-Fock type      HFTyp           .... RHF
 Total Charge           Charge          ....    0
 Multiplicity           Mult            ....    1
 Number of Electrons    NEL             ....   80
 Basis Dimension        Dim             ....  282
 Nuclear Repulsion      ENuc            ....    501.9460209633 Eh

Convergence Acceleration:
 AO-DIIS                CNVDIIS         .... on
   Start iteration      DIISMaxIt       ....    12
   Startup error        DIISStart       ....  0.200000
   # of expansion vecs  DIISMaxEq       ....     5
   Bias factor          DIISBfac        ....   1.050
   Max. coefficient     DIISMaxC        ....  10.000
 MO-DIIS                CNVKDIIS        .... off
 Trust-Rad. Augm. Hess. CNVTRAH         .... auto
   Auto Start mean grad. ratio tolernc. ....  1.125000
   Auto Start start iteration           ....    50
   Auto Start num. interpolation iter.  ....    10
   Max. Number of Micro iterations      ....    24
   Max. Number of Macro iterations      .... Maxiter - #DIIS iter
   Number of Davidson start vectors     ....     2
   Converg. threshold    (grad. norm)   ....   1.000e-05
   Grad. Scal. Fac. for Micro threshold ....   0.100
   Minimum threshold for Micro iter.    ....   1.000e-02
   NR start threshold (gradient norm)   ....   1.000e-04
   Initial trust radius                 ....   0.400
   Minimum AH scaling param. (alpha)    ....   1.000
   Maximum AH scaling param. (alpha)    .... 1000.000
   Quad. conv. algorithm                .... NR
   White noise on init. David. guess    .... on
   Maximum white noise                  ....   0.010
   Pseudo random numbers                .... off
   Inactive MOs                         .... canonical
   Orbital update algorithm             .... Taylor
   Preconditioner                       .... Diag
   Full preconditioner red. dimension   ....   250
 SOSCF                  CNVSOSCF        .... on
   Start iteration      SOSCFMaxIt      ....   150
   Startup grad/error   SOSCFStart      ....  0.003300
   Hessian update       SOSCFHessUp     .... L-BFGS
 Level Shifting         CNVShift        .... on
   Level shift para.    LevelShift      ....    0.2500
   Turn off err/grad.   ShiftErr        ....    0.0010
 Zerner damping         CNVZerner       .... off
 Static damping         CNVDamp         .... on
   Fraction old density DampFac         ....    0.7000
   Max. Damping (<1)    DampMax         ....    0.9800
   Min. Damping (>=0)   DampMin         ....    0.0000
   Turn off err/grad.   DampErr         ....    0.1000

SCF Procedure:
 Maximum # iterations   MaxIter         ....   125
 SCF integral mode      SCFMode         .... Direct
   Integral package                     .... SHARK and LIBINT hybrid scheme
 Reset frequency        DirectResetFreq ....    20
 Integral Threshold     Thresh          ....  2.500e-11 Eh
 Primitive CutOff       TCut            ....  2.500e-12 Eh

Convergence Tolerance:
 Convergence Check Mode ConvCheckMode   .... Total+1el-Energy
 Convergence forced     ConvForced      .... 0
 Energy Change          TolE            ....  1.000e-08 Eh
 1-El. energy change                    ....  1.000e-05 Eh
 Orbital Gradient       TolG            ....  1.000e-05
 Orbital Rotation angle TolX            ....  1.000e-05
 DIIS Error             TolErr          ....  5.000e-07

------------------------------
INITIAL GUESS: MODEL POTENTIAL
------------------------------
Loading Hartree-Fock densities                     ... done
Atomic calculation to generate a density for atom 0 (C  with ECP)
  Multiplicity assumed   :    1
  Atomic configuration   : 1s2 2s2 2p2 
  Number of open shells  : 1
  Command: /home/aspe232/Project/Software/ORCA/6_0_1/build/orca ./output/linalyl_acetate/linalyl_acetate_atom6.inp "" > ./output/linalyl_acetate/linalyl_acetate_atom6.out
Returned from the atomic calculation with res=0
Atomic calculation to generate a density for atom 9 (O  with ECP)
  Multiplicity assumed   :    3
  Atomic configuration   : 1s2 2s2 2p4 
  Number of open shells  : 1
  Command: /home/aspe232/Project/Software/ORCA/6_0_1/build/orca ./output/linalyl_acetate/linalyl_acetate_atom8.inp "" > ./output/linalyl_acetate/linalyl_acetate_atom8.out
Returned from the atomic calculation with res=0
Calculating cut-offs                               ... done
Initializing the effective Hamiltonian             ... done
Setting up the integral package (SHARK)            ... done
Starting the Coulomb interaction                   ... done (   0.1 sec)
Making the grid                                    ... done (   0.9 sec)
Mapping shells                                     ... done
Starting the XC term evaluation                    ... done (   0.0 sec)
  promolecular density results
     # of electrons  =    107.998474347
     EX              =    -55.763131949
     EC              =     -4.364647266
     EX+EC           =    -60.127779215
Transforming the Hamiltonian                       ... done (   0.1 sec)
Diagonalizing the Hamiltonian                      ... done (   0.0 sec)
Back transforming the eigenvectors                 ... done (   0.0 sec)
Now organizing SCF variables                       ... done
                      ------------------
                      INITIAL GUESS DONE (   2.3 sec)
                      ------------------
             **** ENERGY FILE WAS UPDATED (./output/linalyl_acetate/linalyl_acetate.en.tmp) ****
Finished Guess after   3.1 sec
Maximum memory used throughout the entire GUESS-calculation: 29.2 MB


           ************************************************************
           *        Program running with 40 parallel MPI-processes    *
           *              working on a common directory               *
           ************************************************************

-------------------------------------------------------------------------------------------
                                      ORCA LEAN-SCF
                              memory conserving SCF solver
-------------------------------------------------------------------------------------------

----------------------------------------D-I-I-S--------------------------------------------
Iteration    Energy (Eh)           Delta-E    RMSDP     MaxDP     DIISErr   Damp  Time(sec)
-------------------------------------------------------------------------------------------
               ***  Starting incremental Fock matrix formation  ***
    1    -111.9040065148005851     0.00e+00  3.31e-03  8.84e-02  1.99e-01  0.700   6.6
    2    -112.1337488134995510    -2.30e-01  2.41e-03  5.68e-02  1.05e-01  0.700   4.8
                               ***Turning on AO-DIIS***
    3    -112.2527848153423520    -1.19e-01  1.25e-03  2.66e-02  5.77e-02  0.700   4.7
    4    -112.3231533202686023    -7.04e-02  2.65e-03  5.22e-02  3.65e-02  0.000   4.6
    5    -112.4718586480852309    -1.49e-01  2.35e-04  1.14e-02  8.78e-03  0.000   4.9
    6    -112.4722848894557501    -4.26e-04  1.12e-04  7.44e-03  6.81e-03  0.000   4.5
                              *** Initializing SOSCF ***
---------------------------------------S-O-S-C-F--------------------------------------
Iteration    Energy (Eh)           Delta-E    RMSDP     MaxDP     MaxGrad    Time(sec)
--------------------------------------------------------------------------------------
    7    -112.4724072031177684    -1.22e-04  5.79e-05  2.24e-03  1.70e-03     4.5
               *** Restarting incremental Fock matrix formation ***
    8    -112.4724072355344333    -3.24e-08  3.08e-05  1.12e-03  2.24e-04     6.8
    9    -112.4724115025463789    -4.27e-06  2.35e-05  1.00e-03  3.33e-04     5.5
   10    -112.4724130213697890    -1.52e-06  7.98e-06  2.68e-04  8.73e-05     5.7
   11    -112.4724132791236570    -2.58e-07  3.09e-06  8.10e-05  2.90e-05     5.2
   12    -112.4724133062363762    -2.71e-08  1.23e-06  6.01e-05  1.50e-05     5.1
   13    -112.4724133248553244    -1.86e-08  4.02e-07  1.81e-05  3.57e-06     4.8
   14    -112.4724133323237538    -7.47e-09  2.01e-07  4.57e-06  1.18e-06     4.4
                 **** Energy Check signals convergence ****

               *****************************************************
               *                     SUCCESS                       *
               *           SCF CONVERGED AFTER  14 CYCLES          *
               *****************************************************

Recomputing exchange energy using gridx3       ... done (    6.611 sec)
Old exchange energy                            :    -15.479442626 Eh
New exchange energy                            :    -15.479466896 Eh
Exchange energy change after final integration :     -0.000024270 Eh
Total energy after final integration           :   -112.472437602 Eh
             **** ENERGY FILE WAS UPDATED (./output/linalyl_acetate/linalyl_acetate.en.tmp) ****

----------------
TOTAL SCF ENERGY
----------------

Total Energy       :       -112.47243760186053 Eh           -3060.53062 eV

Components:
Nuclear Repulsion  :        501.94602096331107 Eh           13658.64562 eV
Electronic Energy  :       -614.41843429563482 Eh          -16719.17558 eV
One Electron Energy:      -1167.71436836064845 Eh          -31775.12338 eV
Two Electron Energy:        553.29593406501363 Eh           15055.94780 eV

Virial components:
Potential Energy   :       -199.79377431413505 Eh           -5436.66499 eV
Kinetic Energy     :         87.32133671227452 Eh            2376.13437 eV
Virial Ratio       :          2.28802927023964

DFT components:
N(Alpha)           :       39.999927379904 electrons
N(Beta)            :       39.999927379904 electrons
N(Total)           :       79.999854759807 electrons
E(X)               :      -16.774690869056 Eh       
E(C)               :       -3.016696685675 Eh       
E(XC)              :      -19.791387554731 Eh       

---------------
SCF CONVERGENCE
---------------

  Last Energy change         ...    7.4684e-09  Tolerance :   1.0000e-08
  Last MAX-Density change    ...    4.5703e-06  Tolerance :   1.0000e-07
  Last RMS-Density change    ...    2.0103e-07  Tolerance :   5.0000e-09
  Last DIIS Error            ...    1.6989e-03  Tolerance :   5.0000e-07
  Last Orbital Gradient      ...    1.1822e-06  Tolerance :   1.0000e-05
  Last Orbital Rotation      ...    2.6844e-06  Tolerance :   1.0000e-05


----------------
ORBITAL ENERGIES
----------------

  NO   OCC          E(Eh)            E(eV) 
   0   2.0000      -1.210632       -32.9430 
   1   2.0000      -1.124055       -30.5871 
   2   2.0000      -0.968894       -26.3650 
   3   2.0000      -0.948171       -25.8011 
   4   2.0000      -0.898384       -24.4463 
   5   2.0000      -0.893542       -24.3145 
   6   2.0000      -0.862105       -23.4591 
   7   2.0000      -0.822397       -22.3786 
   8   2.0000      -0.807335       -21.9687 
   9   2.0000      -0.784168       -21.3383 
  10   2.0000      -0.732252       -19.9256 
  11   2.0000      -0.701465       -19.0878 
  12   2.0000      -0.643760       -17.5176 
  13   2.0000      -0.630686       -17.1618 
  14   2.0000      -0.610480       -16.6120 
  15   2.0000      -0.609207       -16.5774 
  16   2.0000      -0.596065       -16.2198 
  17   2.0000      -0.576728       -15.6936 
  18   2.0000      -0.565586       -15.3904 
  19   2.0000      -0.556525       -15.1438 
  20   2.0000      -0.543019       -14.7763 
  21   2.0000      -0.537379       -14.6228 
  22   2.0000      -0.532328       -14.4854 
  23   2.0000      -0.525020       -14.2865 
  24   2.0000      -0.518234       -14.1019 
  25   2.0000      -0.506849       -13.7921 
  26   2.0000      -0.503431       -13.6991 
  27   2.0000      -0.499471       -13.5913 
  28   2.0000      -0.481341       -13.0979 
  29   2.0000      -0.479256       -13.0412 
  30   2.0000      -0.468729       -12.7548 
  31   2.0000      -0.463069       -12.6007 
  32   2.0000      -0.456559       -12.4236 
  33   2.0000      -0.435868       -11.8606 
  34   2.0000      -0.432126       -11.7588 
  35   2.0000      -0.423370       -11.5205 
  36   2.0000      -0.406934       -11.0732 
  37   2.0000      -0.378106       -10.2888 
  38   2.0000      -0.366315        -9.9679 
  39   2.0000      -0.323500        -8.8029 
  40   0.0000       0.063643         1.7318 
  41   0.0000       0.077361         2.1051 
  42   0.0000       0.081829         2.2267 
  43   0.0000       0.089011         2.4221 
  44   0.0000       0.093899         2.5551 
  45   0.0000       0.098711         2.6861 
  46   0.0000       0.107424         2.9232 
  47   0.0000       0.117441         3.1957 
  48   0.0000       0.121739         3.3127 
  49   0.0000       0.135360         3.6833 
  50   0.0000       0.138982         3.7819 
*Only the first 10 virtual orbitals were printed.

                    ********************************
                    * MULLIKEN POPULATION ANALYSIS *
                    ********************************

-----------------------
MULLIKEN ATOMIC CHARGES
-----------------------
   0 C :   -0.088840
   1 C :   -0.072072
   2 C :   -0.024819
   3 C :   -0.059420
   4 C :   -0.010583
   5 C :   -0.079663
   6 C :   -0.032998
   7 C :    0.030563
   8 C :   -0.039804
   9 O :   -0.297507
  10 C :    0.263340
  11 O :   -0.355185
  12 C :   -0.074794
  13 C :   -0.082390
  14 H :    0.058027
  15 H :    0.036091
  16 H :    0.040134
  17 H :    0.012146
  18 H :    0.042670
  19 H :    0.037390
  20 H :    0.073173
  21 H :    0.032626
  22 H :    0.041553
  23 H :    0.050755
  24 H :    0.067196
  25 H :    0.032793
  26 H :    0.034328
  27 H :    0.023783
  28 H :    0.072583
  29 H :    0.061342
  30 H :    0.078084
  31 H :    0.048298
  32 H :    0.044127
  33 H :    0.037075
Sum of atomic charges:    0.0000000

--------------------------------
MULLIKEN REDUCED ORBITAL CHARGES
--------------------------------
  0 C s       :     0.954952  s :     0.954952
      pz      :     1.030680  p :     3.060997
      px      :     1.042865
      py      :     0.987452
      dz2     :     0.021559  d :     0.072891
      dxz     :     0.005476
      dyz     :     0.013246
      dx2y2   :     0.011761
      dxy     :     0.020849

  1 C s       :     1.097788  s :     1.097788
      pz      :     0.950411  p :     2.854608
      px      :     0.947713
      py      :     0.956484
      dz2     :     0.013525  d :     0.119676
      dxz     :     0.025290
      dyz     :     0.019188
      dx2y2   :     0.033845
      dxy     :     0.027829

  2 C s       :     1.034226  s :     1.034226
      pz      :     0.990975  p :     2.898823
      px      :     0.925252
      py      :     0.982596
      dz2     :     0.006937  d :     0.091770
      dxz     :     0.020420
      dyz     :     0.014430
      dx2y2   :     0.030071
      dxy     :     0.019912

  3 C s       :     0.992236  s :     0.992236
      pz      :     1.002296  p :     2.967253
      px      :     0.942810
      py      :     1.022147
      dz2     :     0.020801  d :     0.099931
      dxz     :     0.020559
      dyz     :     0.017918
      dx2y2   :     0.017862
      dxy     :     0.022791

  4 C s       :     0.994161  s :     0.994161
      pz      :     1.006736  p :     2.921662
      px      :     0.900352
      py      :     1.014574
      dz2     :     0.017098  d :     0.094760
      dxz     :     0.018464
      dyz     :     0.021861
      dx2y2   :     0.016309
      dxy     :     0.021029

  5 C s       :     1.110579  s :     1.110579
      pz      :     1.035949  p :     2.785438
      px      :     0.936363
      py      :     0.813125
      dz2     :     0.029755  d :     0.183646
      dxz     :     0.034492
      dyz     :     0.042715
      dx2y2   :     0.037689
      dxy     :     0.038994

  6 C s       :     0.947302  s :     0.947302
      pz      :     0.999829  p :     3.016535
      px      :     1.002211
      py      :     1.014495
      dz2     :     0.011895  d :     0.069162
      dxz     :     0.014956
      dyz     :     0.017604
      dx2y2   :     0.010618
      dxy     :     0.014089

  7 C s       :     1.036434  s :     1.036434
      pz      :     0.945409  p :     2.844821
      px      :     0.952918
      py      :     0.946494
      dz2     :     0.016317  d :     0.088182
      dxz     :     0.013806
      dyz     :     0.026503
      dx2y2   :     0.018237
      dxy     :     0.013319

  8 C s       :     1.004704  s :     1.004704
      pz      :     0.998825  p :     2.970256
      px      :     0.984728
      py      :     0.986704
      dz2     :     0.011438  d :     0.064844
      dxz     :     0.008281
      dyz     :     0.023393
      dx2y2   :     0.013275
      dxy     :     0.008457

  9 O s       :     1.692070  s :     1.692070
      pz      :     1.652400  p :     4.570923
      px      :     1.634051
      py      :     1.284471
      dz2     :     0.003799  d :     0.034514
      dxz     :     0.005791
      dyz     :     0.012418
      dx2y2   :     0.006078
      dxy     :     0.006428

 10 C s       :     1.154217  s :     1.154217
      pz      :     0.815543  p :     2.337073
      px      :     0.755349
      py      :     0.766181
      dz2     :     0.049868  d :     0.245370
      dxz     :     0.059585
      dyz     :     0.085049
      dx2y2   :     0.026086
      dxy     :     0.024781

 11 O s       :     1.790517  s :     1.790517
      pz      :     1.280138  p :     4.531190
      px      :     1.517393
      py      :     1.733659
      dz2     :     0.013465  d :     0.033477
      dxz     :     0.010838
      dyz     :     0.008221
      dx2y2   :     0.000395
      dxy     :     0.000558

 12 C s       :     0.961882  s :     0.961882
      pz      :     1.040701  p :     3.049792
      px      :     1.031053
      py      :     0.978039
      dz2     :     0.010119  d :     0.063119
      dxz     :     0.015529
      dyz     :     0.013817
      dx2y2   :     0.006167
      dxy     :     0.017487

 13 C s       :     0.959776  s :     0.959776
      pz      :     1.019791  p :     3.046706
      px      :     0.990835
      py      :     1.036080
      dz2     :     0.005349  d :     0.075908
      dxz     :     0.022448
      dyz     :     0.019707
      dx2y2   :     0.017269
      dxy     :     0.011136

 14 H s       :     0.897366  s :     0.897366
      pz      :     0.023199  p :     0.044608
      px      :     0.010839
      py      :     0.010570

 15 H s       :     0.919833  s :     0.919833
      pz      :     0.010281  p :     0.044076
      px      :     0.020585
      py      :     0.013210

 16 H s       :     0.914610  s :     0.914610
      pz      :     0.011899  p :     0.045256
      px      :     0.017305
      py      :     0.016052

 17 H s       :     0.938844  s :     0.938844
      pz      :     0.016822  p :     0.049009
      px      :     0.010259
      py      :     0.021928

 18 H s       :     0.914217  s :     0.914217
      pz      :     0.010047  p :     0.043113
      px      :     0.013621
      py      :     0.019445

 19 H s       :     0.918016  s :     0.918016
      pz      :     0.020573  p :     0.044594
      px      :     0.010605
      py      :     0.013415

 20 H s       :     0.883613  s :     0.883613
      pz      :     0.019155  p :     0.043214
      px      :     0.009646
      py      :     0.014413

 21 H s       :     0.923970  s :     0.923970
      pz      :     0.011453  p :     0.043404
      px      :     0.013538
      py      :     0.018413

 22 H s       :     0.914141  s :     0.914141
      pz      :     0.011894  p :     0.044306
      px      :     0.012306
      py      :     0.020106

 23 H s       :     0.906852  s :     0.906852
      pz      :     0.011424  p :     0.042393
      px      :     0.020257
      py      :     0.010711

 24 H s       :     0.887623  s :     0.887623
      pz      :     0.019086  p :     0.045181
      px      :     0.009833
      py      :     0.016262

 25 H s       :     0.919515  s :     0.919515
      pz      :     0.022883  p :     0.047692
      px      :     0.013650
      py      :     0.011159

 26 H s       :     0.915968  s :     0.915968
      pz      :     0.020500  p :     0.049704
      px      :     0.013421
      py      :     0.015783

 27 H s       :     0.925148  s :     0.925148
      pz      :     0.023167  p :     0.051069
      px      :     0.015091
      py      :     0.012810

 28 H s       :     0.881570  s :     0.881570
      pz      :     0.011645  p :     0.045847
      px      :     0.015899
      py      :     0.018303

 29 H s       :     0.894392  s :     0.894392
      pz      :     0.020610  p :     0.044266
      px      :     0.012135
      py      :     0.011521

 30 H s       :     0.877786  s :     0.877786
      pz      :     0.014736  p :     0.044130
      px      :     0.017397
      py      :     0.011997

 31 H s       :     0.907861  s :     0.907861
      pz      :     0.015747  p :     0.043841
      px      :     0.017720
      py      :     0.010373

 32 H s       :     0.912047  s :     0.912047
      pz      :     0.015363  p :     0.043826
      px      :     0.011889
      py      :     0.016575

 33 H s       :     0.919465  s :     0.919465
      pz      :     0.014106  p :     0.043460
      px      :     0.009850
      py      :     0.019504



                     *******************************
                     * LOEWDIN POPULATION ANALYSIS *
                     *******************************

----------------------
LOEWDIN ATOMIC CHARGES
----------------------
   0 C :   -0.113818
   1 C :   -0.054838
   2 C :   -0.056691
   3 C :   -0.088458
   4 C :   -0.065713
   5 C :   -0.038492
   6 C :   -0.099498
   7 C :   -0.019418
   8 C :   -0.064019
   9 O :   -0.046543
  10 C :    0.024522
  11 O :   -0.191612
  12 C :   -0.090791
  13 C :   -0.120043
  14 H :    0.054731
  15 H :    0.051775
  16 H :    0.049152
  17 H :    0.034379
  18 H :    0.048544
  19 H :    0.046194
  20 H :    0.055426
  21 H :    0.048897
  22 H :    0.052353
  23 H :    0.051083
  24 H :    0.052418
  25 H :    0.044586
  26 H :    0.039050
  27 H :    0.029854
  28 H :    0.071839
  29 H :    0.063308
  30 H :    0.076715
  31 H :    0.050815
  32 H :    0.049667
  33 H :    0.054626

-------------------------------
LOEWDIN REDUCED ORBITAL CHARGES
-------------------------------
  0 C s       :     0.775576  s :     0.775576
      pz      :     1.043360  p :     3.103369
      px      :     1.059996
      py      :     1.000013
      dz2     :     0.070556  d :     0.234873
      dxz     :     0.016703
      dyz     :     0.041383
      dx2y2   :     0.034807
      dxy     :     0.071425

  1 C s       :     0.801258  s :     0.801258
      pz      :     0.902549  p :     2.874590
      px      :     1.004585
      py      :     0.967457
      dz2     :     0.047565  d :     0.378990
      dxz     :     0.074743
      dyz     :     0.058278
      dx2y2   :     0.104678
      dxy     :     0.093726

  2 C s       :     0.806865  s :     0.806865
      pz      :     0.944527  p :     2.950420
      px      :     0.987408
      py      :     1.018485
      dz2     :     0.026158  d :     0.299406
      dxz     :     0.061059
      dyz     :     0.044085
      dx2y2   :     0.098332
      dxy     :     0.069771

  3 C s       :     0.760053  s :     0.760053
      pz      :     1.013597  p :     3.011690
      px      :     0.969933
      py      :     1.028160
      dz2     :     0.067633  d :     0.316716
      dxz     :     0.061235
      dyz     :     0.059324
      dx2y2   :     0.056088
      dxy     :     0.072437

  4 C s       :     0.768127  s :     0.768127
      pz      :     1.012103  p :     2.989649
      px      :     0.949284
      py      :     1.028262
      dz2     :     0.056421  d :     0.307937
      dxz     :     0.058614
      dyz     :     0.070756
      dx2y2   :     0.052949
      dxy     :     0.069197

  5 C s       :     0.755364  s :     0.755364
      pz      :     0.982884  p :     2.759049
      px      :     0.944231
      py      :     0.831934
      dz2     :     0.083618  d :     0.524079
      dxz     :     0.100313
      dyz     :     0.126724
      dx2y2   :     0.102633
      dxy     :     0.110791

  6 C s       :     0.781296  s :     0.781296
      pz      :     1.020048  p :     3.086243
      px      :     1.024120
      py      :     1.042075
      dz2     :     0.041309  d :     0.231959
      dxz     :     0.049153
      dyz     :     0.059204
      dx2y2   :     0.036877
      dxy     :     0.045416

  7 C s       :     0.814258  s :     0.814258
      pz      :     1.008280  p :     2.913285
      px      :     0.906883
      py      :     0.998121
      dz2     :     0.058249  d :     0.291876
      dxz     :     0.047881
      dyz     :     0.090224
      dx2y2   :     0.050242
      dxy     :     0.045280

  8 C s       :     0.829673  s :     0.829673
      pz      :     1.058740  p :     3.019890
      px      :     0.939709
      py      :     1.021442
      dz2     :     0.036379  d :     0.214456
      dxz     :     0.030083
      dyz     :     0.084849
      dx2y2   :     0.034064
      dxy     :     0.029081

  9 O s       :     1.392067  s :     1.392067
      pz      :     1.630488  p :     4.558200
      px      :     1.576931
      py      :     1.350781
      dz2     :     0.012073  d :     0.096276
      dxz     :     0.011830
      dyz     :     0.030073
      dx2y2   :     0.020656
      dxy     :     0.021645

 10 C s       :     0.785703  s :     0.785703
      pz      :     0.936272  p :     2.520435
      px      :     0.752982
      py      :     0.831180
      dz2     :     0.159267  d :     0.669341
      dxz     :     0.146201
      dyz     :     0.223741
      dx2y2   :     0.072353
      dxy     :     0.067779

 11 O s       :     1.557332  s :     1.557332
      pz      :     1.448541  p :     4.566769
      px      :     1.467214
      py      :     1.651014
      dz2     :     0.031997  d :     0.067510
      dxz     :     0.017488
      dyz     :     0.016344
      dx2y2   :     0.000797
      dxy     :     0.000884

 12 C s       :     0.783275  s :     0.783275
      pz      :     1.048408  p :     3.095495
      px      :     1.042686
      py      :     1.004401
      dz2     :     0.034359  d :     0.212021
      dxz     :     0.052809
      dyz     :     0.044724
      dx2y2   :     0.020368
      dxy     :     0.059762

 13 C s       :     0.778425  s :     0.778425
      pz      :     1.042749  p :     3.098674
      px      :     1.000010
      py      :     1.055915
      dz2     :     0.015641  d :     0.242943
      dxz     :     0.070456
      dyz     :     0.066430
      dx2y2   :     0.055360
      dxy     :     0.035056

 14 H s       :     0.797563  s :     0.797563
      pz      :     0.065743  p :     0.147706
      px      :     0.041705
      py      :     0.040257

 15 H s       :     0.803296  s :     0.803296
      pz      :     0.040401  p :     0.144929
      px      :     0.060933
      py      :     0.043595

 16 H s       :     0.801929  s :     0.801929
      pz      :     0.043295  p :     0.148920
      px      :     0.054970
      py      :     0.050655

 17 H s       :     0.810664  s :     0.810664
      pz      :     0.054783  p :     0.154958
      px      :     0.036227
      py      :     0.063947

 18 H s       :     0.803671  s :     0.803671
      pz      :     0.040992  p :     0.147785
      px      :     0.046918
      py      :     0.059874

 19 H s       :     0.804024  s :     0.804024
      pz      :     0.062645  p :     0.149782
      px      :     0.038893
      py      :     0.048244

 20 H s       :     0.792942  s :     0.792942
      pz      :     0.062029  p :     0.151632
      px      :     0.039700
      py      :     0.049903

 21 H s       :     0.803820  s :     0.803820
      pz      :     0.044480  p :     0.147283
      px      :     0.044504
      py      :     0.058300

 22 H s       :     0.802213  s :     0.802213
[...]
 57:   1320.89   0.005414   27.36  0.001279  (-0.010546  0.034015 -0.003294)
 58:   1332.93   0.014919   75.39  0.003493  (-0.011909  0.055898  0.015044)
 59:   1338.95   0.051116  258.32  0.011914  (-0.053712  0.094195  0.012484)
 60:   1355.71   0.001553    7.85  0.000358  (-0.005637 -0.017446 -0.004629)
 61:   1375.34   0.001292    6.53  0.000293  (-0.002813  0.015972  0.005499)
 62:   1405.54   0.001445    7.30  0.000321  (-0.017868 -0.000564  0.001089)
 63:   1435.78   0.003349   16.92  0.000728  (-0.019591 -0.005649  0.017667)
 64:   1441.54   0.019185   96.95  0.004153  (-0.024534  0.058597 -0.010842)
 65:   1449.35   0.013369   67.56  0.002878  ( 0.023710 -0.047550  0.007438)
 66:   1450.71   0.002626   13.27  0.000565  ( 0.015870 -0.010665  0.014120)
 67:   1458.99   0.002152   10.88  0.000460  (-0.003474  0.007964  0.019617)
 68:   1476.87   0.001243    6.28  0.000263  ( 0.007777 -0.011778 -0.007962)
 69:   1501.85   0.004012   20.28  0.000834  ( 0.008297  0.001232  0.027629)
 70:   1502.89   0.000075    0.38  0.000016  ( 0.001382  0.003526 -0.001127)
 71:   1508.19   0.002802   14.16  0.000580  (-0.022098 -0.008142  0.005008)
 72:   1509.94   0.000487    2.46  0.000101  (-0.005366  0.000166 -0.008474)
 73:   1515.77   0.000506    2.56  0.000104  (-0.001957 -0.008547 -0.005216)
 74:   1523.23   0.004127   20.86  0.000846  (-0.006800 -0.020258  0.019722)
 75:   1525.87   0.002785   14.07  0.000570  ( 0.016834 -0.016881 -0.001080)
 76:   1530.73   0.001620    8.19  0.000330  (-0.007630  0.002463 -0.016309)
 77:   1534.92   0.000877    4.43  0.000178  (-0.007514  0.009101 -0.006253)
 78:   1537.84   0.005121   25.88  0.001039  (-0.019828  0.007919 -0.024152)
 79:   1775.07   0.001153    5.83  0.000203  ( 0.007192 -0.011760 -0.003568)
 80:   1808.84   0.000570    2.88  0.000098  ( 0.008605 -0.004262 -0.002491)
 81:   1867.61   0.053917  272.47  0.009009  ( 0.003630  0.034425  0.088379)
 82:   3093.05   0.005948   30.06  0.000600  (-0.018786 -0.007997 -0.013538)
 83:   3097.52   0.009784   49.44  0.000986  ( 0.027365 -0.012580 -0.008864)
 84:   3115.97   0.002798   14.14  0.000280  ( 0.001177 -0.012343  0.011246)
 85:   3117.81   0.002673   13.51  0.000268  (-0.015281 -0.005425  0.002154)
 86:   3133.30   0.004600   23.25  0.000458  (-0.004166  0.014652 -0.015038)
 87:   3135.53   0.000338    1.71  0.000034  (-0.002886  0.003318 -0.003787)
 88:   3165.90   0.001337    6.76  0.000132  ( 0.002117  0.008422 -0.007507)
 89:   3168.83   0.003202   16.18  0.000315  ( 0.003082  0.013469 -0.011155)
 90:   3184.72   0.000295    1.49  0.000029  ( 0.004120  0.003453 -0.000108)
 91:   3194.85   0.000384    1.94  0.000038  (-0.005404 -0.000136 -0.002882)
 92:   3203.43   0.001095    5.53  0.000107  ( 0.000435  0.007901  0.006635)
 93:   3207.83   0.005448   27.53  0.000530  (-0.005755  0.015598  0.015925)
 94:   3211.01   0.001634    8.26  0.000159  (-0.010743  0.002834 -0.005945)
 95:   3215.13   0.001642    8.30  0.000159  (-0.010349  0.006674 -0.002784)
 96:   3226.81   0.003232   16.33  0.000313  (-0.012429 -0.005917 -0.011094)
 97:   3229.28   0.000107    0.54  0.000010  (-0.003100 -0.000586  0.000624)
 98:   3234.01   0.000935    4.73  0.000090  ( 0.006301  0.004889  0.005161)
 99:   3237.48   0.000418    2.11  0.000040  ( 0.001885 -0.004622 -0.003918)
100:   3264.12   0.000274    1.38  0.000026  (-0.002298  0.004571 -0.000156)
101:   3311.63   0.000641    3.24  0.000060  ( 0.004280  0.002758  0.005875)

* The epsilon (eps) is given for a Dirac delta lineshape.
** The dipole moment derivative (T) already includes vibrational overlap.

The first frequency considered to be a vibration is 6
The total number of vibrations considered is 96


--------------------------
THERMOCHEMISTRY AT 298.15K
--------------------------

Temperature         ...   298.15 K
Pressure            ...     1.00 atm
Total Mass          ...   196.29 AMU
Quasi RRHO          ...     True
Cut-Off Frequency   ...     1.00 cm^-1

Throughout the following assumptions are being made:
  (1) The electronic state is orbitally nondegenerate
  (2) There are no thermally accessible electronically excited states
  (3) Hindered rotations indicated by low frequency modes are not
      treated as such but are treated as vibrations and this may
      cause some error
  (4) All equations used are the standard statistical mechanics
      equations for an ideal gas
  (5) All vibrations are strictly harmonic

freq.      22.79  E(vib)   ...       0.56 
freq.      32.75  E(vib)   ...       0.55 
freq.      48.48  E(vib)   ...       0.53 
freq.      68.74  E(vib)   ...       0.50 
freq.      75.75  E(vib)   ...       0.49 
freq.      92.45  E(vib)   ...       0.47 
freq.     101.33  E(vib)   ...       0.46 
freq.     138.43  E(vib)   ...       0.42 
freq.     145.30  E(vib)   ...       0.41 
freq.     171.63  E(vib)   ...       0.38 
freq.     194.69  E(vib)   ...       0.36 
freq.     218.99  E(vib)   ...       0.33 
freq.     246.32  E(vib)   ...       0.31 
freq.     293.81  E(vib)   ...       0.27 
freq.     310.39  E(vib)   ...       0.26 
freq.     316.44  E(vib)   ...       0.25 
freq.     341.13  E(vib)   ...       0.23 
freq.     360.55  E(vib)   ...       0.22 
freq.     383.67  E(vib)   ...       0.20 
freq.     406.56  E(vib)   ...       0.19 
freq.     437.64  E(vib)   ...       0.17 
freq.     479.40  E(vib)   ...       0.15 
freq.     493.98  E(vib)   ...       0.14 
freq.     542.90  E(vib)   ...       0.12 
freq.     581.56  E(vib)   ...       0.11 
freq.     630.34  E(vib)   ...       0.09 
freq.     668.16  E(vib)   ...       0.08 
freq.     712.80  E(vib)   ...       0.07 
freq.     775.06  E(vib)   ...       0.05 
freq.     799.38  E(vib)   ...       0.05 
freq.     839.86  E(vib)   ...       0.04 
freq.     886.23  E(vib)   ...       0.04 
freq.     894.91  E(vib)   ...       0.03 
freq.     974.17  E(vib)   ...       0.03 
freq.     975.72  E(vib)   ...       0.03 
freq.     985.84  E(vib)   ...       0.02 
freq.     997.48  E(vib)   ...       0.02 
freq.    1026.18  E(vib)   ...       0.02 
freq.    1035.33  E(vib)   ...       0.02 
freq.    1052.58  E(vib)   ...       0.02 
freq.    1055.46  E(vib)   ...       0.02 
freq.    1069.04  E(vib)   ...       0.02 
freq.    1089.05  E(vib)   ...       0.02 
freq.    1094.16  E(vib)   ...       0.02 
freq.    1098.32  E(vib)   ...       0.02 
freq.    1128.99  E(vib)   ...       0.01 
freq.    1149.05  E(vib)   ...       0.01 
freq.    1155.95  E(vib)   ...       0.01 
freq.    1188.42  E(vib)   ...       0.01 
freq.    1241.05  E(vib)   ...       0.01 
freq.    1285.90  E(vib)   ...       0.01 
freq.    1320.89  E(vib)   ...       0.01 
freq.    1332.93  E(vib)   ...       0.01 
freq.    1338.95  E(vib)   ...       0.01 
freq.    1355.71  E(vib)   ...       0.01 
freq.    1375.34  E(vib)   ...       0.01 
freq.    1405.54  E(vib)   ...       0.00 
freq.    1435.78  E(vib)   ...       0.00 
freq.    1441.54  E(vib)   ...       0.00 
freq.    1449.35  E(vib)   ...       0.00 
freq.    1450.71  E(vib)   ...       0.00 
freq.    1458.99  E(vib)   ...       0.00 
freq.    1476.87  E(vib)   ...       0.00 
freq.    1501.85  E(vib)   ...       0.00 
freq.    1502.89  E(vib)   ...       0.00 
freq.    1508.19  E(vib)   ...       0.00 
freq.    1509.94  E(vib)   ...       0.00 
freq.    1515.77  E(vib)   ...       0.00 
freq.    1523.23  E(vib)   ...       0.00 
freq.    1525.87  E(vib)   ...       0.00 
freq.    1530.73  E(vib)   ...       0.00 
freq.    1534.92  E(vib)   ...       0.00 
freq.    1537.84  E(vib)   ...       0.00 
freq.    1775.07  E(vib)   ...       0.00 
freq.    1808.84  E(vib)   ...       0.00 
freq.    1867.61  E(vib)   ...       0.00 
freq.    3093.05  E(vib)   ...       0.00 
freq.    3097.52  E(vib)   ...       0.00 
freq.    3115.97  E(vib)   ...       0.00 
freq.    3117.81  E(vib)   ...       0.00 
freq.    3133.30  E(vib)   ...       0.00 
freq.    3135.53  E(vib)   ...       0.00 
freq.    3165.90  E(vib)   ...       0.00 
freq.    3168.83  E(vib)   ...       0.00 
freq.    3184.72  E(vib)   ...       0.00 
freq.    3194.85  E(vib)   ...       0.00 
freq.    3203.43  E(vib)   ...       0.00 
freq.    3207.83  E(vib)   ...       0.00 
freq.    3211.01  E(vib)   ...       0.00 
freq.    3215.13  E(vib)   ...       0.00 
freq.    3226.81  E(vib)   ...       0.00 
freq.    3229.28  E(vib)   ...       0.00 
freq.    3234.01  E(vib)   ...       0.00 
freq.    3237.48  E(vib)   ...       0.00 
freq.    3264.12  E(vib)   ...       0.00 
freq.    3311.63  E(vib)   ...       0.00 

------------
INNER ENERGY
------------

The inner energy is: U= E(el) + E(ZPE) + E(vib) + E(rot) + E(trans)
    E(el)   - is the total energy from the electronic structure calculation
              = E(kin-el) + E(nuc-el) + E(el-el) + E(nuc-nuc)
    E(ZPE)  - the the zero temperature vibrational energy from the frequency calculation
    E(vib)  - the the finite temperature correction to E(ZPE) due to population
              of excited vibrational states
    E(rot)  - is the rotational thermal energy
    E(trans)- is the translational thermal energy

Summary of contributions to the inner energy U:
Electronic energy                ...   -112.53826111 Eh
Zero point energy                ...      0.30424619 Eh     190.92 kcal/mol
Thermal vibrational correction   ...      0.01422443 Eh       8.93 kcal/mol
Thermal rotational correction    ...      0.00141627 Eh       0.89 kcal/mol
Thermal translational correction ...      0.00141627 Eh       0.89 kcal/mol
-----------------------------------------------------------------------
Total thermal energy                   -112.21695795 Eh


Summary of corrections to the electronic energy:
(perhaps to be used in another calculation)
Total thermal correction                  0.01705697 Eh      10.70 kcal/mol
Non-thermal (ZPE) correction              0.30424619 Eh     190.92 kcal/mol
-----------------------------------------------------------------------
Total correction                          0.32130316 Eh     201.62 kcal/mol


--------
ENTHALPY
--------

The enthalpy is H = U + kB*T
                kB is Boltzmann's constant
Total thermal energy              ...   -112.21695795 Eh 
Thermal Enthalpy correction       ...      0.00094421 Eh       0.59 kcal/mol
-----------------------------------------------------------------------
Total Enthalpy                    ...   -112.21601374 Eh


Note: Only C1 symmetry has been detected, increase convergence thresholds 
      if your molecule has a higher symmetry. Symmetry factor of 1.0 is   
      used for the rotational entropy correction. 
 

Note: Rotational entropy computed according to Herzberg 
Infrared and Raman Spectra, Chapter V,1, Van Nostrand Reinhold, 1945 
Point Group:  C1, Symmetry Number:   1  
Rotational constants in cm-1:     0.032277     0.012449     0.010467 

Vibrational entropy computed according to the QRRHO of S. Grimme
Chem.Eur.J. 2012 18 9955 using a reference frequency of 100.0 cm-1


-------
ENTROPY
-------

The entropy contributions are T*S = T*(S(el)+S(vib)+S(rot)+S(trans))
     S(el)   - electronic entropy
     S(vib)  - vibrational entropy
     S(rot)  - rotational entropy
     S(trans)- translational entropy
The entropies will be listed as multiplied by the temperature to get
units of energy

Electronic entropy                ...      0.00000000 Eh      0.00 kcal/mol
Vibrational entropy               ...      0.02569508 Eh     16.12 kcal/mol
Rotational entropy                ...      0.01535481 Eh      9.64 kcal/mol
Translational entropy             ...      0.01982641 Eh     12.44 kcal/mol
-----------------------------------------------------------------------
Final entropy term                ...      0.06087630 Eh     38.20 kcal/mol

In case the symmetry of your molecule has not been determined correctly
or in case you have a reason to use a different symmetry number we print 
out the resulting rotational entropy values for sn=1,12:

 non-linear molecules -----------------------------------
|  sn= 1 | S(rot)=       0.01535481 Eh      9.64 kcal/mol|
|  sn= 2 | S(rot)=       0.01470035 Eh      9.22 kcal/mol|
|  sn= 3 | S(rot)=       0.01431752 Eh      8.98 kcal/mol|
|  sn= 4 | S(rot)=       0.01404590 Eh      8.81 kcal/mol|
|  sn= 5 | S(rot)=       0.01383521 Eh      8.68 kcal/mol|
|  sn= 6 | S(rot)=       0.01366306 Eh      8.57 kcal/mol|
|  sn= 7 | S(rot)=       0.01351752 Eh      8.48 kcal/mol|
|  sn= 8 | S(rot)=       0.01339144 Eh      8.40 kcal/mol|
|  sn= 9 | S(rot)=       0.01328023 Eh      8.33 kcal/mol|
|  sn=10 | S(rot)=       0.01318075 Eh      8.27 kcal/mol|
|  sn=11 | S(rot)=       0.01309076 Eh      8.21 kcal/mol|
|  sn=12 | S(rot)=       0.01300861 Eh      8.16 kcal/mol|
 linear molecules ---------------------------------------
|  Dinfh | S(rot)=       0.00963078 Eh      6.04 kcal/mol|
|  Cinfv | S(rot)=       0.01028524 Eh      6.45 kcal/mol|
 --------------------------------------------------------


-------------------
GIBBS FREE ENERGY
-------------------

The Gibbs free energy is G = H - T*S

Total enthalpy                    ...   -112.21601374 Eh 
Total entropy correction          ...     -0.06087630 Eh    -38.20 kcal/mol
-----------------------------------------------------------------------
Final Gibbs free energy         ...   -112.27689003 Eh

For completeness - the Gibbs free energy minus the electronic energy
G-E(el)                           ...      0.26137108 Eh    164.01 kcal/mol


Maximum memory used throughout the entire PROP-calculation: 191.7 MB

--------------------------------
SUGGESTED CITATIONS FOR THIS RUN
--------------------------------

Below you find a list of papers that are relevant to this ORCA run
We neither can nor want to force you to cite these papers, but we appreciate if you do
You receive ORCA, which is the product of decades of hard work by many enthusiastic individuals, for free
The only thing we kindly ask in return is that you cite our papers,
We deeply appreciate it, if you show your appreciation for ORCA by not just citing the generic ORCA reference.

Please note that relegating all ORCA citations to the supporting information does *not* help us.
SI sections are not indexed - citations you put there will not count into any citation statistics
But we need these citations in order to attract the funding resources that allow us to do what we are doing

Therefore, if you are a happy ORCA user, please consider citing a few of the papers listed below in the main body of your paper

In addition to the list printed below, the program has created the file ./output/linalyl_acetate/linalyl_acetate.bibtex that contains the list in bibtex format
You can import this file easily into all common literature databanks and citation aid programs


List of essential papers. We consider these as the minimum necessary citations

  1. Neese,F.
     Software update: the ORCA program system, version 5.0
     WIRES Comput. Molec. Sci., 2022 12(1)e1606
     doi.org/10.1002/wcms.1606
  2. Mueller,M.; Hansen,A.; Grimme,S.
     wB97X-3c: A composite range-separated hybrid DFT method with a molecule-optimized polarized valence double-zeta basis set
     J. Chem. Phys., 2023 158 014103
     doi.org/10.1063/5.0133026

List of papers to cite with high priority. The work reported in these papers was absolutely
necessary for this run to complete.
Our perspective: the developers of density functionals and basis sets usually get cited in chemistry papers
Good! But without the algorithms to do something with them, the functionals or basis sets would not do anything.
Hence, in our opinion, the algorithm design and method developments papers are equally worthy of getting cited

  1. Neese,F.
     An improvement of the resolution of the identity approximation for the formation of the Coulomb matrix
     J. Comp. Chem., 2003 24(14)1740-1747
     doi.org/10.1002/jcc.10318
  2. Neese,F.; Wennmohs,F.; Hansen,A.; Becker,U.
     Efficient, approximate and parallel Hartree-Fock and hybrid DFT calculations. A 'chain-of-spheres' algorithm for the Hartree-Fock exchange
     Chem. Phys., 2009 356(1-3)98-109
     doi.org/10.1016/j.chemphys.2008.10.036
  3. Bykov,D.; Petrenko,T.; Izsak,R.; Kossmann,S.; Becker,U.; Valeev,E.; Neese,F.
     Efficient implementation of the analytic second derivatives of Hartree-Fock and hybrid DFT energies: a detailed analysis of different approximations
     Molec. Phys., 2015 113 1961-1977
     doi.org/10.1080/00268976.2015.1025114
  4. Helmich-Paris,B.; de Souza,B.; Neese,F.; Izsák,R.
     An improved chain of spheres for exchange algorithm
     J. Chem. Phys., 2021 155 104109
     doi.org/doi: 10.1063/5.0058766.
  5. Neese,F.
     The SHARK Integral Generation and Digestion System
     J. Comp. Chem., 2022  1-16
     doi.org/10.1002/jcc.26942
  6. Caldeweyher,E.; Bannwarth,C.; Grimme,S.
     Extension of the D3 dispersion coefficient model
     J. Chem. Phys., 2017 147 034112
     doi.org/10.1063/1.4993215
  7. Caldeweyher,E.; Ehlert,S.; Hansen,A.; Neugebauer,H.; Spicher,S.; Bannwarth,C.; Grimme,S.
     A generally applicable atomic-charge dependent London dispersion correction
     J. Chem. Phys., 2019 150 154122
     doi.org/10.1063/1.5090222
  8. Caldeweyher,E.; Mewes,J.; Ehlert,S.; Grimme,S.
     Extension and evaluation of the D4 London-dispersion model for periodic systems
     Phys. Chem. Chem. Phys., 2020 22(16)8499-8512
     doi.org/10.1039/D0CP00502A
  9. Wittmann,L.; Gordiy,I.; Friede,M.; Helmich-Paris,B.; Grimme,S.; Hansen,A.; Bursch,M.
     Extension of the D3 and D4 London Dispersion Corrections to the full Actinides Series
     Phys. Chem. Chem. Phys., 2024 26(32)21379-21394
     doi.org/https://doi.org/10.1039/D4CP01514B 

List of suggested additional citations. These are papers that are important in the 'surrounding' of 
of this run, or papers that preceded the highly important papers. If you like your results we are grateful for a citation.

  1. Izsak,R.; Neese,F.
     An overlap fitted chain of spheres exchange method
     J. Chem. Phys., 2011 135 144105
     doi.org/10.1063/1.3646921
  2. Izsak,R.; Hansen,A.; Neese,F.
     The resolution of identity and chain of spheres approximations for the LPNO-CCSD singles Fock term
     Molec. Phys., 2012 110 2413-2417
     doi.org/10.1080/00268976.2012.687466
  3. Neese,F.
     The ORCA program system
     WIRES Comput. Molec. Sci., 2012 2(1)73-78
     doi.org/10.1002/wcms.81
  4. Izsak,R.; Neese,F.; Klopper,W.
     Robust fitting techniques in the chain of spheres approximation to the Fock exchange: The role of the complementary space
     J. Chem. Phys., 2013 139 
     doi.org/10.1063/1.4819264
  5. Neese,F.
     Software update: the ORCA program system, version 4.0
     WIRES Comput. Molec. Sci., 2018 8(1)1-6
     doi.org/10.1002/wcms.1327
  6. Neese,F.; Wennmohs,F.; Becker,U.; Riplinger,C.
     The ORCA quantum chemistry program package
     J. Chem. Phys., 2020 152 Art. No. L224108
     doi.org/10.1063/5.0004608

List of optional additional citations

  1. Neese,F.
     Approximate second-order SCF convergence for spin unrestricted wavefunctions
     Chem. Phys. Lett., 2000 325(1-3)93-98
     doi.org/10.1016/s0009-2614(00)00662-x

Timings for individual modules:

Sum of individual times          ...     2392.701 sec (=  39.878 min)
Startup calculation              ...      125.459 sec (=   2.091 min)   5.2 %
SCF iterations                   ...     1629.815 sec (=  27.164 min)  68.1 %
Property integrals               ...      107.466 sec (=   1.791 min)   4.5 %
SCF Response                     ...       65.067 sec (=   1.084 min)   2.7 %
Property calculations            ...      139.561 sec (=   2.326 min)   5.8 %
SCF Gradient evaluation          ...      324.661 sec (=   5.411 min)  13.6 %
Geometry relaxation              ...        0.673 sec (=   0.011 min)   0.0 %
                             ****ORCA TERMINATED NORMALLY****
TOTAL RUN TIME: 0 days 0 hours 40 minutes 5 seconds 985 msec
