
                                 *****************
                                 * O   R   C   A *
                                 *****************

                                            #,                                       
                                            ###                                      
                                            ####                                     
                                            #####                                    
                                            ######                                   
                                           ########,                                 
                                     ,,################,,,,,                         
                               ,,#################################,,                 
                          ,,##########################################,,             
                       ,#########################################, ''#####,          
                    ,#############################################,,   '####,        
                  ,##################################################,,,,####,       
                ,###########''''           ''''###############################       
              ,#####''   ,,,,##########,,,,          '''####'''          '####       
            ,##' ,,,,###########################,,,                        '##       
           ' ,,###''''                  '''############,,,                           
         ,,##''                                '''############,,,,        ,,,,,,###''
      ,#''                                            '''#######################'''  
     '                                                          ''''####''''         
             ,#######,   #######,   ,#######,      ##                                
            ,#'     '#,  ##    ##  ,#'     '#,    #''#        ,####,   ,####,        
            ##       ##  ##   ,#'  ##            #'  '#       #'       #'  '#        
            ##       ##  #######   ##           ,######,      #####,   #    #        
            '#,     ,#'  ##    ##  '#,     ,#' ,#      #,     #,   #   #,  ,#        
             '#######'   ##     ##  '#######'  #'      '#     '####' # '####'        



                #########################################################
                #                        -***-                          #
                #          Department of theory and spectroscopy        #
                #                                                       #
                #                      Frank Neese                      #
                #                                                       #
                #     Directorship, Architecture, Infrastructure        #
                #                    SHARK, DRIVERS                     #
                #        Core code/Algorithms in most modules           #
                #                                                       #
                #        Max Planck Institute fuer Kohlenforschung      #
                #                Kaiser Wilhelm Platz 1                 #
                #                 D-45470 Muelheim/Ruhr                 #
                #                      Germany                          #
                #                                                       #
                #                  All rights reserved                  #
                #                        -***-                          #
                #########################################################


                         Program Version 6.0.1  -  RELEASE   -


 With contributions from (in alphabetic order):
[Max-Planck-Institut fuer Kohlenforschung]                               
  Daniel Aravena         : Magnetic Suceptibility                        
  Michael Atanasov       : Ab Initio Ligand Field Theory (pilot matlab implementation)
  Alexander A. Auer      : GIAO ZORA, VPT2 properties, NMR spectrum      
  Ute Becker             : All parallelization in ORCA, NUMFREQ, NUMCALC 
  Giovanni Bistoni       : ED, misc. LED, open-shell LED, HFLD           
  Martin Brehm           : Molecular dynamics                            
  Dmytro Bykov           : pre 5.0 version of the SCF Hessian            
  Marcos Casanova-Páez   : Triplet and SCS-CIS(D). UHF-(DLPNO)-IP/EA/STEOM-CCSD. UHF-CVS-IP/STEOM-CCSD   
  Vijay G. Chilkuri      : MRCI spin determinant printing, contributions to CSF-ICE 
  Pauline Colinet        : FMM embedding                                 
  Dipayan Datta          : RHF DLPNO-CCSD density                        
  Achintya Kumar Dutta   : EOM-CC, STEOM-CC                              
  Nicolas Foglia         : Exact transition moments, OPA infrastructure, MCD improvements    
  Dmitry Ganyushin       : Spin-Orbit,Spin-Spin,Magnetic field MRCI      
  Miquel Garcia-Rates    : C-PCM and meta-GGA Hessian, CCSD/C-PCM, Gaussian charge scheme 
  Tiago L. C. Gouveia    : GS-ROHF, GS-ROCIS                             
  Yang Guo               : DLPNO-NEVPT2, F12-NEVPT2, CIM, IAO-localization        
  Andreas Hansen         : Spin unrestricted coupled pair/coupled cluster methods 
  Ingolf Harden          : AUTO-CI MPn and infrastructure                
  Benjamin Helmich-Paris : MC-RPA, TRAH-(SCF,CASSCF), AVAS, COSX integrals, SCF dyn. polar. 
  Lee Huntington         : MR-EOM, pCC                                   
  Robert Izsak           : Overlap fitted RIJCOSX, COSX-SCS-MP3, EOM     
  Riya Kayal             : Wick's Theorem for AUTO-CI, AUTO-CI UHF-CCSDT 
  Emily Kempfer          : AUTO-CI, RHF CISDT and CCSDT                  
  Christian Kollmar      : KDIIS, OOCD, Brueckner-CCSD(T), CCSD density, CASPT2, CASPT2-K, improved NEVPT2 
  Axel Koslowski         : Symmetry handling                             
  Simone Kossmann        : meta-GGA functionals, TD-DFT gradient, OOMP2, (MP2 Hessian; deprecated post 5.0) 
  Lucas Lang             : DCDCAS                                        
  Marvin Lechner         : AUTO-CI (C++ implementation), FIC-MRCC        
  Spencer Leger          : CASSCF response                               
  Dagmar Lenk            : GEPOL surface, SMD, ORCA-2-JSON               
  Dimitrios Liakos       : Extrapolation schemes; Compound Job, initial MDCI parallelization 
  Dimitrios Manganas     : Further ROCIS development; embedding schemes. LFT, Crystal Embedding 
  Dimitrios Pantazis     : SARC Basis sets                               
  Anastasios Papadopoulos: AUTO-CI, single reference methods and gradients 
  Taras Petrenko         : pre 6.0 DFT Hessian and TD-DFT gradient, (ASA, deprecated), ECA, 1-Electron XAS/XES, NRVS 
  Peter Pinski           : DLPNO-MP2, DLPNO-MP2 Gradient                 
  Christoph Reimann      : Effective Core Potentials                     
  Marius Retegan         : Local ZFS, SOC                                
  Christoph Riplinger    : Optimizer, TS searches, QM/MM, DLPNO-CCSD(T), (RO)-DLPNO pert. Triples 
  Michael Roemelt        : Original ROCIS implementation                 
  Masaaki Saitow         : Open-shell DLPNO-CCSD energy and density      
  Barbara Sandhoefer     : DKH picture change effects                    
  Kantharuban Sivalingam : CASSCF convergence/infrastructure, NEVPT2 and variants, FIC-MRCI 
  Bernardo de Souza      : ESD, SOC TD-DFT                               
  Georgi L. Stoychev     : AutoAux, RI-MP2 NMR, DLPNO-MP2 response, X2C  
  Van Anh Tran           : RI-MP2 g-tensors                              
  Willem Van den Heuvel  : Paramagnetic NMR                              
  Zikuan Wang            : NOTCH, Electric field optimization            
  Frank Wennmohs         : Technical directorship and infrastructure     
  Hang Xu                : AUTO-CI-Response properties                   
                                                                         
[FACCTs GmbH]                                                            
  Markus Bursch, Miquel Garcia-Rates, Christoph Riplinger, Bernardo de Souza, Georgi L. Stoychev 
                                                                 
  APM, Basis sets (HGBS, AHGBS, def-TZVP (Ac-Lr), def2-XVPD (La-Lu)), CI-OPT, improved COSX, DLPNO-Multilevel,           
  DOCKER, DRACO, updates on ESD, GOAT, IRC, LR-CPCM, MBIS, meta-GGA TD-DFT gradient, ML-optimized integration grids, 
  MM, NACMEs, nearIR, NEB, NEB-TS, NL-DFT gradient (VV10), 2- and 3-layer-ONIOM, interface openCOSMO-RS, QMMM,   
  Crystal-QMMM, SF, symmetry and pop. for TD-DFT, r2SCAN hybrids, SOLVATOR                                   
                                                                         
[Other institutions]                                                     
  V. Asgeirsson          : NEB                                           
  Christoph Bannwarth    : sTDA-DFT, sTD-DFT, PBEh-3c, B97-3c, D3        
  Sebastian Ehlert       : rSCAN, r2SCAN, r2SCAN-3c, D4, dhf basis sets  
  Marvin Friede          : D4 for Fr, Ra, Ac-Lr                          
  Lars Goerigk           : TD-DFT with DH, B97 family of functionals     
  Stefan Grimme          : VdW corrections, initial TS optimization, DFT functionals, gCP, sTDA/sTD-DF 
  Waldemar Hujo          : DFT-NL                                        
  H. Jonsson             : NEB                                           
  Holger Kruse           : gCP                                           
  Marcel Mueller         : wB97X-3c, vDZP basis set                      
  Hagen Neugebauer       : wr2SCAN                                       
  Tobias Risthaus        : range-separated hybrid DFT                    
  Lukas Wittmann         : regularized MP2, r2SCAN double-hybrids, wr2SCAN        
                                                                         
We gratefully acknowledge several colleagues who have allowed us to      
interface, adapt or use parts of their codes:                            
  Ed Valeev, F. Pavosevic, A. Kumar             : LibInt (2-el integral package), F12 methods 
  Garnet Chan, S. Sharma, J. Yang, R. Olivares  : DMRG                   
  Ulf Ekstrom                                   : XCFun DFT Library      
  Mihaly Kallay                                 : mrcc  (arbitrary order and MRCC methods)
  Frank Weinhold                                : gennbo (NPA and NBO analysis)           
  Simon Mueller                                 : openCOSMO-RS                            
  Christopher J. Cramer and Donald G. Truhlar   : smd solvation model                     
  S Lehtola, MJT Oliveira, MAL Marques          : LibXC Library                           
  Liviu Ungur et al                             : ANISO software                          


 Your calculation uses the libint2 library for the computation of 2-el integrals
 For citations please refer to: http://libint.valeyev.net

 Your ORCA version has been built with support for libXC version: 6.2.2
 For citations please refer to: https://libxc.gitlab.io

 This ORCA versions uses:
   CBLAS   interface :  Fast vector & matrix operations
   LAPACKE interface :  Fast linear algebra routines
   SCALAPACK package :  Parallel linear algebra routines
   Shared memory     :  Shared parallel matrices
   BLAS/LAPACK       :  OpenBLAS 0.3.27  USE64BITINT DYNAMIC_ARCH NO_AFFINITY SkylakeX SINGLE_THREADED
        Core in use  :  SkylakeX
   Copyright (c) 2011-2014, The OpenBLAS Project


Your calculation utilizes the atom-pairwise dispersion correction
based on EEQ partial charges (D4)


================================================================================

cite the ECPs for C  [vDZP-ECP] as follows:
   B-Ne (ecp-2-mwb), Al-Ar (ecp-10-mwb), Ga-Kr (ecp-28-mwb), Y-Cd (ecp-28-mwb), In-Xe (ecp-46-mwb):
     A. Bergner, M. Dolg, W. Küchle, H. Stoll, and H. Preuß, Mol. Phys. 80, 1431 (1993)., T. Leininger, A. Berning, A. Nicklass, H. Stoll, H.-J. Werner, and H.-J.Flad, Chem. Phys. 217, 19 (1997).
   Na-Mg, K-Ca, Rb-Sr, Cs-Ba (CRENBL):
     L. Fernandez Pacios and P. A. Christiansen, J. Chem. Phys. 82, 2664 (1985)., M. M. Hurley, L. F. Pacios, P. A. Christiansen, R. B. Ross, and W. C. Ermler, J. Chem. Phys. 84, 6840 (1986)., L. A. LaJohn, P. A. Christiansen, R. B. Ross, T. Atashroo, and W. C. Ermler, J. Chem. Phys. 87, 2812 (1987)., R. B. Ross, J. M. Powers, T. Atashroo, W. C. Ermler, L. A. LaJohn, and P. A. Christiansen, J. Chem. Phys. 93, 6654 (1990). 
   Sc-Zn (ecp-10-mdf):
     M. Dolg, U. Wedig, H. Stoll, and H. Preuss, J. Chem. Phys. 86, 866 (1986). 
   Y-Cd (ecp-28-mwb), Hf-Hg (ecp-60-mwb):
     D. Andrae, U. Häußermann, M. Dolg, H. Stoll, and H. Preuß, Theor. Chim. Acta 77, 123 (1990). 
   La (ecp-46-mwb):
     M. Dolg, H. Stoll, and H. Preuss, J. Chem. Phys. 90, 1730 (1989)., M. Dolg, H. Stoll, and H. Preuss, Theor. Chim. Acta 85, 441 (1993).
   Ce-Lu (SBKJC-ecp):
     T. R. Cundari and W. J. Stevens, J. Chem. Phys. 98, 5555 (1993).
   Tl-Rn (ecp-78-mwb):
     W. Küchle, M. Dolg, H. Stoll, and H. Preuss, Mol. Phys. 74, 1245 (1991).

ECP parameters for C  [vDZP-ECP] have been obtained from:
MM, AH, SG, J. Chem. Phys. 158, 014103 (2023), 10.1063/5.0133026

----- Orbital basis set information -----
Your calculation utilizes the basis: vDZP
   Marcel Mueller, Andreas Hansen, Stefan Grimme 
   J. Chem. Phys. 158, 014103 (2023). DOI: 10.1063/5.0133026

----- AuxJ basis set information -----
Your calculation utilizes the auxiliary basis: def2/J
   F. Weigend, Phys. Chem. Chem. Phys. 8, 1057 (2006).

================================================================================
                                        WARNINGS
                       Please study these warnings very carefully!
================================================================================

WARNING: Frozen-Core approximation turned on, but there are no core electrons.
  ===> : Turning off frozen-core approximation


WARNING: Geometry Optimization
  ===> : Switching off AutoStart
         For restart on a previous wavefunction, please use MOREAD

================================================================================
                                       INPUT FILE
================================================================================
NAME = ./output/_e_beta_ocimene/_e_beta_ocimene.inp
|  1> ! wB97X-3c OPT FREQ TightSCF
|  2> %pal
|  3>   nprocs 40
|  4> end
|  5> * xyz 0 1
|  6> C     -3.575053    -0.334056     0.030475
|  7> C     -2.407066     0.597914    -0.162690
|  8> C     -1.222992     0.279324     0.401156
|  9> C      0.010930     1.138691     0.268084
| 10> C      1.182693     0.522994     0.984935
| 11> C      1.928800    -0.491909     0.503032
| 12> C      1.656099    -1.109718    -0.850784
| 13> C      3.088199    -0.946541     1.313643
| 14> C      4.094727    -1.669743     0.821769
| 15> C     -2.580492     1.858033    -0.976919
| 16> H     -3.800770    -0.433276     1.113412
| 17> H     -4.486508     0.037862    -0.482053
| 18> H     -3.328155    -1.335264    -0.382123
| 19> H     -1.150864    -0.642122     0.976099
| 20> H     -0.197064     2.128584     0.727606
| 21> H      0.263637     1.308386    -0.800450
| 22> H      1.436838     0.955053     1.946892
| 23> H      1.913352    -2.189220    -0.843326
| 24> H      2.263433    -0.593333    -1.623047
| 25> H      0.586336    -1.053003    -1.134153
| 26> H      3.144767    -0.652910     2.355810
| 27> H      4.137771    -1.965992    -0.217294
| 28> H      4.914537    -1.956705     1.467524
| 29> H     -2.354812     2.747504    -0.352070
| 30> H     -3.619315     1.959743    -1.353875
| 31> H     -1.899029     1.839704    -1.853130
| 32> *
| 33> 
| 34>                          ****END OF INPUT****
================================================================================

                       *****************************
                       * Geometry Optimization Run *
                       *****************************

Geometry optimization settings:
Update method            Update   .... BFGS
Choice of coordinates    CoordSys .... (2022) Redundant Internals
Initial Hessian          InHess   .... Almloef's Model
Max. no of cycles        MaxIter  .... 78

Convergence Tolerances:
Energy Change            TolE     ....  5.0000e-06 Eh
Max. Gradient            TolMAXG  ....  3.0000e-04 Eh/bohr
RMS Gradient             TolRMSG  ....  1.0000e-04 Eh/bohr
Max. Displacement        TolMAXD  ....  4.0000e-03 bohr
RMS Displacement         TolRMSD  ....  2.0000e-03 bohr
Strict Convergence                .... False

------------------------------------------------------------------------------
                        ORCA OPTIMIZATION COORDINATE SETUP
------------------------------------------------------------------------------

The optimization will be done in redundant internal coordinates (2022)
Making redundant internal coordinates   ...  (2022 redundants) done
Evaluating the initial hessian          ...  (Almloef) done
Evaluating the coordinates              ...  done
Calculating the B-matrix                .... done
Calculating the G-matrix                .... done
Diagonalizing the G-matrix              .... done
Small eigenvalue found = 6.182e-03
Small eigenvalue found = 8.909e-03
Small eigenvalue found = 2.537e-02
Small eigenvalue found = 2.552e-02
The first mode is                       ....   36
The number of degrees of freedom        ....   72

    -----------------------------------------------------------------
                    Redundant Internal Coordinates


    -----------------------------------------------------------------
         Definition                    Initial Value    Approx d2E/dq
    -----------------------------------------------------------------
      1. B(C   1,C   0)                  1.5067         0.406994   
      2. B(C   2,C   1)                  1.3496         0.724727   
      3. B(C   3,C   2)                  1.5096         0.402700   
      4. B(C   4,C   3)                  1.5053         0.409029   
      5. B(C   5,C   4)                  1.3487         0.727217   
      6. B(C   6,C   5)                  1.5129         0.397793   
      7. B(C   7,C   5)                  1.4859         0.439227   
      8. B(C   8,C   7)                  1.3334         0.769091   
      9. B(C   9,C   1)                  1.5103         0.401643   
     10. B(H  10,C   0)                  1.1107         0.333792   
     11. B(H  11,C   0)                  1.1098         0.334780   
     12. B(H  12,C   0)                  1.1107         0.333755   
     13. B(H  13,C   2)                  1.0885         0.362094   
     14. B(H  14,C   3)                  1.1110         0.333370   
     15. B(H  15,C   3)                  1.1110         0.333308   
     16. B(H  16,C   4)                  1.0847         0.367148   
     17. B(H  17,C   6)                  1.1098         0.334891   
     18. B(H  18,C   6)                  1.1099         0.334703   
     19. B(H  19,C   6)                  1.1081         0.336922   
     20. B(H  20,C   7)                  1.0842         0.367829   
     21. B(H  21,C   8)                  1.0813         0.371758   
     22. B(H  22,C   8)                  1.0823         0.370393   
     23. B(H  23,C   9)                  1.1102         0.334355   
     24. B(H  24,C   9)                  1.1098         0.334871   
     25. B(H  25,C   9)                  1.1102         0.334384   
     26. A(C   1,C   0,H  10)          109.7436         0.324842   
     27. A(H  11,C   0,H  12)          108.2453         0.284151   
     28. A(C   1,C   0,H  12)          109.7333         0.324836   
     29. A(H  10,C   0,H  11)          108.2590         0.284156   
     30. A(H  10,C   0,H  12)          109.0783         0.284021   
     31. A(C   1,C   0,H  11)          111.7246         0.325000   
     32. A(C   2,C   1,C   9)          121.5299         0.413017   
     33. A(C   0,C   1,C   9)          119.7492         0.373348   
     34. A(C   0,C   1,C   2)          118.7209         0.413989   
     35. A(C   1,C   2,C   3)          123.0882         0.413210   
     36. A(C   3,C   2,H  13)          118.3146         0.328651   
     37. A(C   1,C   2,H  13)          118.5967         0.362740   
     38. A(C   2,C   3,C   4)          111.1896         0.373839   
     39. A(H  14,C   3,H  15)          107.7150         0.283906   
     40. A(C   4,C   3,H  15)          110.0848         0.325031   
     41. A(C   4,C   3,H  14)          108.2518         0.325041   
     42. A(C   2,C   3,H  15)          110.9557         0.324200   
     43. A(C   2,C   3,H  14)          108.5262         0.324209   
     44. A(C   5,C   4,H  16)          119.1434         0.363814   
     45. A(C   3,C   4,H  16)          116.2174         0.330254   
     46. A(C   3,C   4,C   5)          124.6291         0.414609   
     47. A(C   6,C   5,C   7)          120.2558         0.377666   
     48. A(C   4,C   5,C   7)          117.8371         0.419901   
     49. A(C   4,C   5,C   6)          121.8248         0.412562   
     50. A(H  17,C   6,H  19)          105.9795         0.284584   
     51. A(C   5,C   6,H  19)          112.4542         0.324121   
     52. A(H  17,C   6,H  18)          109.2929         0.284291   
     53. A(C   5,C   6,H  18)          109.5120         0.323769   
     54. A(C   5,C   6,H  17)          110.4524         0.323799   
     55. A(H  18,C   6,H  19)          109.0574         0.284559   
     56. A(C   5,C   7,C   8)          123.6192         0.424120   
     57. A(C   8,C   7,H  20)          117.5207         0.367435   
     58. A(C   5,C   7,H  20)          118.8301         0.334278   
     59. A(H  21,C   8,H  22)          118.0684         0.293601   
     60. A(C   7,C   8,H  22)          119.7003         0.367873   
     61. A(C   7,C   8,H  21)          122.2148         0.368105   
     62. A(H  24,C   9,H  25)          107.9399         0.284247   
     63. A(H  23,C   9,H  25)          109.4306         0.284178   
     64. A(C   1,C   9,H  25)          109.9528         0.324231   
     65. A(H  23,C   9,H  24)          107.9407         0.284243   
     66. A(C   1,C   9,H  24)          111.5358         0.324309   
     67. A(C   1,C   9,H  23)          109.9805         0.324226   
     68. D(C   9,C   1,C   0,H  11)      0.0347         0.012275   
     69. D(C   9,C   1,C   0,H  10)   -120.0539         0.012275   
     70. D(C   2,C   1,C   0,H  10)     60.0185         0.012275   
     71. D(C   2,C   1,C   0,H  11)   -179.8929         0.012275   
     72. D(C   2,C   1,C   0,H  12)    -59.8284         0.012275   
     73. D(H  13,C   2,C   1,C   0)      0.0890         0.037217   
     74. D(C   3,C   2,C   1,C   9)     -0.0872         0.037217   
     75. D(H  13,C   2,C   1,C   9)   -179.8373         0.037217   
     76. D(C   3,C   2,C   1,C   0)    179.8391         0.037217   
     77. D(H  15,C   3,C   2,C   1)    -56.3499         0.012028   
     78. D(H  14,C   3,C   2,H  13)   -118.4363         0.012028   
     79. D(H  14,C   3,C   2,C   1)     61.8130         0.012028   
     80. D(C   4,C   3,C   2,H  13)      0.5218         0.012028   
     81. D(C   4,C   3,C   2,C   1)   -179.2289         0.012028   
     82. D(C   5,C   4,C   3,C   2)     78.7178         0.012393   
     83. D(H  16,C   4,C   3,H  14)     16.6672         0.012393   
     84. D(H  16,C   4,C   3,C   2)   -102.4552         0.012393   
     85. D(C   5,C   4,C   3,H  15)    -44.6607         0.012393   
     86. D(C   5,C   4,C   3,H  14)   -162.1598         0.012393   
     87. D(C   7,C   5,C   4,H  16)     -1.3017         0.037497   
     88. D(C   7,C   5,C   4,C   3)    177.4934         0.037497   
     89. D(C   6,C   5,C   4,H  16)   -178.0086         0.037497   
     90. D(C   6,C   5,C   4,C   3)      0.7865         0.037497   
     91. D(H  19,C   6,C   5,C   4)    -29.6221         0.011749   
     92. D(H  18,C   6,C   5,C   7)    -84.8331         0.011749   
     93. D(H  18,C   6,C   5,C   4)     91.7956         0.011749   
     94. D(H  17,C   6,C   5,C   7)     35.5821         0.011749   
     95. D(H  17,C   6,C   5,C   4)   -147.7892         0.011749   
     96. D(H  20,C   7,C   5,C   4)     16.2923         0.013165   
     97. D(C   8,C   7,C   5,C   6)     15.0971         0.013165   
     98. D(C   8,C   7,C   5,C   4)   -161.6637         0.013165   
     99. D(H  20,C   7,C   5,C   6)   -166.9469         0.013165   
    100. D(H  22,C   8,C   7,H  20)      1.2733         0.042393   
    101. D(H  22,C   8,C   7,C   5)    179.2541         0.042393   
    102. D(H  21,C   8,C   7,H  20)   -177.2231         0.042393   
    103. D(H  21,C   8,C   7,C   5)      0.7577         0.042393   
    104. D(H  25,C   9,C   1,C   0)   -119.1486         0.011968   
    105. D(H  24,C   9,C   1,C   2)   -179.5171         0.011968   
    106. D(H  24,C   9,C   1,C   0)      0.5574         0.011968   
    107. D(H  23,C   9,C   1,C   2)    -59.7918         0.011968   
    108. D(H  23,C   9,C   1,C   0)    120.2827         0.011968   
    -----------------------------------------------------------------

Number of atoms                         .... 26
Number of degrees of freedom            .... 108


         *************************************************************
         *                GEOMETRY OPTIMIZATION CYCLE   1            *
         *************************************************************
---------------------------------
CARTESIAN COORDINATES (ANGSTROEM)
---------------------------------
  C     -3.575053   -0.334056    0.030475
  C     -2.407066    0.597914   -0.162690
  C     -1.222992    0.279324    0.401156
  C      0.010930    1.138691    0.268084
  C      1.182693    0.522994    0.984935
  C      1.928800   -0.491909    0.503032
  C      1.656099   -1.109718   -0.850784
  C      3.088199   -0.946541    1.313643
  C      4.094727   -1.669743    0.821769
  C     -2.580492    1.858033   -0.976919
  H     -3.800770   -0.433276    1.113412
  H     -4.486508    0.037862   -0.482053
  H     -3.328155   -1.335264   -0.382123
  H     -1.150864   -0.642122    0.976099
  H     -0.197064    2.128584    0.727606
  H      0.263637    1.308386   -0.800450
  H      1.436838    0.955053    1.946892
  H      1.913352   -2.189220   -0.843326
  H      2.263433   -0.593333   -1.623047
  H      0.586336   -1.053003   -1.134153
  H      3.144767   -0.652910    2.355810
  H      4.137771   -1.965992   -0.217294
  H      4.914537   -1.956705    1.467524
  H     -2.354812    2.747504   -0.352070
  H     -3.619315    1.959743   -1.353875
  H     -1.899029    1.839704   -1.853130

----------------------------
CARTESIAN COORDINATES (A.U.)
----------------------------
  NO LB      ZA    FRAG     MASS         X           Y           Z
   0 C     4.0000*   0    12.011   -6.755871   -0.631274    0.057589
   1 C     4.0000*   0    12.011   -4.548696    1.129894   -0.307440
   2 C     4.0000*   0    12.011   -2.311120    0.527846    0.758075
   3 C     4.0000*   0    12.011    0.020655    2.151814    0.506605
   4 C     4.0000*   0    12.011    2.234966    0.988315    1.861257
   5 C     4.0000*   0    12.011    3.644904   -0.929573    0.950593
   6 C     4.0000*   0    12.011    3.129574   -2.097063   -1.607749
   7 C     4.0000*   0    12.011    5.835850   -1.788703    2.482426
   8 C     4.0000*   0    12.011    7.737913   -3.155357    1.552918
   9 C     4.0000*   0    12.011   -4.876423    3.511174   -1.846109
  10 H     1.0000    0     1.008   -7.182414   -0.818773    2.104044
  11 H     1.0000    0     1.008   -8.478271    0.071549   -0.910948
  12 H     1.0000    0     1.008   -6.289301   -2.523283   -0.722108
  13 H     1.0000    0     1.008   -2.174818   -1.213435    1.844560
  14 H     1.0000    0     1.008   -0.372397    4.022441    1.374976
  15 H     1.0000    0     1.008    0.498202    2.472491   -1.512631
  16 H     1.0000    0     1.008    2.715230    1.804789    3.679093
  17 H     1.0000    0     1.008    3.615711   -4.137026   -1.593655
  18 H     1.0000    0     1.008    4.277268   -1.121237   -3.067114
  19 H     1.0000    0     1.008    1.108014   -1.989887   -2.143239
  20 H     1.0000    0     1.008    5.942748   -1.233821    4.451836
  21 H     1.0000    0     1.008    7.819254   -3.715186   -0.410626
  22 H     1.0000    0     1.008    9.287129   -3.697637    2.773218
  23 H     1.0000    0     1.008   -4.449950    5.192030   -0.665316
  24 H     1.0000    0     1.008   -6.839514    3.703378   -2.558453
  25 H     1.0000    0     1.008   -3.588645    3.476537   -3.501908
* core charge reduced due to ECP

--------------------------------
INTERNAL COORDINATES (ANGSTROEM)
--------------------------------
 C      0   0   0     0.000000000000     0.00000000     0.00000000
 C      1   0   0     1.506676617690     0.00000000     0.00000000
 C      2   1   0     1.349612217377   118.72091237     0.00000000
 C      3   2   1     1.509563943646   123.08823144   179.83906723
 C      4   3   2     1.505319461171   111.18957957   180.77108967
 C      5   4   3     1.348678707575   124.62910204    78.71784385
 C      6   5   4     1.512901701281   121.82477734     0.78647109
 C      6   5   4     1.485929503693   117.83714403   177.49337142
 C      8   6   5     1.333439079772   123.61915889   198.33631873
 C      2   1   3     1.510279886669   119.74918792   179.92761479
 H      1   2   3     1.110650853535   109.74356424    60.01847561
 H      1   2   3     1.109846010279   111.72455984   180.10711379
 H      1   2   3     1.110681408538   109.73327031   300.17159278
 H      3   2   1     1.088496500936   118.59672527     0.08898041
 H      4   3   2     1.110995105286   108.52615946    61.81298984
 H      4   3   2     1.111045512133   110.95574121   303.65010781
 H      5   4   3     1.084723895909   116.21738988   257.54480272
 H      7   6   5     1.109756412812   110.45244864   212.21077237
 H      7   6   5     1.109909094003   109.51198881    91.79555482
 H      7   6   5     1.108109858071   112.45420819   330.37789114
 H      8   6   5     1.084219146978   118.83013470    16.29232712
 H      9   8   6     1.081327042992   122.21480743     0.75774837
 H      9   8   6     1.082328575604   119.70034937   179.25414023
 H     10   2   1     1.110192053224   109.98054340   120.28265363
 H     10   2   1     1.109772037567   111.53578083     0.55738441
 H     10   2   1     1.110168225600   109.95284699   240.85137578

---------------------------
INTERNAL COORDINATES (A.U.)
---------------------------
 C      0   0   0     0.000000000000     0.00000000     0.00000000
 C      1   0   0     2.847206179817     0.00000000     0.00000000
 C      2   1   0     2.550397477836   118.72091237     0.00000000
 C      3   2   1     2.852662435134   123.08823144   179.83906723
 C      4   3   2     2.844641525674   111.18957957   180.77108967
 C      5   4   3     2.548633399968   124.62910204    78.71784385
 C      6   5   4     2.858969882964   121.82477734     0.78647109
 C      6   5   4     2.807999816294   117.83714403   177.49337142
 C      8   6   5     2.519834677038   123.61915889   198.33631873
 C      2   1   3     2.854015371375   119.74918792   179.92761479
 H      1   2   3     2.098825943587   109.74356424    60.01847561
 H      1   2   3     2.097305010253   111.72455984   180.10711379
 H      1   2   3     2.098883684175   109.73327031   300.17159278
 H      3   2   1     2.056960284500   118.59672527     0.08898041
 H      4   3   2     2.099476485117   108.52615946    61.81298984
 H      4   3   2     2.099571740253   110.95574121   303.65010781
 H      5   4   3     2.049831094187   116.21738988   257.54480272
 H      7   6   5     2.097135695577   110.45244864   212.21077237
 H      7   6   5     2.097424221214   109.51198881    91.79555482
 H      7   6   5     2.094024158053   112.45420819   330.37789114
 H      8   6   5     2.048877256942   118.83013470    16.29232712
 H      9   8   6     2.043411972458   122.21480743     0.75774837
 H      9   8   6     2.045304594809   119.70034937   179.25414023
 H     10   2   1     2.097958936649   109.98054340   120.28265363
 H     10   2   1     2.097165222085   111.53578083     0.55738441
 H     10   2   1     2.097913908965   109.95284699   240.85137578

---------------------
BASIS SET INFORMATION
---------------------
There are 2 groups of distinct atoms

 Group   1 Type C   : 6s6p2d contracted to 2s2p1d pattern {42/42/2}
 Group   2 Type H   : 8s2p contracted to 2s1p pattern {53/2}

Atom   0C    basis set group =>   1
Atom   1C    basis set group =>   1
Atom   2C    basis set group =>   1
Atom   3C    basis set group =>   1
Atom   4C    basis set group =>   1
Atom   5C    basis set group =>   1
Atom   6C    basis set group =>   1
Atom   7C    basis set group =>   1
Atom   8C    basis set group =>   1
Atom   9C    basis set group =>   1
Atom  10H    basis set group =>   2
Atom  11H    basis set group =>   2
Atom  12H    basis set group =>   2
Atom  13H    basis set group =>   2
Atom  14H    basis set group =>   2
Atom  15H    basis set group =>   2
Atom  16H    basis set group =>   2
Atom  17H    basis set group =>   2
Atom  18H    basis set group =>   2
Atom  19H    basis set group =>   2
Atom  20H    basis set group =>   2
Atom  21H    basis set group =>   2
Atom  22H    basis set group =>   2
Atom  23H    basis set group =>   2
Atom  24H    basis set group =>   2
Atom  25H    basis set group =>   2
---------------------------------
AUXILIARY/J BASIS SET INFORMATION
---------------------------------
There are 2 groups of distinct atoms

 Group   1 Type C   : 12s5p4d2f1g contracted to 6s4p3d1f1g pattern {711111/2111/211/2/1}
 Group   2 Type H   : 5s2p1d contracted to 3s1p1d pattern {311/2/1}

Atom   0C    basis set group =>   1
Atom   1C    basis set group =>   1
Atom   2C    basis set group =>   1
Atom   3C    basis set group =>   1
Atom   4C    basis set group =>   1
Atom   5C    basis set group =>   1
Atom   6C    basis set group =>   1
Atom   7C    basis set group =>   1
Atom   8C    basis set group =>   1
Atom   9C    basis set group =>   1
Atom  10H    basis set group =>   2
Atom  11H    basis set group =>   2
Atom  12H    basis set group =>   2
Atom  13H    basis set group =>   2
Atom  14H    basis set group =>   2
Atom  15H    basis set group =>   2
Atom  16H    basis set group =>   2
Atom  17H    basis set group =>   2
Atom  18H    basis set group =>   2
Atom  19H    basis set group =>   2
Atom  20H    basis set group =>   2
Atom  21H    basis set group =>   2
Atom  22H    basis set group =>   2
Atom  23H    basis set group =>   2
Atom  24H    basis set group =>   2
Atom  25H    basis set group =>   2
-------------------------
ECP PARAMETER INFORMATION
-------------------------

 Group 1, Type C  ECP vDZP-ECP (replacing 2 core electrons, lmax=3)

Atom   0C    ECP group =>   1
Atom   1C    ECP group =>   1
Atom   2C    ECP group =>   1
Atom   3C    ECP group =>   1
Atom   4C    ECP group =>   1
Atom   5C    ECP group =>   1
Atom   6C    ECP group =>   1
Atom   7C    ECP group =>   1
Atom   8C    ECP group =>   1
Atom   9C    ECP group =>   1



           ************************************************************
           *        Program running with 40 parallel MPI-processes    *
           *              working on a common directory               *
           ************************************************************
------------------------------------------------------------------------------
                             ORCA STARTUP CALCULATIONS
                           -- RI-GTO INTEGRALS CHOSEN --
------------------------------------------------------------------------------
------------------------------------------------------------------------------
                   ___                                                        
                  /   \      - P O W E R E D   B Y -                         
                 /     \                                                     
                 |  |  |   _    _      __       _____    __    __             
                 |  |  |  | |  | |    /  \     |  _  \  |  |  /  |          
                  \  \/   | |  | |   /    \    | | | |  |  | /  /          
                 / \  \   | |__| |  /  /\  \   | |_| |  |  |/  /          
                |  |  |   |  __  | /  /__\  \  |    /   |      \           
                |  |  |   | |  | | |   __   |  |    \   |  |\   \          
                \     /   | |  | | |  |  |  |  | |\  \  |  | \   \       
                 \___/    |_|  |_| |__|  |__|  |_| \__\ |__|  \__/        
                                                                              
                      - O R C A' S   B I G   F R I E N D -                    
                                      &                                       
                       - I N T E G R A L  F E E D E R -                       
                                                                              
 v1 FN, 2020, v2 2021, v3 2022-2024                                           
------------------------------------------------------------------------------


----------------------
SHARK INTEGRAL PACKAGE
----------------------

Number of atoms                             ...     26
Number of basis functions                   ...    210
Number of shells                            ...     98
Maximum angular momentum                    ...      2
Integral batch strategy                     ... SHARK/LIBINT Hybrid
RI-J (if used) integral strategy            ... SPLIT-RIJ (Revised 2003 algorithm where possible)
Printlevel                                  ...      1
Contraction scheme used                     ... SEGMENTED contraction
Prescreening option                         ... SCHWARTZ
   Thresh                                   ... 2.500e-11
   Tcut                                     ... 2.500e-12
   Tpresel                                  ... 2.500e-12 
Coulomb Range Separation                    ... NOT USED
Exchange Range Separation                   ... Long Range
   Mu parameter                             ... 3.000e-01
   Scaling (regular/separated)              ... 1.670e-01 8.330e-01
Multipole approximations                    ... NOT USED
Finite Nucleus Model                        ... NOT USED
CABS basis                                  ... NOT available
Auxiliary Coulomb fitting basis             ... AVAILABLE
   # of basis functions in Aux-J            ...    666
   # of shells in Aux-J                     ...    230
   Maximum angular momentum in Aux-J        ...      4
Auxiliary J/K fitting basis                 ... NOT available
Auxiliary Correlation fitting basis         ... NOT available
Auxiliary 'external' fitting basis          ... NOT available

Checking pre-screening integrals            ... done (  0.0 sec) Dimension = 98
Check shell pair data                       ... done (  0.0 sec)
Shell pair information
Shell pair cut-off parameter TPreSel        ...   2.5e-12
Total number of shell pairs                 ...      4851
Shell pairs after pre-screening             ...      4754
Total number of primitive shell pairs       ...     45524
Primitive shell pairs kept                  ...     34866
          la=0 lb=0:   1362 shell pairs
          la=1 lb=0:   1831 shell pairs
          la=1 lb=1:    638 shell pairs
          la=2 lb=0:    516 shell pairs
          la=2 lb=1:    352 shell pairs
          la=2 lb=2:     55 shell pairs

Calculating one electron integrals          ... done (  0.0 sec)
Calculating ECP integrals                   ... done (  0.1 sec)
Calculating RI/J V-Matrix + Cholesky decomp.... done (  0.0 sec)
Calculating Nuclear repulsion               ... done (  0.0 sec) ENN=    265.479596192767 Eh

Diagonalization of the overlap matrix:
Smallest eigenvalue                        ... 1.049e-03
Time for diagonalization                   ...    0.006 sec
Threshold for overlap eigenvalues          ... 1.000e-07
Number of eigenvalues below threshold      ... 0
Time for construction of square roots      ...    0.004 sec
Total time needed                          ...    0.014 sec

-------------------
DFT GRID GENERATION
-------------------

General Integration Accuracy     IntAcc      ... 4.388
Radial Grid Type                 RadialGrid  ... OptM3 with GC (2021)
Angular Grid (max. ang.)         AngularGrid ... 4 (Lebedev-302)
Angular grid pruning method      GridPruning ... 4 (adaptive)
Weight generation scheme         WeightScheme... mBecke (2022)
Basis function cutoff            BFCut       ... 1.0000e-11
Integration weight cutoff        WCut        ... 1.0000e-14
Partially contracted basis set               ... off
Rotationally invariant grid construction     ... off
Angular grids for H and He will be reduced by one unit

Total number of grid points                  ...   111327
Total number of batches                      ...     1751
Average number of points per batch           ...       63
Average number of grid points per atom       ...     4282

--------------------
COSX GRID GENERATION
--------------------

GRIDX 1
-------
General Integration Accuracy     IntAcc      ... 3.816
Radial Grid Type                 RadialGrid  ... OptM3 with GC (2021)
Angular Grid (max. ang.)         AngularGrid ... 1 (Lebedev-50)
Angular grid pruning method      GridPruning ... 4 (adaptive)
Weight generation scheme         WeightScheme... mBecke (2022)
Basis function cutoff            BFCut       ... 1.0000e-11
Integration weight cutoff        WCut        ... 1.0000e-14
Partially contracted basis set               ... on
Rotationally invariant grid construction     ... off
Angular grids for H and He will be reduced by one unit

Total number of grid points                  ...    14270
Total number of batches                      ...      128
Average number of points per batch           ...      111
Average number of grid points per atom       ...      549
UseSFitting                                  ... on

GRIDX 2
-------
General Integration Accuracy     IntAcc      ... 4.020
Radial Grid Type                 RadialGrid  ... OptM3 with GC (2021)
Angular Grid (max. ang.)         AngularGrid ... 2 (Lebedev-110)
Angular grid pruning method      GridPruning ... 4 (adaptive)
Weight generation scheme         WeightScheme... mBecke (2022)
Basis function cutoff            BFCut       ... 1.0000e-11
Integration weight cutoff        WCut        ... 1.0000e-14
Partially contracted basis set               ... on
Rotationally invariant grid construction     ... off
Angular grids for H and He will be reduced by one unit

Total number of grid points                  ...    29845
Total number of batches                      ...      245
Average number of points per batch           ...      121
Average number of grid points per atom       ...     1148
UseSFitting                                  ... on

GRIDX 3
-------
General Integration Accuracy     IntAcc      ... 4.338
Radial Grid Type                 RadialGrid  ... OptM3 with GC (2021)
Angular Grid (max. ang.)         AngularGrid ... 3 (Lebedev-194)
Angular grid pruning method      GridPruning ... 4 (adaptive)
Weight generation scheme         WeightScheme... mBecke (2022)
Basis function cutoff            BFCut       ... 1.0000e-11
Integration weight cutoff        WCut        ... 1.0000e-14
Partially contracted basis set               ... on
Rotationally invariant grid construction     ... off
Angular grids for H and He will be reduced by one unit

Total number of grid points                  ...    65110
Total number of batches                      ...      524
Average number of points per batch           ...      124
Average number of grid points per atom       ...     2504
UseSFitting                                  ... on
Initializing property integral containers    ... done (  0.1 sec)

SHARK setup successfully completed in   3.1 seconds

Maximum memory used throughout the entire STARTUP-calculation: 31.3 MB


           ************************************************************
           *        Program running with 40 parallel MPI-processes    *
           *              working on a common directory               *
           ************************************************************
-------------------------------------------------------------------------------
                                 ORCA GUESS
                   Start orbitals & Density for SCF / CASSCF
-------------------------------------------------------------------------------

------------
SCF SETTINGS
------------
Hamiltonian:
 Density Functional     Method          .... DFT(GTOs)
 Exchange Functional    Exchange        .... WB97X-V
 Correlation Functional Correlation     .... WB97X-V
 Gradients option       PostSCFGGA      .... off
 Hybrid DFT is turned on
   Fraction HF Exchange ScalHFX         ....  0.167000
   Scaling of DF-GGA-X  ScalDFX         ....  0.000000
   Scaling of DF-GGA-C  ScalDFC         ....  1.000000
   Scaling of DF-LDA-C  ScalLDAC        ....  1.000000
   Perturbative correction              ....  0.000000
 Long-range corrected/Screened/Range-Separated Hybrid DFT is turned on
   Amount of maximum screened exact exchange              ....  0.833000
   Range separation parameter mu (erf(mu*r12)/r12)        ....  0.300000
   NL short-range parameter             ....  6.000000
   NL long-range parameter              ....  0.010000
 RI-approximation to the Coulomb term is turned on
   Number of AuxJ basis functions       .... 666
   RIJ-COSX (HFX calculated with COS-X)).... on


General Settings:
 Integral files         IntName         .... ./output/_e_beta_ocimene/_e_beta_ocimene
 Hartree-Fock type      HFTyp           .... RHF
 Total Charge           Charge          ....    0
 Multiplicity           Mult            ....    1
 Number of Electrons    NEL             ....   56
 Basis Dimension        Dim             ....  210
 Nuclear Repulsion      ENuc            ....    265.4795961928 Eh

Convergence Acceleration:
 AO-DIIS                CNVDIIS         .... on
   Start iteration      DIISMaxIt       ....    12
   Startup error        DIISStart       ....  0.200000
   # of expansion vecs  DIISMaxEq       ....     5
   Bias factor          DIISBfac        ....   1.050
   Max. coefficient     DIISMaxC        ....  10.000
 MO-DIIS                CNVKDIIS        .... off
 Trust-Rad. Augm. Hess. CNVTRAH         .... auto
   Auto Start mean grad. ratio tolernc. ....  1.125000
   Auto Start start iteration           ....    50
   Auto Start num. interpolation iter.  ....    10
   Max. Number of Micro iterations      ....    24
   Max. Number of Macro iterations      .... Maxiter - #DIIS iter
   Number of Davidson start vectors     ....     2
   Converg. threshold    (grad. norm)   ....   1.000e-05
   Grad. Scal. Fac. for Micro threshold ....   0.100
   Minimum threshold for Micro iter.    ....   1.000e-02
   NR start threshold (gradient norm)   ....   1.000e-04
   Initial trust radius                 ....   0.400
   Minimum AH scaling param. (alpha)    ....   1.000
   Maximum AH scaling param. (alpha)    .... 1000.000
   Quad. conv. algorithm                .... NR
   White noise on init. David. guess    .... on
   Maximum white noise                  ....   0.010
   Pseudo random numbers                .... off
   Inactive MOs                         .... canonical
   Orbital update algorithm             .... Taylor
   Preconditioner                       .... Diag
   Full preconditioner red. dimension   ....   250
 SOSCF                  CNVSOSCF        .... on
   Start iteration      SOSCFMaxIt      ....   150
   Startup grad/error   SOSCFStart      ....  0.003300
   Hessian update       SOSCFHessUp     .... L-BFGS
 Level Shifting         CNVShift        .... on
   Level shift para.    LevelShift      ....    0.2500
   Turn off err/grad.   ShiftErr        ....    0.0010
 Zerner damping         CNVZerner       .... off
 Static damping         CNVDamp         .... on
   Fraction old density DampFac         ....    0.7000
   Max. Damping (<1)    DampMax         ....    0.9800
   Min. Damping (>=0)   DampMin         ....    0.0000
   Turn off err/grad.   DampErr         ....    0.1000

SCF Procedure:
 Maximum # iterations   MaxIter         ....   125
 SCF integral mode      SCFMode         .... Direct
   Integral package                     .... SHARK and LIBINT hybrid scheme
 Reset frequency        DirectResetFreq ....    20
 Integral Threshold     Thresh          ....  2.500e-11 Eh
 Primitive CutOff       TCut            ....  2.500e-12 Eh

Convergence Tolerance:
 Convergence Check Mode ConvCheckMode   .... Total+1el-Energy
 Convergence forced     ConvForced      .... 0
 Energy Change          TolE            ....  1.000e-08 Eh
 1-El. energy change                    ....  1.000e-05 Eh
 Orbital Gradient       TolG            ....  1.000e-05
 Orbital Rotation angle TolX            ....  1.000e-05
 DIIS Error             TolErr          ....  5.000e-07

------------------------------
INITIAL GUESS: MODEL POTENTIAL
------------------------------
Loading Hartree-Fock densities                     ... done
Atomic calculation to generate a density for atom 0 (C  with ECP)
  Multiplicity assumed   :    1
  Atomic configuration   : 1s2 2s2 2p2 
  Number of open shells  : 1
  Command: /home/aspe232/Project/Software/ORCA/6_0_1/build/orca ./output/_e_beta_ocimene/_e_beta_ocimene_atom6.inp "" > ./output/_e_beta_ocimene/_e_beta_ocimene_atom6.out
Returned from the atomic calculation with res=0
Calculating cut-offs                               ... done
Initializing the effective Hamiltonian             ... done
Setting up the integral package (SHARK)            ... done
Starting the Coulomb interaction                   ... done (   0.0 sec)
Making the grid                                    ... done (   0.8 sec)
Mapping shells                                     ... done
Starting the XC term evaluation                    ... done (   0.0 sec)
  promolecular density results
     # of electrons  =     75.993861143
     EX              =    -36.859028174
     EC              =     -3.002531037
     EX+EC           =    -39.861559211
Transforming the Hamiltonian                       ... done (   0.0 sec)
Diagonalizing the Hamiltonian                      ... done (   0.0 sec)
Back transforming the eigenvectors                 ... done (   0.0 sec)
Now organizing SCF variables                       ... done
                      ------------------
                      INITIAL GUESS DONE (   1.7 sec)
                      ------------------
             **** ENERGY FILE WAS UPDATED (./output/_e_beta_ocimene/_e_beta_ocimene.en.tmp) ****
Finished Guess after   2.2 sec
Maximum memory used throughout the entire GUESS-calculation: 19.4 MB


           ************************************************************
           *        Program running with 40 parallel MPI-processes    *
           *              working on a common directory               *
           ************************************************************

-------------------------------------------------------------------------------------------
                                      ORCA LEAN-SCF
                              memory conserving SCF solver
-------------------------------------------------------------------------------------------

----------------------------------------D-I-I-S--------------------------------------------
Iteration    Energy (Eh)           Delta-E    RMSDP     MaxDP     DIISErr   Damp  Time(sec)
-------------------------------------------------------------------------------------------
               ***  Starting incremental Fock matrix formation  ***
    1    -66.0876238305955326     0.00e+00  4.15e-03  7.16e-02  1.74e-01  0.700   4.0
    2    -66.2620717514524813    -1.74e-01  3.06e-03  5.26e-02  1.08e-01  0.700   3.0
                               ***Turning on AO-DIIS***
    3    -66.3568641281948430    -9.48e-02  1.57e-03  2.71e-02  5.83e-02  0.700   3.2
    4    -66.4129030245046010    -5.60e-02  3.33e-03  5.53e-02  3.75e-02  0.000   3.0
    5    -66.5297875843862130    -1.17e-01  2.31e-04  3.64e-03  4.04e-03  0.000   3.1
                              *** Initializing SOSCF ***
---------------------------------------S-O-S-C-F--------------------------------------
Iteration    Energy (Eh)           Delta-E    RMSDP     MaxDP     MaxGrad    Time(sec)
--------------------------------------------------------------------------------------
    6    -66.5300635306787171    -2.76e-04  1.11e-04  1.70e-03  1.07e-03     3.2
               *** Restarting incremental Fock matrix formation ***
    7    -66.5300723987933225    -8.87e-06  6.59e-05  1.19e-03  7.34e-04     3.8
    8    -66.5300837122035205    -1.13e-05  4.15e-05  7.18e-04  3.28e-04     3.5
    9    -66.5300873693033168    -3.66e-06  1.02e-05  1.53e-04  6.13e-05     3.5
   10    -66.5300875775304235    -2.08e-07  3.45e-06  7.96e-05  2.01e-05     3.4
   11    -66.5300876038891715    -2.64e-08  1.09e-06  2.12e-05  9.61e-06     3.3
   12    -66.5300876206528642    -1.68e-08  3.57e-07  1.22e-05  4.07e-06     3.0
   13    -66.5300876249735325    -4.32e-09  1.80e-07  4.44e-06  1.16e-06     2.9
                 **** Energy Check signals convergence ****

               *****************************************************
               *                     SUCCESS                       *
               *           SCF CONVERGED AFTER  13 CYCLES          *
               *****************************************************

Recomputing exchange energy using gridx3       ... done (    3.203 sec)
Old exchange energy                            :    -10.562061634 Eh
New exchange energy                            :    -10.562027795 Eh
Exchange energy change after final integration :      0.000033839 Eh
Total energy after final integration           :    -66.530053786 Eh
             **** ENERGY FILE WAS UPDATED (./output/_e_beta_ocimene/_e_beta_ocimene.en.tmp) ****

----------------
TOTAL SCF ENERGY
----------------

Total Energy       :        -66.53005378602747 Eh           -1810.37480 eV

Components:
Nuclear Repulsion  :        265.47959619276656 Eh            7224.06708 eV
Electronic Energy  :       -332.00968381774010 Eh           -9034.44280 eV
One Electron Energy:       -623.32018897899968 Eh          -16961.40464 eV
Two Electron Energy:        291.31050516125958 Eh            7926.96184 eV

Virial components:
Potential Energy   :       -118.33270544640543 Eh           -3219.99662 eV
Kinetic Energy     :         51.80265166037796 Eh            1409.62182 eV
Virial Ratio       :          2.28429822902124

DFT components:
N(Alpha)           :       27.999966409368 electrons
N(Beta)            :       27.999966409368 electrons
N(Total)           :       55.999932818736 electrons
E(X)               :      -10.674695562750 Eh       
E(C)               :       -2.061096302775 Eh       
E(XC)              :      -12.735791865525 Eh       

---------------
SCF CONVERGENCE
---------------

  Last Energy change         ...    4.3207e-09  Tolerance :   1.0000e-08
  Last MAX-Density change    ...    4.4394e-06  Tolerance :   1.0000e-07
  Last RMS-Density change    ...    1.8039e-07  Tolerance :   5.0000e-09
  Last DIIS Error            ...    1.0701e-03  Tolerance :   5.0000e-07
  Last Orbital Gradient      ...    1.1588e-06  Tolerance :   1.0000e-05
  Last Orbital Rotation      ...    1.6802e-06  Tolerance :   1.0000e-05


----------------
ORBITAL ENERGIES
----------------

  NO   OCC          E(Eh)            E(eV) 
   0   2.0000      -0.970394       -26.4058 
   1   2.0000      -0.948051       -25.7978 
   2   2.0000      -0.898505       -24.4496 
   3   2.0000      -0.855466       -23.2784 
   4   2.0000      -0.826519       -22.4907 
   5   2.0000      -0.813637       -22.1402 
   6   2.0000      -0.764127       -20.7930 
   7   2.0000      -0.693282       -18.8652 
   8   2.0000      -0.639905       -17.4127 
   9   2.0000      -0.635028       -17.2800 
  10   2.0000      -0.605195       -16.4682 
  11   2.0000      -0.573964       -15.6183 
  12   2.0000      -0.555184       -15.1073 
  13   2.0000      -0.548505       -14.9256 
  14   2.0000      -0.533006       -14.5038 
  15   2.0000      -0.529119       -14.3981 
  16   2.0000      -0.521566       -14.1925 
  17   2.0000      -0.504170       -13.7192 
  18   2.0000      -0.491051       -13.3622 
  19   2.0000      -0.482847       -13.1389 
  20   2.0000      -0.474497       -12.9117 
  21   2.0000      -0.463758       -12.6195 
  22   2.0000      -0.462044       -12.5728 
  23   2.0000      -0.438296       -11.9266 
  24   2.0000      -0.432288       -11.7631 
  25   2.0000      -0.405377       -11.0309 
  26   2.0000      -0.325805        -8.8656 
  27   2.0000      -0.314928        -8.5696 
  28   0.0000       0.056869         1.5475 
  29   0.0000       0.080596         2.1931 
  30   0.0000       0.085863         2.3365 
  31   0.0000       0.096868         2.6359 
  32   0.0000       0.104248         2.8367 
  33   0.0000       0.105428         2.8688 
  34   0.0000       0.118812         3.2330 
  35   0.0000       0.125779         3.4226 
  36   0.0000       0.132092         3.5944 
  37   0.0000       0.140976         3.8362 
  38   0.0000       0.152216         4.1420 
*Only the first 10 virtual orbitals were printed.

                    ********************************
                    * MULLIKEN POPULATION ANALYSIS *
                    ********************************

-----------------------
MULLIKEN ATOMIC CHARGES
-----------------------
   0 C :   -0.093804
   1 C :   -0.083365
   2 C :   -0.020735
   3 C :   -0.117321
   4 C :   -0.002912
   5 C :   -0.067373
   6 C :   -0.104269
   7 C :   -0.019718
   8 C :   -0.046854
   9 C :   -0.095124
  10 H :    0.055725
  11 H :    0.033588
  12 H :    0.053111
  13 H :    0.023968
  14 H :    0.056190
  15 H :    0.052728
  16 H :    0.015265
  17 H :    0.053163
  18 H :    0.059914
  19 H :    0.048878
  20 H :    0.012352
  21 H :    0.020501
  22 H :    0.026756
  23 H :    0.051139
  24 H :    0.035980
  25 H :    0.052218
Sum of atomic charges:   -0.0000000

--------------------------------
MULLIKEN REDUCED ORBITAL CHARGES
--------------------------------
  0 C s       :     0.959605  s :     0.959605
      pz      :     1.052162  p :     3.060462
      px      :     0.995477
      py      :     1.012822
      dz2     :     0.015157  d :     0.073737
      dxz     :     0.015282
      dyz     :     0.009221
      dx2y2   :     0.019000
      dxy     :     0.015078

  1 C s       :     1.107243  s :     1.107243
      pz      :     0.953642  p :     2.857949
      px      :     0.969004
      py      :     0.935302
      dz2     :     0.017693  d :     0.118174
      dxz     :     0.022838
      dyz     :     0.015618
      dx2y2   :     0.029750
      dxy     :     0.032275

  2 C s       :     1.030950  s :     1.030950
      pz      :     1.006596  p :     2.899326
      px      :     0.919683
      py      :     0.973046
      dz2     :     0.009319  d :     0.090459
      dxz     :     0.018476
      dyz     :     0.012128
      dx2y2   :     0.027094
      dxy     :     0.023443

  3 C s       :     0.984069  s :     0.984069
      pz      :     1.045016  p :     3.031689
      px      :     0.960136
      py      :     1.026538
      dz2     :     0.020874  d :     0.101563
      dxz     :     0.019570
      dyz     :     0.014881
      dx2y2   :     0.025560
      dxy     :     0.020678

  4 C s       :     1.037011  s :     1.037011
      pz      :     0.967472  p :     2.872483
      px      :     0.938385
      py      :     0.966626
      dz2     :     0.020184  d :     0.093419
      dxz     :     0.015748
      dyz     :     0.016969
      dx2y2   :     0.023979
      dxy     :     0.016538

  5 C s       :     1.063506  s :     1.063506
      pz      :     0.957422  p :     2.883719
      px      :     0.961997
      py      :     0.964300
      dz2     :     0.025593  d :     0.120148
      dxz     :     0.027354
      dyz     :     0.023041
      dx2y2   :     0.027374
      dxy     :     0.016785

  6 C s       :     0.951875  s :     0.951875
      pz      :     0.977274  p :     3.079678
      px      :     1.055235
      py      :     1.047169
      dz2     :     0.018280  d :     0.072715
      dxz     :     0.016227
      dyz     :     0.013456
      dx2y2   :     0.018126
      dxy     :     0.006627

  7 C s       :     1.024701  s :     1.024701
      pz      :     0.970740  p :     2.896595
      px      :     0.966612
      py      :     0.959243
      dz2     :     0.024099  d :     0.098421
      dxz     :     0.020573
      dyz     :     0.012782
      dx2y2   :     0.026342
      dxy     :     0.014624

  8 C s       :     0.997717  s :     0.997717
      pz      :     0.997170  p :     2.983437
      px      :     0.993318
      py      :     0.992949
      dz2     :     0.016582  d :     0.065701
      dxz     :     0.017623
      dyz     :     0.009042
      dx2y2   :     0.014443
      dxy     :     0.008011

  9 C s       :     0.957731  s :     0.957731
      pz      :     1.023679  p :     3.064209
      px      :     1.050655
      py      :     0.989875
      dz2     :     0.010960  d :     0.073184
      dxz     :     0.016164
      dyz     :     0.017830
      dx2y2   :     0.020141
      dxy     :     0.008089

 10 H s       :     0.900188  s :     0.900188
      pz      :     0.022926  p :     0.044088
      px      :     0.010654
      py      :     0.010507

 11 H s       :     0.922231  s :     0.922231
      pz      :     0.013159  p :     0.044182
      px      :     0.019587
      py      :     0.011435

 12 H s       :     0.902889  s :     0.902889
      pz      :     0.012065  p :     0.044000
      px      :     0.010549
      py      :     0.021386

 13 H s       :     0.927353  s :     0.927353
      pz      :     0.017326  p :     0.048678
      px      :     0.009425
      py      :     0.021927

 14 H s       :     0.900571  s :     0.900571
      pz      :     0.011780  p :     0.043239
      px      :     0.010868
      py      :     0.020591

 15 H s       :     0.903632  s :     0.903632
      pz      :     0.022938  p :     0.043640
      px      :     0.010813
      py      :     0.009889

 16 H s       :     0.935757  s :     0.935757
      pz      :     0.022481  p :     0.048978
      px      :     0.012741
      py      :     0.013756

 17 H s       :     0.902087  s :     0.902087
      pz      :     0.010047  p :     0.044750
      px      :     0.011447
      py      :     0.023256

 18 H s       :     0.896135  s :     0.896135
      pz      :     0.016825  p :     0.043951
      px      :     0.014193
      py      :     0.012933

 19 H s       :     0.904969  s :     0.904969
      pz      :     0.011223  p :     0.046153
      px      :     0.024200
      py      :     0.010729

 20 H s       :     0.939062  s :     0.939062
      pz      :     0.024705  p :     0.048586
      px      :     0.010694
      py      :     0.013186

 21 H s       :     0.927261  s :     0.927261
      pz      :     0.025675  p :     0.052238
      px      :     0.011687
      py      :     0.014876

 22 H s       :     0.923013  s :     0.923013
      pz      :     0.015886  p :     0.050231
      px      :     0.019851
      py      :     0.014494

 23 H s       :     0.904379  s :     0.904379
      pz      :     0.014347  p :     0.044482
      px      :     0.010783
      py      :     0.019353

 24 H s       :     0.919766  s :     0.919766
      pz      :     0.011990  p :     0.044254
      px      :     0.021920
      py      :     0.010345

 25 H s       :     0.903301  s :     0.903301
      pz      :     0.018859  p :     0.044481
      px      :     0.015253
      py      :     0.010369



                     *******************************
                     * LOEWDIN POPULATION ANALYSIS *
                     *******************************

----------------------
LOEWDIN ATOMIC CHARGES
----------------------
   0 C :   -0.119955
   1 C :   -0.054573
   2 C :   -0.058436
   3 C :   -0.100205
   4 C :   -0.034989
   5 C :   -0.052910
   6 C :   -0.110001
   7 C :   -0.049607
   8 C :   -0.078225
   9 C :   -0.116012
  10 H :    0.055051
  11 H :    0.047720
  12 H :    0.054305
  13 H :    0.038422
  14 H :    0.055926
  15 H :    0.053328
  16 H :    0.036571
  17 H :    0.053866
  18 H :    0.053587
  19 H :    0.055183
  20 H :    0.047458
  21 H :    0.031250
  22 H :    0.034911
  23 H :    0.053790
  24 H :    0.050295
  25 H :    0.053250

-------------------------------
LOEWDIN REDUCED ORBITAL CHARGES
-------------------------------
  0 C s       :     0.778250  s :     0.778250
      pz      :     1.065538  p :     3.103827
      px      :     1.006794
      py      :     1.031495
      dz2     :     0.049968  d :     0.237877
      dxz     :     0.047925
      dyz     :     0.029615
      dx2y2   :     0.064059
      dxy     :     0.046310

  1 C s       :     0.801626  s :     0.801626
      pz      :     0.914707  p :     2.876980
      px      :     1.016571
      py      :     0.945702
      dz2     :     0.054118  d :     0.375967
      dxz     :     0.072420
      dyz     :     0.052373
      dx2y2   :     0.097188
      dxy     :     0.099868

  2 C s       :     0.806021  s :     0.806021
      pz      :     0.966227  p :     2.954241
      px      :     0.992931
      py      :     0.995084
      dz2     :     0.026511  d :     0.298173
      dxz     :     0.061349
      dyz     :     0.042637
      dx2y2   :     0.095177
      dxy     :     0.072499

  3 C s       :     0.757461  s :     0.757461
      pz      :     1.042824  p :     3.026703
      px      :     0.961876
      py      :     1.022003
      dz2     :     0.070417  d :     0.316041
      dxz     :     0.058753
      dyz     :     0.045076
      dx2y2   :     0.078577
      dxy     :     0.063218

  4 C s       :     0.806546  s :     0.806546
      pz      :     1.006648  p :     2.925399
      px      :     0.946837
      py      :     0.971914
      dz2     :     0.066902  d :     0.303044
      dxz     :     0.047312
      dyz     :     0.059273
      dx2y2   :     0.068492
      dxy     :     0.061066

  5 C s       :     0.795484  s :     0.795484
      pz      :     0.959922  p :     2.883864
      px      :     0.954026
      py      :     0.969915
      dz2     :     0.081571  d :     0.373562
      dxz     :     0.083473
      dyz     :     0.075627
      dx2y2   :     0.074019
      dxy     :     0.058873

  6 C s       :     0.774191  s :     0.774191
      pz      :     0.989823  p :     3.102998
      px      :     1.063276
      py      :     1.049899
      dz2     :     0.056768  d :     0.232812
      dxz     :     0.053549
      dyz     :     0.042664
      dx2y2   :     0.060425
      dxy     :     0.019407

  7 C s       :     0.808978  s :     0.808978
      pz      :     1.026308  p :     2.929074
      px      :     0.984565
      py      :     0.918201
      dz2     :     0.081219  d :     0.311555
      dxz     :     0.065491
      dyz     :     0.041159
      dx2y2   :     0.071406
      dxy     :     0.052280

  8 C s       :     0.829640  s :     0.829640
      pz      :     1.053601  p :     3.031286
      px      :     1.024941
      py      :     0.952743
      dz2     :     0.056791  d :     0.217299
      dxz     :     0.059278
      dyz     :     0.033996
      dx2y2   :     0.037578
      dxy     :     0.029655

  9 C s       :     0.777523  s :     0.777523
      pz      :     1.037927  p :     3.103218
      px      :     1.060798
      py      :     1.004494
      dz2     :     0.032941  d :     0.235271
      dxz     :     0.054089
      dyz     :     0.057322
      dx2y2   :     0.065009
      dxy     :     0.025911

 10 H s       :     0.798076  s :     0.798076
      pz      :     0.065297  p :     0.146872
      px      :     0.040360
      py      :     0.041216

 11 H s       :     0.806932  s :     0.806932
      pz      :     0.046815  p :     0.145348
      px      :     0.056781
      py      :     0.041752

 12 H s       :     0.798773  s :     0.798773
      pz      :     0.044046  p :     0.146922
      px      :     0.040116
      py      :     0.062760

 13 H s       :     0.807604  s :     0.807604
      pz      :     0.054488  p :     0.153974
      px      :     0.033508
      py      :     0.065978

 14 H s       :     0.796772  s :     0.796772
      pz      :     0.043577  p :     0.147302
      px      :     0.039680
      py      :     0.064045

 15 H s       :     0.798595  s :     0.798595
      pz      :     0.067887  p :     0.148077
      px      :     0.039241
      py      :     0.040949

 16 H s       :     0.808798  s :     0.808798
      pz      :     0.067285  p :     0.154631
      px      :     0.043149
      py      :     0.044196

 17 H s       :     0.798596  s :     0.798596
      pz      :     0.038327  p :     0.147539
      px      :     0.043749
      py      :     0.065463

 18 H s       :     0.797980  s :     0.797980
      pz      :     0.054092  p :     0.148433
      px      :     0.048652
      py      :     0.045688

 19 H s       :     0.795442  s :     0.795442
      pz      :     0.039786  p :     0.149375
      px      :     0.067771
      py      :     0.041818

 20 H s       :     0.804716  s :     0.804716
      pz      :     0.069509  p :     0.147826
      px      :     0.036502
      py      :     0.041816

 21 H s       :     0.813431  s :     0.813431
      pz      :     0.069667  p :     0.155319
      px      :     0.039583
      py      :     0.046069

 22 H s       :     0.811293  s :     0.811293
      pz      :     0.050417  p :     0.153796
      px      :     0.056945
      py      :     0.046435

 23 H s       :     0.798423  s :     0.798423
      pz      :     0.047743  p :     0.147787
      px      :     0.042041
      py      :     0.058002

 24 H s       :     0.804528  s :     0.804528
      pz      :     0.043145  p :     0.145177
      px      :     0.063687
      py      :     0.038345

 25 H s       :     0.798663  s :     0.798663
      pz      :     0.056430  p :     0.148088
      px      :     0.051354
      py      :     0.040303



                      *****************************
                      * MAYER POPULATION ANALYSIS *
                      *****************************

  NA   - Mulliken gross atomic population
  ZA   - Total nuclear charge
  QA   - Mulliken gross atomic charge
  VA   - Mayer's total valence
  BVA  - Mayer's bonded valence
  FA   - Mayer's free valence

  ATOM       NA         ZA         QA         VA         BVA        FA
  0 C      4.0938     4.0000    -0.0938     3.9719     3.9719     0.0000
  1 C      4.0834     4.0000    -0.0834     4.0672     4.0672     0.0000
  2 C      4.0207     4.0000    -0.0207     3.9687     3.9687     0.0000
  3 C      4.1173     4.0000    -0.1173     4.0377     4.0377    -0.0000
  4 C      4.0029     4.0000    -0.0029     3.9762     3.9762    -0.0000
  5 C      4.0674     4.0000    -0.0674     4.1182     4.1182    -0.0000
  6 C      4.1043     4.0000    -0.1043     3.9911     3.9911    -0.0000
  7 C      4.0197     4.0000    -0.0197     4.1002     4.1002    -0.0000
  8 C      4.0469     4.0000    -0.0469     3.9841     3.9841     0.0000
  9 C      4.0951     4.0000    -0.0951     3.9852     3.9852    -0.0000
 10 H      0.9443     1.0000     0.0557     1.0221     1.0221     0.0000
 11 H      0.9664     1.0000     0.0336     1.0305     1.0305    -0.0000
 12 H      0.9469     1.0000     0.0531     1.0218     1.0218    -0.0000
 13 H      0.9760     1.0000     0.0240     1.0356     1.0356     0.0000
 14 H      0.9438     1.0000     0.0562     1.0066     1.0066    -0.0000
 15 H      0.9473     1.0000     0.0527     1.0068     1.0068    -0.0000
 16 H      0.9847     1.0000     0.0153     1.0397     1.0397     0.0000
 17 H      0.9468     1.0000     0.0532     1.0239     1.0239    -0.0000
 18 H      0.9401     1.0000     0.0599     1.0135     1.0135    -0.0000
 19 H      0.9511     1.0000     0.0489     1.0253     1.0253    -0.0000
 20 H      0.9876     1.0000     0.0124     1.0490     1.0490    -0.0000
 21 H      0.9795     1.0000     0.0205     1.0433     1.0433     0.0000
 22 H      0.9732     1.0000     0.0268     1.0386     1.0386    -0.0000
 23 H      0.9489     1.0000     0.0511     1.0229     1.0229    -0.0000
 24 H      0.9640     1.0000     0.0360     1.0304     1.0304    -0.0000
 25 H      0.9478     1.0000     0.0522     1.0219     1.0219    -0.0000

  Mayer bond orders larger than 0.100000
B(  0-C ,  1-C ) :   1.0139 B(  0-C , 10-H ) :   0.9856 B(  0-C , 11-H ) :   0.9946 
B(  0-C , 12-H ) :   0.9853 B(  1-C ,  2-C ) :   1.9079 B(  1-C ,  9-C ) :   1.0205 
B(  2-C ,  3-C ) :   1.0066 B(  2-C , 13-H ) :   0.9912 B(  3-C ,  4-C ) :   1.0266 
B(  3-C , 14-H ) :   0.9870 B(  3-C , 15-H ) :   0.9788 B(  4-C ,  5-C ) :   1.8304 
B(  4-C , 16-H ) :   0.9987 B(  5-C ,  6-C ) :   1.0268 B(  5-C ,  7-C ) :   1.1287 
B(  6-C , 17-H ) :   0.9869 B(  6-C , 18-H ) :   0.9759 B(  6-C , 19-H ) :   0.9896 
B(  7-C ,  8-C ) :   1.8763 B(  7-C , 20-H ) :   0.9988 B(  8-C , 21-H ) :   0.9990 
B(  8-C , 22-H ) :   0.9946 B(  9-C , 23-H ) :   0.9820 B(  9-C , 24-H ) :   0.9945 
B(  9-C , 25-H ) :   0.9811 

-------
TIMINGS
-------

Total SCF time: 0 days 0 hours 0 min 50 sec 

Total time                  ....      50.585 sec
Sum of individual times     ....      48.332 sec  ( 95.5%)

SCF preparation             ....       2.282 sec  (  4.5%)
Fock matrix formation       ....      44.756 sec  ( 88.5%)
  Startup                   ....       0.220 sec  (  0.5% of F)
  Split-RI-J                ....       1.372 sec  (  3.1% of F)
  Chain of spheres X        ....      19.600 sec  ( 43.8% of F)
  XC integration            ....      22.927 sec  ( 51.2% of F)
    XC Preparation          ....       0.000 sec  (  0.0% of XC)
    Basis function eval.    ....       0.525 sec  (  2.3% of XC)
    Density eval.           ....       0.212 sec  (  0.9% of XC)
    XC-Functional eval.     ....       0.175 sec  (  0.8% of XC)
    XC-Potential eval.      ....       0.264 sec  (  1.2% of XC)
Diagonalization             ....       0.000 sec  (  0.0%)
Density matrix formation    ....       0.252 sec  (  0.5%)
Total Energy calculation    ....       0.284 sec  (  0.6%)
Population analysis         ....       0.052 sec  (  0.1%)
Orbital Transformation      ....       0.076 sec  (  0.2%)
Orbital Orthonormalization  ....       0.000 sec  (  0.0%)
DIIS solution               ....       0.413 sec  (  0.8%)
SOSCF solution              ....       0.216 sec  (  0.4%)
Finished LeanSCF after  50.6 sec

Maximum memory used throughout the entire LEANSCF-calculation: 38.0 MB


           ************************************************************
           *        Program running with 40 parallel MPI-processes    *
           *              working on a common directory               *
           ************************************************************

------------------------------------------------------------------------------
                         ORCA PROPERTY INTEGRAL CALCULATIONS
------------------------------------------------------------------------------

GBWName                                   ... ./output/_e_beta_ocimene/_e_beta_ocimene.gbw
Number of atoms                           ...     26
Number of basis functions                 ...    210
Max core memory                           ...   1024 MB

Dipole integrals                          ... YES
Quadrupole integrals                      ...  NO
Linear momentum integrals                 ...  NO
Angular momentum integrals                ...  NO
Higher moments length integrals           ...  NO
Higher moments velocity integrals         ...  NO
Kinetic energy integrals                  ...  NO
GIAO right hand sides                     ...  NO
GIAO dipole derivative integrals          ...  NO
SOC integrals                             ...  NO
EPR diamagnetic integrals (GIAO)          ...  NO
EPR gauge integrals                       ...  NO
Field gradient integrals                  ...  NO (   0 nuclei)
Spin-dipole/Fermi contact integrals       ...  NO (   0 nuclei)
Contact density integrals                 ...  NO (   0 nuclei)
Nucleus-orbit integrals                   ...  NO (   0 nuclei)
Geometric perturbations                   ...  NO (  26 nuclei)

Choice of electric origin   ... Center of mass
Position of electric origin ... (  0.3321, -0.0237,  0.3823) 
Choice of magnetic origin   ... GIAO
Position of magnetic origin ... (  0.0000,  0.0000,  0.0000) 

Calculating integrals                     ... Electric Dipole (Length)     done (  0.0 sec)

Property integrals calculated in   0.0 sec

Maximum memory used throughout the entire PROPINT-calculation: 16.3 MB


-------------------------------------------------------------------------------
                          DFT DISPERSION CORRECTION                            
                                                                               
                                DFTD4 V3.4.0                                   
-------------------------------------------------------------------------------
The wB97X-3c composite method is recognized
Using three-body term ABC
Active option DFTDOPT                   ...         5   

-------------------------   ----------------
Dispersion correction           -0.027316974
-------------------------   ----------------


-------------------------   --------------------
FINAL SINGLE POINT ENERGY       -66.557370759719
-------------------------   --------------------



           ************************************************************
           *        Program running with 40 parallel MPI-processes    *
           *              working on a common directory               *
           ************************************************************
------------------------------------------------------------------------------
                         ORCA SCF GRADIENT CALCULATION
------------------------------------------------------------------------------

Nuc. rep. gradient        (SHARK) ... done (  0.0 sec)
HCore & Overlap gradient  (SHARK) ... done (  0.1 sec)
ECP gradient              (SHARK) ... done (  0.4 sec)
Split-RIJ-J gradient      (SHARK) ... done (  0.4 sec)
COSX-gradient                     ... done (  4.7 sec)
XC gradient                       ... done (  1.7 sec)
Dispersion correction             ... done (  0.1 sec)

-------------------
DISPERSION GRADIENT
-------------------

   1   C   :   -0.000452889   -0.000352639    0.000081522
   2   C   :   -0.000404058   -0.000015251   -0.000038408
   3   C   :   -0.000214432   -0.000046026    0.000251693
   4   C   :    0.000126980    0.000440105    0.000121516
   5   C   :    0.000106650    0.000373159    0.000340388
   6   C   :    0.000226000   -0.000072160    0.000036452
   7   C   :    0.000049842   -0.000364646   -0.000620416
   8   C   :    0.000392579   -0.000127210    0.000364275
   9   C   :    0.000547012   -0.000268973    0.000119482
  10   C   :   -0.000256696    0.000478241   -0.000353546
  11   H   :   -0.000117467   -0.000070938    0.000052942
  12   H   :   -0.000113690   -0.000067649    0.000002265
  13   H   :   -0.000111923   -0.000109188   -0.000010356
  14   H   :   -0.000091391   -0.000090341    0.000114842
  15   H   :    0.000067069    0.000132832    0.000077016
  16   H   :    0.000065326    0.000127955   -0.000046934
[...]
 20:    462.89   0.000809    4.09  0.000545  ( 0.012364 -0.016153 -0.011474)
 21:    534.28   0.000488    2.47  0.000285  ( 0.007997 -0.008968  0.011860)
 22:    547.96   0.000081    0.41  0.000046  ( 0.004176  0.004620 -0.002719)
 23:    580.03   0.000260    1.31  0.000140  ( 0.008653  0.004218 -0.006863)
 24:    701.80   0.000105    0.53  0.000047  ( 0.001084 -0.004304  0.005214)
 25:    782.88   0.000661    3.34  0.000263  (-0.000415  0.011111  0.011820)
 26:    823.90   0.000361    1.82  0.000137  (-0.004156 -0.009654 -0.005110)
 27:    871.26   0.002562   12.95  0.000918  ( 0.023955 -0.007038 -0.017151)
 28:    920.14   0.004541   22.95  0.001540  (-0.023927 -0.031083 -0.001153)
 29:    949.67   0.009310   47.05  0.003059  ( 0.033666  0.041992 -0.012750)
 30:    974.22   0.003200   16.17  0.001025  ( 0.020105 -0.024881  0.001286)
 31:    986.29   0.000068    0.34  0.000022  ( 0.002839  0.003421 -0.001320)
 32:   1004.27   0.000271    1.37  0.000084  (-0.004109  0.002602 -0.007790)
 33:   1033.55   0.000821    4.15  0.000248  ( 0.008715 -0.011038 -0.007081)
 34:   1045.83   0.003212   16.23  0.000959  ( 0.018348  0.024041 -0.006625)
 35:   1067.20   0.000882    4.46  0.000258  (-0.011898 -0.008039 -0.007198)
 36:   1081.90   0.000057    0.29  0.000017  (-0.000607 -0.003547  0.001905)
 37:   1085.47   0.000051    0.26  0.000015  ( 0.001316 -0.002947 -0.002084)
 38:   1125.46   0.001218    6.15  0.000338  ( 0.012719 -0.012773 -0.003573)
 39:   1128.29   0.000059    0.30  0.000016  ( 0.002639 -0.002976 -0.000611)
 40:   1157.59   0.004470   22.59  0.001205  ( 0.031670 -0.009585  0.010492)
 41:   1212.37   0.000285    1.44  0.000073  (-0.006019 -0.005951 -0.001285)
 42:   1275.46   0.000587    2.97  0.000144  ( 0.010774  0.004690 -0.002356)
 43:   1301.17   0.000291    1.47  0.000070  (-0.000526  0.006213  0.005553)
 44:   1347.33   0.000163    0.83  0.000038  ( 0.005812 -0.001363 -0.001483)
 45:   1359.28   0.000266    1.34  0.000061  ( 0.001637  0.000643  0.007607)
 46:   1409.53   0.000358    1.81  0.000079  ( 0.003959 -0.000882  0.007924)
 47:   1416.88   0.000819    4.14  0.000180  (-0.010705 -0.003091 -0.007501)
 48:   1450.80   0.001189    6.01  0.000256  (-0.006953 -0.013688  0.004477)
 49:   1458.75   0.002337   11.81  0.000500  (-0.004658  0.012447 -0.017982)
 50:   1467.77   0.001961    9.91  0.000417  ( 0.006791 -0.004460 -0.018734)
 51:   1476.17   0.000357    1.80  0.000075  ( 0.004516 -0.007394 -0.000546)
 52:   1501.98   0.000109    0.55  0.000023  (-0.001936 -0.004231 -0.001039)
 53:   1509.38   0.001231    6.22  0.000254  (-0.010908 -0.009576  0.006617)
 54:   1513.78   0.002223   11.24  0.000458  ( 0.014464  0.013609 -0.007997)
 55:   1517.25   0.000852    4.30  0.000175  ( 0.008722 -0.008751 -0.004744)
 56:   1522.80   0.003144   15.89  0.000644  ( 0.013589 -0.019757 -0.008327)
 57:   1526.78   0.002202   11.13  0.000450  (-0.008864  0.002628 -0.019094)
 58:   1537.75   0.001349    6.82  0.000274  (-0.001311  0.016326 -0.002344)
 59:   1733.06   0.005651   28.56  0.001018  (-0.021824  0.020132  0.011661)
 60:   1786.84   0.002957   14.95  0.000517  ( 0.019543 -0.011355  0.002374)
 61:   1806.16   0.000689    3.48  0.000119  ( 0.008207 -0.002939  0.006559)
 62:   3093.53   0.005214   26.35  0.000526  ( 0.017633  0.012453 -0.007741)
 63:   3097.26   0.009797   49.51  0.000987  ( 0.022955  0.000247  0.021449)
 64:   3107.71   0.006082   30.74  0.000611  ( 0.004241 -0.016986 -0.017442)
 65:   3108.74   0.002708   13.68  0.000272  ( 0.000950  0.014929 -0.006930)
 66:   3165.44   0.001626    8.22  0.000160  (-0.006757  0.009408  0.005114)
 67:   3169.95   0.002804   14.17  0.000276  ( 0.008914 -0.012289 -0.006750)
 68:   3183.20   0.001658    8.38  0.000163  (-0.006983 -0.009678  0.004489)
 69:   3185.52   0.000142    0.72  0.000014  (-0.002487  0.000260 -0.002770)
 70:   3203.60   0.000962    4.86  0.000094  ( 0.009177  0.002113 -0.002248)
 71:   3209.07   0.003457   17.47  0.000336  (-0.003543 -0.008338  0.015942)
 72:   3212.71   0.001126    5.69  0.000109  (-0.004677  0.003183 -0.008796)
 73:   3216.64   0.004670   23.60  0.000453  ( 0.005512  0.002889  0.020355)
 74:   3226.08   0.003679   18.59  0.000356  (-0.015472 -0.009931  0.004230)
 75:   3228.59   0.001880    9.50  0.000182  (-0.008031  0.004099 -0.010019)
 76:   3234.50   0.001668    8.43  0.000161  ( 0.008421 -0.007713  0.005522)
 77:   3315.21   0.000723    3.66  0.000068  ( 0.004337 -0.001343  0.006891)

* The epsilon (eps) is given for a Dirac delta lineshape.
** The dipole moment derivative (T) already includes vibrational overlap.

The first frequency considered to be a vibration is 6
The total number of vibrations considered is 72


--------------------------
THERMOCHEMISTRY AT 298.15K
--------------------------

Temperature         ...   298.15 K
Pressure            ...     1.00 atm
Total Mass          ...   136.24 AMU
Quasi RRHO          ...     True
Cut-Off Frequency   ...     1.00 cm^-1

Throughout the following assumptions are being made:
  (1) The electronic state is orbitally nondegenerate
  (2) There are no thermally accessible electronically excited states
  (3) Hindered rotations indicated by low frequency modes are not
      treated as such but are treated as vibrations and this may
      cause some error
  (4) All equations used are the standard statistical mechanics
      equations for an ideal gas
  (5) All vibrations are strictly harmonic

freq.      32.90  E(vib)   ...       0.55 
freq.      42.44  E(vib)   ...       0.53 
freq.      66.13  E(vib)   ...       0.50 
freq.     128.77  E(vib)   ...       0.43 
freq.     135.40  E(vib)   ...       0.42 
freq.     174.86  E(vib)   ...       0.38 
freq.     183.36  E(vib)   ...       0.37 
freq.     218.02  E(vib)   ...       0.33 
freq.     258.45  E(vib)   ...       0.30 
freq.     290.96  E(vib)   ...       0.27 
freq.     329.96  E(vib)   ...       0.24 
freq.     349.77  E(vib)   ...       0.23 
freq.     410.35  E(vib)   ...       0.19 
freq.     444.99  E(vib)   ...       0.17 
freq.     462.89  E(vib)   ...       0.16 
freq.     534.28  E(vib)   ...       0.13 
freq.     547.96  E(vib)   ...       0.12 
freq.     580.03  E(vib)   ...       0.11 
freq.     701.80  E(vib)   ...       0.07 
freq.     782.88  E(vib)   ...       0.05 
freq.     823.90  E(vib)   ...       0.05 
freq.     871.26  E(vib)   ...       0.04 
freq.     920.14  E(vib)   ...       0.03 
freq.     949.67  E(vib)   ...       0.03 
freq.     974.22  E(vib)   ...       0.03 
freq.     986.29  E(vib)   ...       0.02 
freq.    1004.27  E(vib)   ...       0.02 
freq.    1033.55  E(vib)   ...       0.02 
freq.    1045.83  E(vib)   ...       0.02 
freq.    1067.20  E(vib)   ...       0.02 
freq.    1081.90  E(vib)   ...       0.02 
freq.    1085.47  E(vib)   ...       0.02 
freq.    1125.46  E(vib)   ...       0.01 
freq.    1128.29  E(vib)   ...       0.01 
freq.    1157.59  E(vib)   ...       0.01 
freq.    1212.37  E(vib)   ...       0.01 
freq.    1275.46  E(vib)   ...       0.01 
freq.    1301.17  E(vib)   ...       0.01 
freq.    1347.33  E(vib)   ...       0.01 
freq.    1359.28  E(vib)   ...       0.01 
freq.    1409.53  E(vib)   ...       0.00 
freq.    1416.88  E(vib)   ...       0.00 
freq.    1450.80  E(vib)   ...       0.00 
freq.    1458.75  E(vib)   ...       0.00 
freq.    1467.77  E(vib)   ...       0.00 
freq.    1476.17  E(vib)   ...       0.00 
freq.    1501.98  E(vib)   ...       0.00 
freq.    1509.38  E(vib)   ...       0.00 
freq.    1513.78  E(vib)   ...       0.00 
freq.    1517.25  E(vib)   ...       0.00 
freq.    1522.80  E(vib)   ...       0.00 
freq.    1526.78  E(vib)   ...       0.00 
freq.    1537.75  E(vib)   ...       0.00 
freq.    1733.06  E(vib)   ...       0.00 
freq.    1786.84  E(vib)   ...       0.00 
freq.    1806.16  E(vib)   ...       0.00 
freq.    3093.53  E(vib)   ...       0.00 
freq.    3097.26  E(vib)   ...       0.00 
freq.    3107.71  E(vib)   ...       0.00 
freq.    3108.74  E(vib)   ...       0.00 
freq.    3165.44  E(vib)   ...       0.00 
freq.    3169.95  E(vib)   ...       0.00 
freq.    3183.20  E(vib)   ...       0.00 
freq.    3185.52  E(vib)   ...       0.00 
freq.    3203.60  E(vib)   ...       0.00 
freq.    3209.07  E(vib)   ...       0.00 
freq.    3212.71  E(vib)   ...       0.00 
freq.    3216.64  E(vib)   ...       0.00 
freq.    3226.08  E(vib)   ...       0.00 
freq.    3228.59  E(vib)   ...       0.00 
freq.    3234.50  E(vib)   ...       0.00 
freq.    3315.21  E(vib)   ...       0.00 

------------
INNER ENERGY
------------

The inner energy is: U= E(el) + E(ZPE) + E(vib) + E(rot) + E(trans)
    E(el)   - is the total energy from the electronic structure calculation
              = E(kin-el) + E(nuc-el) + E(el-el) + E(nuc-nuc)
    E(ZPE)  - the the zero temperature vibrational energy from the frequency calculation
    E(vib)  - the the finite temperature correction to E(ZPE) due to population
              of excited vibrational states
    E(rot)  - is the rotational thermal energy
    E(trans)- is the translational thermal energy

Summary of contributions to the inner energy U:
Electronic energy                ...    -66.57167203 Eh
Zero point energy                ...      0.23697561 Eh     148.70 kcal/mol
Thermal vibrational correction   ...      0.00950856 Eh       5.97 kcal/mol
Thermal rotational correction    ...      0.00141627 Eh       0.89 kcal/mol
Thermal translational correction ...      0.00141627 Eh       0.89 kcal/mol
-----------------------------------------------------------------------
Total thermal energy                    -66.32235532 Eh


Summary of corrections to the electronic energy:
(perhaps to be used in another calculation)
Total thermal correction                  0.01234110 Eh       7.74 kcal/mol
Non-thermal (ZPE) correction              0.23697561 Eh     148.70 kcal/mol
-----------------------------------------------------------------------
Total correction                          0.24931671 Eh     156.45 kcal/mol


--------
ENTHALPY
--------

The enthalpy is H = U + kB*T
                kB is Boltzmann's constant
Total thermal energy              ...    -66.32235532 Eh 
Thermal Enthalpy correction       ...      0.00094421 Eh       0.59 kcal/mol
-----------------------------------------------------------------------
Total Enthalpy                    ...    -66.32141111 Eh


Note: Only C1 symmetry has been detected, increase convergence thresholds 
      if your molecule has a higher symmetry. Symmetry factor of 1.0 is   
      used for the rotational entropy correction. 
 

Note: Rotational entropy computed according to Herzberg 
Infrared and Raman Spectra, Chapter V,1, Van Nostrand Reinhold, 1945 
Point Group:  C1, Symmetry Number:   1  
Rotational constants in cm-1:     0.088235     0.018901     0.018200 

Vibrational entropy computed according to the QRRHO of S. Grimme
Chem.Eur.J. 2012 18 9955 using a reference frequency of 100.0 cm-1


-------
ENTROPY
-------

The entropy contributions are T*S = T*(S(el)+S(vib)+S(rot)+S(trans))
     S(el)   - electronic entropy
     S(vib)  - vibrational entropy
     S(rot)  - rotational entropy
     S(trans)- translational entropy
The entropies will be listed as multiplied by the temperature to get
units of energy

Electronic entropy                ...      0.00000000 Eh      0.00 kcal/mol
Vibrational entropy               ...      0.01682626 Eh     10.56 kcal/mol
Rotational entropy                ...      0.01442179 Eh      9.05 kcal/mol
Translational entropy             ...      0.01930920 Eh     12.12 kcal/mol
-----------------------------------------------------------------------
Final entropy term                ...      0.05055725 Eh     31.73 kcal/mol

In case the symmetry of your molecule has not been determined correctly
or in case you have a reason to use a different symmetry number we print 
out the resulting rotational entropy values for sn=1,12:

 non-linear molecules -----------------------------------
|  sn= 1 | S(rot)=       0.01442179 Eh      9.05 kcal/mol|
|  sn= 2 | S(rot)=       0.01376733 Eh      8.64 kcal/mol|
|  sn= 3 | S(rot)=       0.01338450 Eh      8.40 kcal/mol|
|  sn= 4 | S(rot)=       0.01311288 Eh      8.23 kcal/mol|
|  sn= 5 | S(rot)=       0.01290219 Eh      8.10 kcal/mol|
|  sn= 6 | S(rot)=       0.01273004 Eh      7.99 kcal/mol|
|  sn= 7 | S(rot)=       0.01258450 Eh      7.90 kcal/mol|
|  sn= 8 | S(rot)=       0.01245842 Eh      7.82 kcal/mol|
|  sn= 9 | S(rot)=       0.01234721 Eh      7.75 kcal/mol|
|  sn=10 | S(rot)=       0.01224773 Eh      7.69 kcal/mol|
|  sn=11 | S(rot)=       0.01215774 Eh      7.63 kcal/mol|
|  sn=12 | S(rot)=       0.01207559 Eh      7.58 kcal/mol|
 linear molecules ---------------------------------------
|  Dinfh | S(rot)=       0.00910849 Eh      5.72 kcal/mol|
|  Cinfv | S(rot)=       0.00976294 Eh      6.13 kcal/mol|
 --------------------------------------------------------


-------------------
GIBBS FREE ENERGY
-------------------

The Gibbs free energy is G = H - T*S

Total enthalpy                    ...    -66.32141111 Eh 
Total entropy correction          ...     -0.05055725 Eh    -31.73 kcal/mol
-----------------------------------------------------------------------
Final Gibbs free energy         ...    -66.37196836 Eh

For completeness - the Gibbs free energy minus the electronic energy
G-E(el)                           ...      0.19970367 Eh    125.32 kcal/mol


Maximum memory used throughout the entire PROP-calculation: 112.6 MB

--------------------------------
SUGGESTED CITATIONS FOR THIS RUN
--------------------------------

Below you find a list of papers that are relevant to this ORCA run
We neither can nor want to force you to cite these papers, but we appreciate if you do
You receive ORCA, which is the product of decades of hard work by many enthusiastic individuals, for free
The only thing we kindly ask in return is that you cite our papers,
We deeply appreciate it, if you show your appreciation for ORCA by not just citing the generic ORCA reference.

Please note that relegating all ORCA citations to the supporting information does *not* help us.
SI sections are not indexed - citations you put there will not count into any citation statistics
But we need these citations in order to attract the funding resources that allow us to do what we are doing

Therefore, if you are a happy ORCA user, please consider citing a few of the papers listed below in the main body of your paper

In addition to the list printed below, the program has created the file ./output/_e_beta_ocimene/_e_beta_ocimene.bibtex that contains the list in bibtex format
You can import this file easily into all common literature databanks and citation aid programs


List of essential papers. We consider these as the minimum necessary citations

  1. Neese,F.
     Software update: the ORCA program system, version 5.0
     WIRES Comput. Molec. Sci., 2022 12(1)e1606
     doi.org/10.1002/wcms.1606
  2. Mueller,M.; Hansen,A.; Grimme,S.
     wB97X-3c: A composite range-separated hybrid DFT method with a molecule-optimized polarized valence double-zeta basis set
     J. Chem. Phys., 2023 158 014103
     doi.org/10.1063/5.0133026

List of papers to cite with high priority. The work reported in these papers was absolutely
necessary for this run to complete.
Our perspective: the developers of density functionals and basis sets usually get cited in chemistry papers
Good! But without the algorithms to do something with them, the functionals or basis sets would not do anything.
Hence, in our opinion, the algorithm design and method developments papers are equally worthy of getting cited

  1. Neese,F.
     An improvement of the resolution of the identity approximation for the formation of the Coulomb matrix
     J. Comp. Chem., 2003 24(14)1740-1747
     doi.org/10.1002/jcc.10318
  2. Neese,F.; Wennmohs,F.; Hansen,A.; Becker,U.
     Efficient, approximate and parallel Hartree-Fock and hybrid DFT calculations. A 'chain-of-spheres' algorithm for the Hartree-Fock exchange
     Chem. Phys., 2009 356(1-3)98-109
     doi.org/10.1016/j.chemphys.2008.10.036
  3. Bykov,D.; Petrenko,T.; Izsak,R.; Kossmann,S.; Becker,U.; Valeev,E.; Neese,F.
     Efficient implementation of the analytic second derivatives of Hartree-Fock and hybrid DFT energies: a detailed analysis of different approximations
     Molec. Phys., 2015 113 1961-1977
     doi.org/10.1080/00268976.2015.1025114
  4. Helmich-Paris,B.; de Souza,B.; Neese,F.; Izsák,R.
     An improved chain of spheres for exchange algorithm
     J. Chem. Phys., 2021 155 104109
     doi.org/doi: 10.1063/5.0058766.
  5. Neese,F.
     The SHARK Integral Generation and Digestion System
     J. Comp. Chem., 2022  1-16
     doi.org/10.1002/jcc.26942
  6. Caldeweyher,E.; Bannwarth,C.; Grimme,S.
     Extension of the D3 dispersion coefficient model
     J. Chem. Phys., 2017 147 034112
     doi.org/10.1063/1.4993215
  7. Caldeweyher,E.; Ehlert,S.; Hansen,A.; Neugebauer,H.; Spicher,S.; Bannwarth,C.; Grimme,S.
     A generally applicable atomic-charge dependent London dispersion correction
     J. Chem. Phys., 2019 150 154122
     doi.org/10.1063/1.5090222
  8. Caldeweyher,E.; Mewes,J.; Ehlert,S.; Grimme,S.
     Extension and evaluation of the D4 London-dispersion model for periodic systems
     Phys. Chem. Chem. Phys., 2020 22(16)8499-8512
     doi.org/10.1039/D0CP00502A
  9. Wittmann,L.; Gordiy,I.; Friede,M.; Helmich-Paris,B.; Grimme,S.; Hansen,A.; Bursch,M.
     Extension of the D3 and D4 London Dispersion Corrections to the full Actinides Series
     Phys. Chem. Chem. Phys., 2024 26(32)21379-21394
     doi.org/https://doi.org/10.1039/D4CP01514B 

List of suggested additional citations. These are papers that are important in the 'surrounding' of 
of this run, or papers that preceded the highly important papers. If you like your results we are grateful for a citation.

  1. Izsak,R.; Neese,F.
     An overlap fitted chain of spheres exchange method
     J. Chem. Phys., 2011 135 144105
     doi.org/10.1063/1.3646921
  2. Izsak,R.; Hansen,A.; Neese,F.
     The resolution of identity and chain of spheres approximations for the LPNO-CCSD singles Fock term
     Molec. Phys., 2012 110 2413-2417
     doi.org/10.1080/00268976.2012.687466
  3. Neese,F.
     The ORCA program system
     WIRES Comput. Molec. Sci., 2012 2(1)73-78
     doi.org/10.1002/wcms.81
  4. Izsak,R.; Neese,F.; Klopper,W.
     Robust fitting techniques in the chain of spheres approximation to the Fock exchange: The role of the complementary space
     J. Chem. Phys., 2013 139 
     doi.org/10.1063/1.4819264
  5. Neese,F.
     Software update: the ORCA program system, version 4.0
     WIRES Comput. Molec. Sci., 2018 8(1)1-6
     doi.org/10.1002/wcms.1327
  6. Neese,F.; Wennmohs,F.; Becker,U.; Riplinger,C.
     The ORCA quantum chemistry program package
     J. Chem. Phys., 2020 152 Art. No. L224108
     doi.org/10.1063/5.0004608

List of optional additional citations

  1. Neese,F.
     Approximate second-order SCF convergence for spin unrestricted wavefunctions
     Chem. Phys. Lett., 2000 325(1-3)93-98
     doi.org/10.1016/s0009-2614(00)00662-x

Timings for individual modules:

Sum of individual times          ...     1731.467 sec (=  28.858 min)
Startup calculation              ...      112.402 sec (=   1.873 min)   6.5 %
SCF iterations                   ...     1213.597 sec (=  20.227 min)  70.1 %
Property integrals               ...       62.656 sec (=   1.044 min)   3.6 %
SCF Response                     ...       33.695 sec (=   0.562 min)   1.9 %
Property calculations            ...       66.763 sec (=   1.113 min)   3.9 %
SCF Gradient evaluation          ...      241.638 sec (=   4.027 min)  14.0 %
Geometry relaxation              ...        0.716 sec (=   0.012 min)   0.0 %
                             ****ORCA TERMINATED NORMALLY****
TOTAL RUN TIME: 0 days 0 hours 29 minutes 6 seconds 798 msec
