
                                 *****************
                                 * O   R   C   A *
                                 *****************

                                            #,                                       
                                            ###                                      
                                            ####                                     
                                            #####                                    
                                            ######                                   
                                           ########,                                 
                                     ,,################,,,,,                         
                               ,,#################################,,                 
                          ,,##########################################,,             
                       ,#########################################, ''#####,          
                    ,#############################################,,   '####,        
                  ,##################################################,,,,####,       
                ,###########''''           ''''###############################       
              ,#####''   ,,,,##########,,,,          '''####'''          '####       
            ,##' ,,,,###########################,,,                        '##       
           ' ,,###''''                  '''############,,,                           
         ,,##''                                '''############,,,,        ,,,,,,###''
      ,#''                                            '''#######################'''  
     '                                                          ''''####''''         
             ,#######,   #######,   ,#######,      ##                                
            ,#'     '#,  ##    ##  ,#'     '#,    #''#        ,####,   ,####,        
            ##       ##  ##   ,#'  ##            #'  '#       #'       #'  '#        
            ##       ##  #######   ##           ,######,      #####,   #    #        
            '#,     ,#'  ##    ##  '#,     ,#' ,#      #,     #,   #   #,  ,#        
             '#######'   ##     ##  '#######'  #'      '#     '####' # '####'        



                #########################################################
                #                        -***-                          #
                #          Department of theory and spectroscopy        #
                #                                                       #
                #                      Frank Neese                      #
                #                                                       #
                #     Directorship, Architecture, Infrastructure        #
                #                    SHARK, DRIVERS                     #
                #        Core code/Algorithms in most modules           #
                #                                                       #
                #        Max Planck Institute fuer Kohlenforschung      #
                #                Kaiser Wilhelm Platz 1                 #
                #                 D-45470 Muelheim/Ruhr                 #
                #                      Germany                          #
                #                                                       #
                #                  All rights reserved                  #
                #                        -***-                          #
                #########################################################


                         Program Version 6.0.1  -  RELEASE   -


 With contributions from (in alphabetic order):
[Max-Planck-Institut fuer Kohlenforschung]                               
  Daniel Aravena         : Magnetic Suceptibility                        
  Michael Atanasov       : Ab Initio Ligand Field Theory (pilot matlab implementation)
  Alexander A. Auer      : GIAO ZORA, VPT2 properties, NMR spectrum      
  Ute Becker             : All parallelization in ORCA, NUMFREQ, NUMCALC 
  Giovanni Bistoni       : ED, misc. LED, open-shell LED, HFLD           
  Martin Brehm           : Molecular dynamics                            
  Dmytro Bykov           : pre 5.0 version of the SCF Hessian            
  Marcos Casanova-Páez   : Triplet and SCS-CIS(D). UHF-(DLPNO)-IP/EA/STEOM-CCSD. UHF-CVS-IP/STEOM-CCSD   
  Vijay G. Chilkuri      : MRCI spin determinant printing, contributions to CSF-ICE 
  Pauline Colinet        : FMM embedding                                 
  Dipayan Datta          : RHF DLPNO-CCSD density                        
  Achintya Kumar Dutta   : EOM-CC, STEOM-CC                              
  Nicolas Foglia         : Exact transition moments, OPA infrastructure, MCD improvements    
  Dmitry Ganyushin       : Spin-Orbit,Spin-Spin,Magnetic field MRCI      
  Miquel Garcia-Rates    : C-PCM and meta-GGA Hessian, CCSD/C-PCM, Gaussian charge scheme 
  Tiago L. C. Gouveia    : GS-ROHF, GS-ROCIS                             
  Yang Guo               : DLPNO-NEVPT2, F12-NEVPT2, CIM, IAO-localization        
  Andreas Hansen         : Spin unrestricted coupled pair/coupled cluster methods 
  Ingolf Harden          : AUTO-CI MPn and infrastructure                
  Benjamin Helmich-Paris : MC-RPA, TRAH-(SCF,CASSCF), AVAS, COSX integrals, SCF dyn. polar. 
  Lee Huntington         : MR-EOM, pCC                                   
  Robert Izsak           : Overlap fitted RIJCOSX, COSX-SCS-MP3, EOM     
  Riya Kayal             : Wick's Theorem for AUTO-CI, AUTO-CI UHF-CCSDT 
  Emily Kempfer          : AUTO-CI, RHF CISDT and CCSDT                  
  Christian Kollmar      : KDIIS, OOCD, Brueckner-CCSD(T), CCSD density, CASPT2, CASPT2-K, improved NEVPT2 
  Axel Koslowski         : Symmetry handling                             
  Simone Kossmann        : meta-GGA functionals, TD-DFT gradient, OOMP2, (MP2 Hessian; deprecated post 5.0) 
  Lucas Lang             : DCDCAS                                        
  Marvin Lechner         : AUTO-CI (C++ implementation), FIC-MRCC        
  Spencer Leger          : CASSCF response                               
  Dagmar Lenk            : GEPOL surface, SMD, ORCA-2-JSON               
  Dimitrios Liakos       : Extrapolation schemes; Compound Job, initial MDCI parallelization 
  Dimitrios Manganas     : Further ROCIS development; embedding schemes. LFT, Crystal Embedding 
  Dimitrios Pantazis     : SARC Basis sets                               
  Anastasios Papadopoulos: AUTO-CI, single reference methods and gradients 
  Taras Petrenko         : pre 6.0 DFT Hessian and TD-DFT gradient, (ASA, deprecated), ECA, 1-Electron XAS/XES, NRVS 
  Peter Pinski           : DLPNO-MP2, DLPNO-MP2 Gradient                 
  Christoph Reimann      : Effective Core Potentials                     
  Marius Retegan         : Local ZFS, SOC                                
  Christoph Riplinger    : Optimizer, TS searches, QM/MM, DLPNO-CCSD(T), (RO)-DLPNO pert. Triples 
  Michael Roemelt        : Original ROCIS implementation                 
  Masaaki Saitow         : Open-shell DLPNO-CCSD energy and density      
  Barbara Sandhoefer     : DKH picture change effects                    
  Kantharuban Sivalingam : CASSCF convergence/infrastructure, NEVPT2 and variants, FIC-MRCI 
  Bernardo de Souza      : ESD, SOC TD-DFT                               
  Georgi L. Stoychev     : AutoAux, RI-MP2 NMR, DLPNO-MP2 response, X2C  
  Van Anh Tran           : RI-MP2 g-tensors                              
  Willem Van den Heuvel  : Paramagnetic NMR                              
  Zikuan Wang            : NOTCH, Electric field optimization            
  Frank Wennmohs         : Technical directorship and infrastructure     
  Hang Xu                : AUTO-CI-Response properties                   
                                                                         
[FACCTs GmbH]                                                            
  Markus Bursch, Miquel Garcia-Rates, Christoph Riplinger, Bernardo de Souza, Georgi L. Stoychev 
                                                                 
  APM, Basis sets (HGBS, AHGBS, def-TZVP (Ac-Lr), def2-XVPD (La-Lu)), CI-OPT, improved COSX, DLPNO-Multilevel,           
  DOCKER, DRACO, updates on ESD, GOAT, IRC, LR-CPCM, MBIS, meta-GGA TD-DFT gradient, ML-optimized integration grids, 
  MM, NACMEs, nearIR, NEB, NEB-TS, NL-DFT gradient (VV10), 2- and 3-layer-ONIOM, interface openCOSMO-RS, QMMM,   
  Crystal-QMMM, SF, symmetry and pop. for TD-DFT, r2SCAN hybrids, SOLVATOR                                   
                                                                         
[Other institutions]                                                     
  V. Asgeirsson          : NEB                                           
  Christoph Bannwarth    : sTDA-DFT, sTD-DFT, PBEh-3c, B97-3c, D3        
  Sebastian Ehlert       : rSCAN, r2SCAN, r2SCAN-3c, D4, dhf basis sets  
  Marvin Friede          : D4 for Fr, Ra, Ac-Lr                          
  Lars Goerigk           : TD-DFT with DH, B97 family of functionals     
  Stefan Grimme          : VdW corrections, initial TS optimization, DFT functionals, gCP, sTDA/sTD-DF 
  Waldemar Hujo          : DFT-NL                                        
  H. Jonsson             : NEB                                           
  Holger Kruse           : gCP                                           
  Marcel Mueller         : wB97X-3c, vDZP basis set                      
  Hagen Neugebauer       : wr2SCAN                                       
  Tobias Risthaus        : range-separated hybrid DFT                    
  Lukas Wittmann         : regularized MP2, r2SCAN double-hybrids, wr2SCAN        
                                                                         
We gratefully acknowledge several colleagues who have allowed us to      
interface, adapt or use parts of their codes:                            
  Ed Valeev, F. Pavosevic, A. Kumar             : LibInt (2-el integral package), F12 methods 
  Garnet Chan, S. Sharma, J. Yang, R. Olivares  : DMRG                   
  Ulf Ekstrom                                   : XCFun DFT Library      
  Mihaly Kallay                                 : mrcc  (arbitrary order and MRCC methods)
  Frank Weinhold                                : gennbo (NPA and NBO analysis)           
  Simon Mueller                                 : openCOSMO-RS                            
  Christopher J. Cramer and Donald G. Truhlar   : smd solvation model                     
  S Lehtola, MJT Oliveira, MAL Marques          : LibXC Library                           
  Liviu Ungur et al                             : ANISO software                          


 Your calculation uses the libint2 library for the computation of 2-el integrals
 For citations please refer to: http://libint.valeyev.net

 Your ORCA version has been built with support for libXC version: 6.2.2
 For citations please refer to: https://libxc.gitlab.io

 This ORCA versions uses:
   CBLAS   interface :  Fast vector & matrix operations
   LAPACKE interface :  Fast linear algebra routines
   SCALAPACK package :  Parallel linear algebra routines
   Shared memory     :  Shared parallel matrices
   BLAS/LAPACK       :  OpenBLAS 0.3.27  USE64BITINT DYNAMIC_ARCH NO_AFFINITY SkylakeX SINGLE_THREADED
        Core in use  :  SkylakeX
   Copyright (c) 2011-2014, The OpenBLAS Project


Your calculation utilizes the atom-pairwise dispersion correction
based on EEQ partial charges (D4)


================================================================================

cite the ECPs for C  [vDZP-ECP], O  [vDZP-ECP] as follows:
   B-Ne (ecp-2-mwb), Al-Ar (ecp-10-mwb), Ga-Kr (ecp-28-mwb), Y-Cd (ecp-28-mwb), In-Xe (ecp-46-mwb):
     A. Bergner, M. Dolg, W. Küchle, H. Stoll, and H. Preuß, Mol. Phys. 80, 1431 (1993)., T. Leininger, A. Berning, A. Nicklass, H. Stoll, H.-J. Werner, and H.-J.Flad, Chem. Phys. 217, 19 (1997).
   Na-Mg, K-Ca, Rb-Sr, Cs-Ba (CRENBL):
     L. Fernandez Pacios and P. A. Christiansen, J. Chem. Phys. 82, 2664 (1985)., M. M. Hurley, L. F. Pacios, P. A. Christiansen, R. B. Ross, and W. C. Ermler, J. Chem. Phys. 84, 6840 (1986)., L. A. LaJohn, P. A. Christiansen, R. B. Ross, T. Atashroo, and W. C. Ermler, J. Chem. Phys. 87, 2812 (1987)., R. B. Ross, J. M. Powers, T. Atashroo, W. C. Ermler, L. A. LaJohn, and P. A. Christiansen, J. Chem. Phys. 93, 6654 (1990). 
   Sc-Zn (ecp-10-mdf):
     M. Dolg, U. Wedig, H. Stoll, and H. Preuss, J. Chem. Phys. 86, 866 (1986). 
   Y-Cd (ecp-28-mwb), Hf-Hg (ecp-60-mwb):
     D. Andrae, U. Häußermann, M. Dolg, H. Stoll, and H. Preuß, Theor. Chim. Acta 77, 123 (1990). 
   La (ecp-46-mwb):
     M. Dolg, H. Stoll, and H. Preuss, J. Chem. Phys. 90, 1730 (1989)., M. Dolg, H. Stoll, and H. Preuss, Theor. Chim. Acta 85, 441 (1993).
   Ce-Lu (SBKJC-ecp):
     T. R. Cundari and W. J. Stevens, J. Chem. Phys. 98, 5555 (1993).
   Tl-Rn (ecp-78-mwb):
     W. Küchle, M. Dolg, H. Stoll, and H. Preuss, Mol. Phys. 74, 1245 (1991).

ECP parameters for C  [vDZP-ECP], O  [vDZP-ECP] have been obtained from:
MM, AH, SG, J. Chem. Phys. 158, 014103 (2023), 10.1063/5.0133026

----- Orbital basis set information -----
Your calculation utilizes the basis: vDZP
   Marcel Mueller, Andreas Hansen, Stefan Grimme 
   J. Chem. Phys. 158, 014103 (2023). DOI: 10.1063/5.0133026

----- AuxJ basis set information -----
Your calculation utilizes the auxiliary basis: def2/J
   F. Weigend, Phys. Chem. Chem. Phys. 8, 1057 (2006).

================================================================================
                                        WARNINGS
                       Please study these warnings very carefully!
================================================================================

WARNING: Frozen-Core approximation turned on, but there are no core electrons.
  ===> : Turning off frozen-core approximation


WARNING: Geometry Optimization
  ===> : Switching off AutoStart
         For restart on a previous wavefunction, please use MOREAD

================================================================================
                                       INPUT FILE
================================================================================
NAME = ./output/germacrone/germacrone.inp
|  1> ! wB97X-3c OPT FREQ TightSCF
|  2> %pal
|  3>   nprocs 40
|  4> end
|  5> * xyz 0 1
|  6> C      1.832507     2.596983    -0.551190
|  7> C      1.312597     1.381946    -1.279728
|  8> C      0.002321     1.044970    -1.274685
|  9> C     -1.026831     1.621037    -0.337510
| 10> C     -1.443960     0.543586     0.652126
| 11> C     -2.589642    -0.177799     0.497285
| 12> C     -3.472741    -0.003917    -0.715178
| 13> C     -3.041323    -1.185609     1.527037
| 14> C     -0.501812     0.286867     1.775740
| 15> O     -0.254497     1.221804     2.583505
| 16> C      0.242638    -1.022222     1.924058
| 17> C      1.129764    -1.279169     0.725188
| 18> C      2.236241    -0.521254     0.561985
| 19> C      3.029989    -0.425970    -0.725618
| 20> C      2.316026     0.388021    -1.837294
| 21> C      0.748677    -2.351038    -0.267727
| 22> H      1.650770     2.500966     0.539628
| 23> H      2.926219     2.710127    -0.705914
| 24> H      1.332399     3.510337    -0.936391
| 25> H     -0.319202     0.179386    -1.846452
| 26> H     -0.650301     2.502552     0.219051
| 27> H     -1.875622     2.004192    -0.936998
| 28> H     -2.878364    -0.130747    -1.644414
| 29> H     -3.945087     1.000590    -0.701516
| 30> H     -4.285393    -0.760309    -0.738678
| 31> H     -2.593903    -2.175617     1.303865
| 32> H     -2.772072    -0.864464     2.555313
| 33> H     -4.145833    -1.298343     1.508552
| 34> H      0.869049    -0.998285     2.842910
| 35> H     -0.470300    -1.854379     2.071175
| 36> H      2.503137     0.185398     1.344152
| 37> H      3.290511    -1.439950    -1.097294
| 38> H      3.989639     0.082362    -0.488619
| 39> H      1.823885    -0.313784    -2.545158
| 40> H      3.076226     0.935261    -2.435566
| 41> H     -0.197912    -2.852140     0.023017
| 42> H      1.548225    -3.119820    -0.311424
| 43> H      0.603975    -1.921570    -1.277232
| 44> *
| 45> 
| 46>                          ****END OF INPUT****
================================================================================

                       *****************************
                       * Geometry Optimization Run *
                       *****************************

Geometry optimization settings:
Update method            Update   .... BFGS
Choice of coordinates    CoordSys .... (2022) Redundant Internals
Initial Hessian          InHess   .... Almloef's Model
Max. no of cycles        MaxIter  .... 114

Convergence Tolerances:
Energy Change            TolE     ....  5.0000e-06 Eh
Max. Gradient            TolMAXG  ....  3.0000e-04 Eh/bohr
RMS Gradient             TolRMSG  ....  1.0000e-04 Eh/bohr
Max. Displacement        TolMAXD  ....  4.0000e-03 bohr
RMS Displacement         TolRMSD  ....  2.0000e-03 bohr
Strict Convergence                .... False

------------------------------------------------------------------------------
                        ORCA OPTIMIZATION COORDINATE SETUP
------------------------------------------------------------------------------

The optimization will be done in redundant internal coordinates (2022)
Making redundant internal coordinates   ...  (2022 redundants) done
Evaluating the initial hessian          ...  (Almloef) done
Evaluating the coordinates              ...  done
Calculating the B-matrix                .... done
Calculating the G-matrix                .... done
Diagonalizing the G-matrix              .... done
Small eigenvalue found = 9.444e-03
Small eigenvalue found = 1.361e-02
Small eigenvalue found = 2.088e-02
Small eigenvalue found = 2.486e-02
Small eigenvalue found = 2.937e-02
The first mode is                       ....   71
The number of degrees of freedom        ....  108

    -----------------------------------------------------------------
                    Redundant Internal Coordinates


    -----------------------------------------------------------------
         Definition                    Initial Value    Approx d2E/dq
    -----------------------------------------------------------------
      1. B(C   1,C   0)                  1.5091         0.403384   
      2. B(C   2,C   1)                  1.3529         0.715965   
      3. B(C   3,C   2)                  1.5064         0.407377   
      4. B(C   4,C   3)                  1.5213         0.385743   
      5. B(C   5,C   4)                  1.3627         0.690700   
      6. B(C   6,C   5)                  1.5100         0.402024   
      7. B(C   7,C   5)                  1.5100         0.402063   
      8. B(C   8,C   4)                  1.4886         0.434872   
      9. B(O   9,C   8)                  1.2601         0.901952   
     10. B(C  10,C   8)                  1.5132         0.397288   
     11. B(C  11,C  10)                  1.5134         0.397102   
     12. B(C  12,C  11)                  1.3511         0.720884   
     13. B(C  13,C  12)                  1.5156         0.393872   
     14. B(C  14,C  13)                  1.5518         0.344797   
     15. B(C  14,C   1)                  1.5184         0.389792   
     16. B(C  15,C  11)                  1.5100         0.402099   
     17. B(H  16,C   0)                  1.1100         0.334574   
     18. B(H  17,C   0)                  1.1104         0.334123   
     19. B(H  18,C   0)                  1.1103         0.334257   
     20. B(H  19,C   2)                  1.0861         0.365348   
     21. B(H  20,C   3)                  1.1084         0.336534   
     22. B(H  21,C   3)                  1.1075         0.337631   
     23. B(H  22,C   6)                  1.1103         0.334176   
     24. B(H  23,C   6)                  1.1101         0.334463   
     25. B(H  24,C   6)                  1.1104         0.334047   
     26. B(H  25,C   7)                  1.1091         0.335697   
     27. B(H  26,C   7)                  1.1104         0.334103   
     28. B(H  27,C   7)                  1.1104         0.334097   
     29. B(H  28,C  10)                  1.1123         0.331753   
     30. B(H  29,C  10)                  1.1056         0.340011   
     31. B(H  30,C  12)                  1.0874         0.363595   
     32. B(H  31,C  13)                  1.1109         0.333447   
     33. B(H  32,C  13)                  1.1115         0.332716   
     34. B(H  33,C  14)                  1.1117         0.332548   
     35. B(H  34,C  14)                  1.1114         0.332822   
     36. B(H  35,C  15)                  1.1098         0.334832   
     37. B(H  36,C  15)                  1.1101         0.334529   
     38. B(H  37,C  15)                  1.1066         0.338842   
     39. A(H  16,C   0,H  18)          109.7766         0.284190   
     40. A(H  17,C   0,H  18)          108.1501         0.284131   
     41. A(C   1,C   0,H  16)          110.3872         0.324492   
     42. A(C   1,C   0,H  18)          109.8565         0.324441   
     43. A(C   1,C   0,H  17)          110.7392         0.324420   
     44. A(H  16,C   0,H  17)          107.8794         0.284173   
     45. A(C   2,C   1,C  14)          118.5766         0.409943   
     46. A(C   0,C   1,C   2)          122.1674         0.412443   
     47. A(C   0,C   1,C  14)          118.4652         0.370858   
     48. A(C   1,C   2,C   3)          124.6605         0.413165   
     49. A(C   3,C   2,H  19)          115.4705         0.329765   
     50. A(C   1,C   2,H  19)          118.8985         0.362541   
     51. A(C   2,C   3,C   4)          108.7350         0.370821   
     52. A(C   2,C   3,H  20)          112.6082         0.325330   
     53. A(C   4,C   3,H  21)          112.7682         0.322601   
     54. A(C   2,C   3,H  21)          108.6100         0.325504   
     55. A(C   4,C   3,H  20)          109.2546         0.322429   
     56. A(H  20,C   3,H  21)          104.8917         0.284893   
     57. A(C   5,C   4,C   8)          121.7741         0.415328   
     58. A(C   3,C   4,C   5)          122.1099         0.406592   
     59. A(C   3,C   4,C   8)          116.0795         0.375017   
     60. A(C   6,C   5,C   7)          116.7111         0.372626   
     61. A(C   4,C   5,C   7)          121.8246         0.409585   
     62. A(C   4,C   5,C   6)          121.4642         0.409578   
     63. A(H  23,C   6,H  24)          107.7725         0.284148   
     64. A(H  22,C   6,H  24)          107.2318         0.284110   
     65. A(C   5,C   6,H  24)          111.5028         0.324228   
     66. A(H  22,C   6,H  23)          109.9643         0.284165   
     67. A(C   5,C   6,H  23)          110.0694         0.324294   
     68. A(C   5,C   6,H  22)          110.2283         0.324249   
     69. A(H  25,C   7,H  26)          110.2843         0.284318   
     70. A(H  26,C   7,H  27)          106.6171         0.284107   
     71. A(H  25,C   7,H  27)          107.8962         0.284317   
     72. A(C   5,C   7,H  27)          110.7290         0.324241   
     73. A(C   5,C   7,H  26)          111.4666         0.324242   
     74. A(C   5,C   7,H  25)          109.7469         0.324496   
     75. A(O   9,C   8,C  10)          118.8478         0.425831   
     76. A(C   4,C   8,C  10)          122.3113         0.376933   
     77. A(C   4,C   8,O   9)          118.6935         0.432793   
     78. A(H  28,C  10,H  29)          105.6296         0.284571   
     79. A(C   8,C  10,C  11)          110.9537         0.371072   
     80. A(C  11,C  10,H  29)          110.8310         0.324514   
     81. A(C   8,C  10,H  29)          110.2996         0.324539   
     82. A(C  11,C  10,H  28)          109.1434         0.323207   
     83. A(C   8,C  10,H  28)          109.8402         0.323232   
     84. A(C  12,C  11,C  15)          121.7003         0.412710   
     85. A(C  10,C  11,C  15)          119.5707         0.371842   
     86. A(C  10,C  11,C  12)          118.7194         0.411795   
     87. A(C  11,C  12,C  13)          124.5276         0.411199   
     88. A(C  13,C  12,H  30)          116.2128         0.327675   
     89. A(C  11,C  12,H  30)          118.5999         0.362667   
     90. A(H  31,C  13,H  32)          106.6357         0.283838   
     91. A(C  14,C  13,H  32)          108.0636         0.315988   
     92. A(C  12,C  13,H  32)          107.4436         0.322928   
     93. A(C  14,C  13,H  31)          110.3030         0.316101   
     94. A(C  12,C  13,H  31)          110.4670         0.323045   
     95. A(C  12,C  13,C  14)          113.6174         0.361664   
     96. A(C  13,C  14,H  34)          109.2198         0.316004   
     97. A(C   1,C  14,H  34)          109.1085         0.322395   
     98. A(C  13,C  14,H  33)          109.1892         0.315962   
     99. A(C   1,C  14,H  33)          110.7628         0.322351   
    100. A(H  33,C  14,H  34)          105.7166         0.283733   
    101. A(C   1,C  14,C  13)          112.6025         0.361022   
    102. A(H  36,C  15,H  37)          109.0909         0.284787   
    103. A(H  35,C  15,H  37)          107.6201         0.284827   
    104. A(C  11,C  15,H  37)          110.9403         0.324998   
    105. A(H  35,C  15,H  36)          108.1771         0.284260   
    106. A(C  11,C  15,H  36)          109.6166         0.324315   
    107. A(C  11,C  15,H  35)          111.3161         0.324363   
    108. D(C   2,C   1,C   0,H  18)    -58.9305         0.012067   
    109. D(C  14,C   1,C   0,H  16)   -107.3972         0.012067   
    110. D(C   2,C   1,C   0,H  16)     62.2674         0.012067   
    111. D(C  14,C   1,C   0,H  17)     12.0057         0.012067   
    112. D(C   2,C   1,C   0,H  17)   -178.3297         0.012067   
    113. D(C   3,C   2,C   1,C   0)    -13.9826         0.036244   
    114. D(C   3,C   2,C   1,C  14)    155.6710         0.036244   
    115. D(H  19,C   2,C   1,C   0)    177.8217         0.036244   
    116. D(H  19,C   2,C   1,C  14)    -12.5247         0.036244   
    117. D(H  20,C   3,C   2,H  19)   -179.8471         0.012297   
    118. D(H  20,C   3,C   2,C   1)     11.5950         0.012297   
    119. D(H  21,C   3,C   2,C   1)    127.3147         0.012297   
    120. D(C   4,C   3,C   2,H  19)     58.9252         0.012297   
    121. D(C   4,C   3,C   2,C   1)   -109.6327         0.012297   
    122. D(C   5,C   4,C   3,C   2)    -99.3644         0.011084   
    123. D(C   8,C   4,C   3,H  20)    -44.7871         0.011084   
    124. D(C   8,C   4,C   3,C   2)     78.4744         0.011084   
    125. D(C   5,C   4,C   3,H  21)     21.1534         0.011084   
    126. D(C   5,C   4,C   3,H  20)    137.3742         0.011084   
    127. D(C   7,C   5,C   4,C   8)      6.1353         0.033525   
    128. D(C   7,C   5,C   4,C   3)   -176.1482         0.033525   
    129. D(C   6,C   5,C   4,C   3)      3.6932         0.033525   
    130. D(C   6,C   5,C   4,C   8)   -174.0234         0.033525   
    131. D(H  24,C   6,C   5,C   4)    172.5775         0.011989   
    132. D(H  23,C   6,C   5,C   7)    111.9786         0.011989   
    133. D(H  23,C   6,C   5,C   4)    -67.8705         0.011989   
    134. D(H  22,C   6,C   5,C   7)   -126.5531         0.011989   
    135. D(H  22,C   6,C   5,C   4)     53.5978         0.011989   
    136. D(H  26,C   7,C   5,C   4)     34.0480         0.011992   
    137. D(H  25,C   7,C   5,C   6)     91.7227         0.011992   
    138. D(H  25,C   7,C   5,C   4)    -88.4288         0.011992   
    139. D(H  27,C   7,C   5,C   4)    152.5623         0.011992   
    140. D(H  26,C   7,C   5,C   6)   -145.8005         0.011992   
    141. D(C  10,C   8,C   4,C   5)     64.0259         0.012912   
    142. D(C  10,C   8,C   4,C   3)   -113.8207         0.012912   
    143. D(O   9,C   8,C   4,C   5)   -120.4406         0.012912   
    144. D(O   9,C   8,C   4,C   3)     61.7128         0.012912   
    145. D(H  29,C  10,C   8,C   4)    -62.7197         0.011721   
    146. D(H  28,C  10,C   8,O   9)      5.7227         0.011721   
    147. D(H  28,C  10,C   8,C   4)   -178.7503         0.011721   
    148. D(C  11,C  10,C   8,O   9)   -115.0400         0.011721   
    149. D(C  11,C  10,C   8,C   4)     60.4870         0.011721   
    150. D(C  15,C  11,C  10,H  28)    130.9742         0.011711   
    151. D(C  15,C  11,C  10,C   8)   -107.8521         0.011711   
    152. D(C  12,C  11,C  10,H  29)   -166.0584         0.011711   
    153. D(C  12,C  11,C  10,H  28)    -50.1323         0.011711   
    154. D(C  12,C  11,C  10,C   8)     71.0414         0.011711   
    155. D(H  30,C  12,C  11,C  15)   -175.5361         0.036788   
    156. D(H  30,C  12,C  11,C  10)      5.5950         0.036788   
    157. D(C  13,C  12,C  11,C  15)     14.1449         0.036788   
    158. D(C  13,C  12,C  11,C  10)   -164.7240         0.036788   
    159. D(H  32,C  13,C  12,C  11)   -167.7090         0.011530   
    160. D(H  31,C  13,C  12,H  30)    137.7127         0.011530   
    161. D(H  31,C  13,C  12,C  11)    -51.7595         0.011530   
    162. D(C  14,C  13,C  12,H  30)    -97.7171         0.011530   
    163. D(C  14,C  13,C  12,C  11)     72.8107         0.011530   
    164. D(C   1,C  14,C  13,C  12)     24.3086         0.009602   
    165. D(H  34,C  14,C   1,C   0)    -50.5125         0.011304   
    166. D(H  33,C  14,C   1,C   2)     23.4741         0.011304   
    167. D(H  33,C  14,C   1,C   0)   -166.4845         0.011304   
    168. D(C  13,C  14,C   1,C   2)    -99.1140         0.011304   
    169. D(C   1,C  14,C  13,H  31)    148.9671         0.009602   
    170. D(C  13,C  14,C   1,C   0)     70.9274         0.011304   
    171. D(H  33,C  14,C  13,H  32)    141.7141         0.009602   
    172. D(H  33,C  14,C  13,H  31)     25.4991         0.009602   
    173. D(H  33,C  14,C  13,C  12)    -99.1594         0.009602   
    174. D(C   1,C  14,C  13,H  32)    -94.8179         0.009602   
    175. D(H  37,C  15,C  11,C  10)    119.8068         0.011994   
    176. D(H  36,C  15,C  11,C  12)     61.4889         0.011994   
    177. D(H  36,C  15,C  11,C  10)   -119.6517         0.011994   
    178. D(H  35,C  15,C  11,C  12)   -178.8697         0.011994   
    179. D(H  35,C  15,C  11,C  10)     -0.0102         0.011994   
    -----------------------------------------------------------------

Number of atoms                         .... 38
Number of degrees of freedom            .... 179


         *************************************************************
         *                GEOMETRY OPTIMIZATION CYCLE   1            *
         *************************************************************
---------------------------------
CARTESIAN COORDINATES (ANGSTROEM)
---------------------------------
  C      1.832507    2.596983   -0.551190
  C      1.312597    1.381946   -1.279728
  C      0.002321    1.044970   -1.274685
  C     -1.026831    1.621037   -0.337510
  C     -1.443960    0.543586    0.652126
  C     -2.589642   -0.177799    0.497285
  C     -3.472741   -0.003917   -0.715178
  C     -3.041323   -1.185609    1.527037
  C     -0.501812    0.286867    1.775740
  O     -0.254497    1.221804    2.583505
  C      0.242638   -1.022222    1.924058
  C      1.129764   -1.279169    0.725188
  C      2.236241   -0.521254    0.561985
  C      3.029989   -0.425970   -0.725618
  C      2.316026    0.388021   -1.837294
  C      0.748677   -2.351038   -0.267727
  H      1.650770    2.500966    0.539628
  H      2.926219    2.710127   -0.705914
  H      1.332399    3.510337   -0.936391
  H     -0.319202    0.179386   -1.846452
  H     -0.650301    2.502552    0.219051
  H     -1.875622    2.004192   -0.936998
  H     -2.878364   -0.130747   -1.644414
  H     -3.945087    1.000590   -0.701516
  H     -4.285393   -0.760309   -0.738678
  H     -2.593903   -2.175617    1.303865
  H     -2.772072   -0.864464    2.555313
  H     -4.145833   -1.298343    1.508552
  H      0.869049   -0.998285    2.842910
  H     -0.470300   -1.854379    2.071175
  H      2.503137    0.185398    1.344152
  H      3.290511   -1.439950   -1.097294
  H      3.989639    0.082362   -0.488619
  H      1.823885   -0.313784   -2.545158
  H      3.076226    0.935261   -2.435566
  H     -0.197912   -2.852140    0.023017
  H      1.548225   -3.119820   -0.311424
  H      0.603975   -1.921570   -1.277232

----------------------------
CARTESIAN COORDINATES (A.U.)
----------------------------
  NO LB      ZA    FRAG     MASS         X           Y           Z
   0 C     4.0000*   0    12.011    3.462936    4.907587   -1.041598
   1 C     4.0000*   0    12.011    2.480449    2.611499   -2.418335
   2 C     4.0000*   0    12.011    0.004386    1.974707   -2.408806
   3 C     4.0000*   0    12.011   -1.940429    3.063316   -0.637801
   4 C     4.0000*   0    12.011   -2.728689    1.027229    1.232340
   5 C     4.0000*   0    12.011   -4.893714   -0.335991    0.939732
   6 C     4.0000*   0    12.011   -6.562529   -0.007402   -1.351491
   7 C     4.0000*   0    12.011   -5.747268   -2.240476    2.885682
   8 C     4.0000*   0    12.011   -0.948287    0.542100    3.355662
   9 O     6.0000*   0    15.999   -0.480930    2.308875    4.882117
  10 C     4.0000*   0    12.011    0.458519   -1.931720    3.635943
  11 C     4.0000*   0    12.011    2.134945   -2.417279    1.370407
  12 C     4.0000*   0    12.011    4.225883   -0.985027    1.061998
  13 C     4.0000*   0    12.011    5.725849   -0.804967   -1.371219
  14 C     4.0000*   0    12.011    4.376655    0.733253   -3.471982
  15 C     4.0000*   0    12.011    1.414794   -4.442818   -0.505931
  16 H     1.0000    0     1.008    3.119503    4.726141    1.019749
  17 H     1.0000    0     1.008    5.529753    5.121398   -1.333984
  18 H     1.0000    0     1.008    2.517869    6.633576   -1.769523
  19 H     1.0000    0     1.008   -0.603204    0.338990   -3.489289
  20 H     1.0000    0     1.008   -1.228891    4.729138    0.413946
  21 H     1.0000    0     1.008   -3.544412    3.787374   -1.770670
  22 H     1.0000    0     1.008   -5.439320   -0.247076   -3.107492
  23 H     1.0000    0     1.008   -7.455134    1.890841   -1.325673
  24 H     1.0000    0     1.008   -8.098219   -1.436776   -1.395899
  25 H     1.0000    0     1.008   -4.901766   -4.111320    2.463948
  26 H     1.0000    0     1.008   -5.238457   -1.633600    4.828842
  27 H     1.0000    0     1.008   -7.834489   -2.453513    2.850750
  28 H     1.0000    0     1.008    1.642265   -1.886485    5.372321
  29 H     1.0000    0     1.008   -0.888738   -3.504268    3.913954
  30 H     1.0000    0     1.008    4.730243    0.350351    2.540079
  31 H     1.0000    0     1.008    6.218165   -2.721111   -2.073585
  32 H     1.0000    0     1.008    7.539325    0.155642   -0.923356
  33 H     1.0000    0     1.008    3.446643   -0.592966   -4.809652
  34 H     1.0000    0     1.008    5.813225    1.767387   -4.602553
  35 H     1.0000    0     1.008   -0.373999   -5.389763    0.043496
  36 H     1.0000    0     1.008    2.925721   -5.895605   -0.588506
  37 H     1.0000    0     1.008    1.141347   -3.631241   -2.413619
* core charge reduced due to ECP

--------------------------------
INTERNAL COORDINATES (ANGSTROEM)
--------------------------------
 C      0   0   0     0.000000000000     0.00000000     0.00000000
 C      1   0   0     1.509102029988     0.00000000     0.00000000
 C      2   1   0     1.352923298861   122.16739835     0.00000000
 C      3   2   1     1.506420926640   124.66054722   346.01737797
 C      4   3   2     1.521274686747   108.73497471   250.36730273
 C      5   4   3     1.362702938512   122.10993598   260.63563468
 C      6   5   4     1.510021629015   121.46417421     3.69315218
 C      6   5   4     1.509995332233   121.82458105   183.85180818
 C      5   4   3     1.488642307561   116.07950907    78.47438427
 O      9   5   4     1.260061981975   118.69348529    61.71280730
 C      9   5   4     1.513247514964   122.31128906   246.17925371
 C     11   9   5     1.513374896576   110.95367562    60.48696649
 C     12  11   9     1.351059479802   118.71936721    71.04135393
 C     13  12  11     1.515597708420   124.52760292   195.27600919
 C      2   1   3     1.518432253353   118.46518915   190.33534534
 C     12  11   9     1.509970414265   119.57074789   252.14785235
 H      1   2   3     1.110014193865   110.38721482    62.26740950
 H      1   2   3     1.110381474925   110.73923616   181.67032547
 H      1   2   3     1.110271746637   109.85649980   301.06947746
 H      3   2   1     1.086061785938   118.89850813   177.82170025
 H      4   3   2     1.108423963493   112.60824655    11.59496648
 H      4   3   2     1.107537709448   108.60997524   127.31467697
 H      7   6   5     1.110337521083   110.22834963    53.59780780
 H      7   6   5     1.110104367620   110.06938840   292.12953965
 H      7   6   5     1.110443326230   111.50276333   172.57753231
 H      8   6   5     1.109101545418   109.74691081   271.57119852
 H      8   6   5     1.110397111038   111.46658148    34.04799179
 H      8   6   5     1.110402174926   110.72899494   152.56233279
 H     11   9   5     1.112318622875   109.84016641   181.24967410
 H     11   9   5     1.105626191885   110.29955338   297.28034565
 H     13  12  11     1.087371022149   118.59985897     5.59500176
 H     14  13  12     1.110932131977   110.46696294   308.24050486
 H     14  13  12     1.111529608569   107.44355752   192.29095071
 H     15   2   1     1.111667425268   110.76283393   193.51548519
 H     15   2   1     1.111442775668   109.10854620   309.48750613
 H     16  12  11     1.109804497585   111.31608015     0.00000000
 H     16  12  11     1.110050537425   109.61664482   240.34830687
 H     16  12  11     1.106563046940   110.94030078   119.80676667

---------------------------
INTERNAL COORDINATES (A.U.)
---------------------------
 C      0   0   0     0.000000000000     0.00000000     0.00000000
 C      1   0   0     2.851789544821     0.00000000     0.00000000
 C      2   1   0     2.556654515049   122.16739835     0.00000000
 C      3   2   1     2.846722993757   124.66054722   346.01737797
 C      4   3   2     2.874792532419   108.73497471   250.36730273
 C      5   4   3     2.575135355678   122.10993598   260.63563468
 C      6   5   4     2.853527335137   121.46417421     3.69315218
 C      6   5   4     2.853477641420   121.82458105   183.85180818
 C      5   4   3     2.813126272659   116.07950907    78.47438427
 O      9   5   4     2.381172057699   118.69348529    61.71280730
 C      9   5   4     2.859623376119   122.31128906   246.17925371
 C     11   9   5     2.859864092479   110.95367562    60.48696649
 C     12  11   9     2.553132407464   118.71936721    71.04135393
 C     13  12  11     2.864064598113   124.52760292   195.27600919
 C      2   1   3     2.869421111750   118.46518915   190.33534534
 C     12  11   9     2.853430553284   119.57074789   252.14785235
 H      1   2   3     2.097622831170   110.38721482    62.26740950
 H      1   2   3     2.098316891787   110.73923616   181.67032547
 H      1   2   3     2.098109535375   109.85649980   301.06947746
 H      3   2   1     2.052359339939   118.89850813   177.82170025
 H      4   3   2     2.094617731278   112.60824655    11.59496648
 H      4   3   2     2.092942953848   108.60997524   127.31467697
 H      7   6   5     2.098233831064   110.22834963    53.59780780
 H      7   6   5     2.097793234872   110.06938840   292.12953965
 H      7   6   5     2.098433773815   111.50276333   172.57753231
 H      8   6   5     2.095898175548   109.74691081   271.57119852
 H      8   6   5     2.098346439760   111.46658148    34.04799179
 H      8   6   5     2.098356009121   110.72899494   152.56233279
 H     11   9   5     2.101977570894   109.84016641   181.24967410
 H     11   9   5     2.089330709153   110.29955338   297.28034565
 H     13  12  11     2.054833437823   118.59985897     5.59500176
 H     14  13  12     2.099357482811   110.46696294   308.24050486
 H     14  13  12     2.100486549940   107.44355752   192.29095071
 H     15   2   1     2.100746985758   110.76283393   193.51548519
 H     15   2   1     2.100322459537   109.10854620   309.48750613
 H     16  12  11     2.097226562631   111.31608015     0.00000000
 H     16  12  11     2.097691510545   109.61664482   240.34830687
 H     16  12  11     2.091101108634   110.94030078   119.80676667

---------------------
BASIS SET INFORMATION
---------------------
There are 3 groups of distinct atoms

 Group   1 Type C   : 6s6p2d contracted to 2s2p1d pattern {42/42/2}
 Group   2 Type O   : 6s6p2d contracted to 2s2p1d pattern {42/42/2}
 Group   3 Type H   : 8s2p contracted to 2s1p pattern {53/2}

Atom   0C    basis set group =>   1
Atom   1C    basis set group =>   1
Atom   2C    basis set group =>   1
Atom   3C    basis set group =>   1
Atom   4C    basis set group =>   1
Atom   5C    basis set group =>   1
Atom   6C    basis set group =>   1
Atom   7C    basis set group =>   1
Atom   8C    basis set group =>   1
Atom   9O    basis set group =>   2
Atom  10C    basis set group =>   1
Atom  11C    basis set group =>   1
Atom  12C    basis set group =>   1
Atom  13C    basis set group =>   1
Atom  14C    basis set group =>   1
Atom  15C    basis set group =>   1
Atom  16H    basis set group =>   3
Atom  17H    basis set group =>   3
Atom  18H    basis set group =>   3
Atom  19H    basis set group =>   3
Atom  20H    basis set group =>   3
Atom  21H    basis set group =>   3
Atom  22H    basis set group =>   3
Atom  23H    basis set group =>   3
Atom  24H    basis set group =>   3
Atom  25H    basis set group =>   3
Atom  26H    basis set group =>   3
Atom  27H    basis set group =>   3
Atom  28H    basis set group =>   3
Atom  29H    basis set group =>   3
Atom  30H    basis set group =>   3
Atom  31H    basis set group =>   3
Atom  32H    basis set group =>   3
Atom  33H    basis set group =>   3
Atom  34H    basis set group =>   3
Atom  35H    basis set group =>   3
Atom  36H    basis set group =>   3
Atom  37H    basis set group =>   3
---------------------------------
AUXILIARY/J BASIS SET INFORMATION
---------------------------------
There are 3 groups of distinct atoms

 Group   1 Type C   : 12s5p4d2f1g contracted to 6s4p3d1f1g pattern {711111/2111/211/2/1}
 Group   2 Type O   : 12s5p4d2f1g contracted to 6s4p3d1f1g pattern {711111/2111/211/2/1}
 Group   3 Type H   : 5s2p1d contracted to 3s1p1d pattern {311/2/1}

Atom   0C    basis set group =>   1
Atom   1C    basis set group =>   1
Atom   2C    basis set group =>   1
Atom   3C    basis set group =>   1
Atom   4C    basis set group =>   1
Atom   5C    basis set group =>   1
Atom   6C    basis set group =>   1
Atom   7C    basis set group =>   1
Atom   8C    basis set group =>   1
Atom   9O    basis set group =>   2
Atom  10C    basis set group =>   1
Atom  11C    basis set group =>   1
Atom  12C    basis set group =>   1
Atom  13C    basis set group =>   1
Atom  14C    basis set group =>   1
Atom  15C    basis set group =>   1
Atom  16H    basis set group =>   3
Atom  17H    basis set group =>   3
Atom  18H    basis set group =>   3
Atom  19H    basis set group =>   3
Atom  20H    basis set group =>   3
Atom  21H    basis set group =>   3
Atom  22H    basis set group =>   3
Atom  23H    basis set group =>   3
Atom  24H    basis set group =>   3
Atom  25H    basis set group =>   3
Atom  26H    basis set group =>   3
Atom  27H    basis set group =>   3
Atom  28H    basis set group =>   3
Atom  29H    basis set group =>   3
Atom  30H    basis set group =>   3
Atom  31H    basis set group =>   3
Atom  32H    basis set group =>   3
Atom  33H    basis set group =>   3
Atom  34H    basis set group =>   3
Atom  35H    basis set group =>   3
Atom  36H    basis set group =>   3
Atom  37H    basis set group =>   3
-------------------------
ECP PARAMETER INFORMATION
-------------------------

 Group 1, Type C  ECP vDZP-ECP (replacing 2 core electrons, lmax=3)
 Group 2, Type O  ECP vDZP-ECP (replacing 2 core electrons, lmax=3)

Atom   0C    ECP group =>   1
Atom   1C    ECP group =>   1
Atom   2C    ECP group =>   1
Atom   3C    ECP group =>   1
Atom   4C    ECP group =>   1
Atom   5C    ECP group =>   1
Atom   6C    ECP group =>   1
Atom   7C    ECP group =>   1
Atom   8C    ECP group =>   1
Atom   9O    ECP group =>   2
Atom  10C    ECP group =>   1
Atom  11C    ECP group =>   1
Atom  12C    ECP group =>   1
Atom  13C    ECP group =>   1
Atom  14C    ECP group =>   1
Atom  15C    ECP group =>   1



           ************************************************************
           *        Program running with 40 parallel MPI-processes    *
           *              working on a common directory               *
           ************************************************************
------------------------------------------------------------------------------
                             ORCA STARTUP CALCULATIONS
                           -- RI-GTO INTEGRALS CHOSEN --
------------------------------------------------------------------------------
------------------------------------------------------------------------------
                   ___                                                        
                  /   \      - P O W E R E D   B Y -                         
                 /     \                                                     
                 |  |  |   _    _      __       _____    __    __             
                 |  |  |  | |  | |    /  \     |  _  \  |  |  /  |          
                  \  \/   | |  | |   /    \    | | | |  |  | /  /          
                 / \  \   | |__| |  /  /\  \   | |_| |  |  |/  /          
                |  |  |   |  __  | /  /__\  \  |    /   |      \           
                |  |  |   | |  | | |   __   |  |    \   |  |\   \          
                \     /   | |  | | |  |  |  |  | |\  \  |  | \   \       
                 \___/    |_|  |_| |__|  |__|  |_| \__\ |__|  \__/        
                                                                              
                      - O R C A' S   B I G   F R I E N D -                    
                                      &                                       
                       - I N T E G R A L  F E E D E R -                       
                                                                              
 v1 FN, 2020, v2 2021, v3 2022-2024                                           
------------------------------------------------------------------------------


----------------------
SHARK INTEGRAL PACKAGE
----------------------

Number of atoms                             ...     38
Number of basis functions                   ...    318
Number of shells                            ...    146
Maximum angular momentum                    ...      2
Integral batch strategy                     ... SHARK/LIBINT Hybrid
RI-J (if used) integral strategy            ... SPLIT-RIJ (Revised 2003 algorithm where possible)
Printlevel                                  ...      1
Contraction scheme used                     ... SEGMENTED contraction
Prescreening option                         ... SCHWARTZ
   Thresh                                   ... 2.500e-11
   Tcut                                     ... 2.500e-12
   Tpresel                                  ... 2.500e-12 
Coulomb Range Separation                    ... NOT USED
Exchange Range Separation                   ... Long Range
   Mu parameter                             ... 3.000e-01
   Scaling (regular/separated)              ... 1.670e-01 8.330e-01
Multipole approximations                    ... NOT USED
Finite Nucleus Model                        ... NOT USED
CABS basis                                  ... NOT available
Auxiliary Coulomb fitting basis             ... AVAILABLE
   # of basis functions in Aux-J            ...   1026
   # of shells in Aux-J                     ...    350
   Maximum angular momentum in Aux-J        ...      4
Auxiliary J/K fitting basis                 ... NOT available
Auxiliary Correlation fitting basis         ... NOT available
Auxiliary 'external' fitting basis          ... NOT available

Checking pre-screening integrals            ... done (  0.0 sec) Dimension = 146
Check shell pair data                       ... done (  0.0 sec)
Shell pair information
Shell pair cut-off parameter TPreSel        ...   2.5e-12
Total number of shell pairs                 ...     10731
Shell pairs after pre-screening             ...     10682
Total number of primitive shell pairs       ...     99338
Primitive shell pairs kept                  ...     76700
          la=0 lb=0:   2920 shell pairs
          la=1 lb=0:   4082 shell pairs
          la=1 lb=1:   1464 shell pairs
          la=2 lb=0:   1216 shell pairs
          la=2 lb=1:    864 shell pairs
          la=2 lb=2:    136 shell pairs

Calculating one electron integrals          ... done (  0.0 sec)
Calculating ECP integrals                   ... done (  0.2 sec)
Calculating RI/J V-Matrix + Cholesky decomp.... done (  0.1 sec)
Calculating Nuclear repulsion               ... done (  0.0 sec) ENN=    618.720569685351 Eh

Diagonalization of the overlap matrix:
Smallest eigenvalue                        ... 7.461e-04
Time for diagonalization                   ...    0.014 sec
Threshold for overlap eigenvalues          ... 1.000e-07
Number of eigenvalues below threshold      ... 0
Time for construction of square roots      ...    0.010 sec
Total time needed                          ...    0.028 sec

-------------------
DFT GRID GENERATION
-------------------

General Integration Accuracy     IntAcc      ... 4.388
Radial Grid Type                 RadialGrid  ... OptM3 with GC (2021)
Angular Grid (max. ang.)         AngularGrid ... 4 (Lebedev-302)
Angular grid pruning method      GridPruning ... 4 (adaptive)
Weight generation scheme         WeightScheme... mBecke (2022)
Basis function cutoff            BFCut       ... 1.0000e-11
Integration weight cutoff        WCut        ... 1.0000e-14
Partially contracted basis set               ... off
Rotationally invariant grid construction     ... off
Angular grids for H and He will be reduced by one unit

Total number of grid points                  ...   164724
Total number of batches                      ...     2592
Average number of points per batch           ...       63
Average number of grid points per atom       ...     4335

--------------------
COSX GRID GENERATION
--------------------

GRIDX 1
-------
General Integration Accuracy     IntAcc      ... 3.816
Radial Grid Type                 RadialGrid  ... OptM3 with GC (2021)
Angular Grid (max. ang.)         AngularGrid ... 1 (Lebedev-50)
Angular grid pruning method      GridPruning ... 4 (adaptive)
Weight generation scheme         WeightScheme... mBecke (2022)
Basis function cutoff            BFCut       ... 1.0000e-11
Integration weight cutoff        WCut        ... 1.0000e-14
Partially contracted basis set               ... on
Rotationally invariant grid construction     ... off
Angular grids for H and He will be reduced by one unit

Total number of grid points                  ...    20980
Total number of batches                      ...      189
Average number of points per batch           ...      111
Average number of grid points per atom       ...      552
UseSFitting                                  ... on

GRIDX 2
-------
General Integration Accuracy     IntAcc      ... 4.020
Radial Grid Type                 RadialGrid  ... OptM3 with GC (2021)
Angular Grid (max. ang.)         AngularGrid ... 2 (Lebedev-110)
Angular grid pruning method      GridPruning ... 4 (adaptive)
Weight generation scheme         WeightScheme... mBecke (2022)
Basis function cutoff            BFCut       ... 1.0000e-11
Integration weight cutoff        WCut        ... 1.0000e-14
Partially contracted basis set               ... on
Rotationally invariant grid construction     ... off
Angular grids for H and He will be reduced by one unit

Total number of grid points                  ...    43813
Total number of batches                      ...      364
Average number of points per batch           ...      120
Average number of grid points per atom       ...     1153
UseSFitting                                  ... on

GRIDX 3
-------
General Integration Accuracy     IntAcc      ... 4.338
Radial Grid Type                 RadialGrid  ... OptM3 with GC (2021)
Angular Grid (max. ang.)         AngularGrid ... 3 (Lebedev-194)
Angular grid pruning method      GridPruning ... 4 (adaptive)
Weight generation scheme         WeightScheme... mBecke (2022)
Basis function cutoff            BFCut       ... 1.0000e-11
Integration weight cutoff        WCut        ... 1.0000e-14
Partially contracted basis set               ... on
Rotationally invariant grid construction     ... off
Angular grids for H and He will be reduced by one unit

Total number of grid points                  ...    95186
Total number of batches                      ...      768
Average number of points per batch           ...      123
Average number of grid points per atom       ...     2505
UseSFitting                                  ... on
Initializing property integral containers    ... done (  0.0 sec)

SHARK setup successfully completed in   5.3 seconds

Maximum memory used throughout the entire STARTUP-calculation: 54.4 MB


           ************************************************************
           *        Program running with 40 parallel MPI-processes    *
           *              working on a common directory               *
           ************************************************************
-------------------------------------------------------------------------------
                                 ORCA GUESS
                   Start orbitals & Density for SCF / CASSCF
-------------------------------------------------------------------------------

------------
SCF SETTINGS
------------
Hamiltonian:
 Density Functional     Method          .... DFT(GTOs)
 Exchange Functional    Exchange        .... WB97X-V
 Correlation Functional Correlation     .... WB97X-V
 Gradients option       PostSCFGGA      .... off
 Hybrid DFT is turned on
   Fraction HF Exchange ScalHFX         ....  0.167000
   Scaling of DF-GGA-X  ScalDFX         ....  0.000000
   Scaling of DF-GGA-C  ScalDFC         ....  1.000000
   Scaling of DF-LDA-C  ScalLDAC        ....  1.000000
   Perturbative correction              ....  0.000000
 Long-range corrected/Screened/Range-Separated Hybrid DFT is turned on
   Amount of maximum screened exact exchange              ....  0.833000
   Range separation parameter mu (erf(mu*r12)/r12)        ....  0.300000
   NL short-range parameter             ....  6.000000
   NL long-range parameter              ....  0.010000
 RI-approximation to the Coulomb term is turned on
   Number of AuxJ basis functions       .... 1026
   RIJ-COSX (HFX calculated with COS-X)).... on


General Settings:
 Integral files         IntName         .... ./output/germacrone/germacrone
 Hartree-Fock type      HFTyp           .... RHF
 Total Charge           Charge          ....    0
 Multiplicity           Mult            ....    1
 Number of Electrons    NEL             ....   88
 Basis Dimension        Dim             ....  318
 Nuclear Repulsion      ENuc            ....    618.7205696854 Eh

Convergence Acceleration:
 AO-DIIS                CNVDIIS         .... on
   Start iteration      DIISMaxIt       ....    12
   Startup error        DIISStart       ....  0.200000
   # of expansion vecs  DIISMaxEq       ....     5
   Bias factor          DIISBfac        ....   1.050
   Max. coefficient     DIISMaxC        ....  10.000
 MO-DIIS                CNVKDIIS        .... off
 Trust-Rad. Augm. Hess. CNVTRAH         .... auto
   Auto Start mean grad. ratio tolernc. ....  1.125000
   Auto Start start iteration           ....    50
   Auto Start num. interpolation iter.  ....    10
   Max. Number of Micro iterations      ....    24
   Max. Number of Macro iterations      .... Maxiter - #DIIS iter
   Number of Davidson start vectors     ....     2
   Converg. threshold    (grad. norm)   ....   1.000e-05
   Grad. Scal. Fac. for Micro threshold ....   0.100
   Minimum threshold for Micro iter.    ....   1.000e-02
   NR start threshold (gradient norm)   ....   1.000e-04
   Initial trust radius                 ....   0.400
   Minimum AH scaling param. (alpha)    ....   1.000
   Maximum AH scaling param. (alpha)    .... 1000.000
   Quad. conv. algorithm                .... NR
   White noise on init. David. guess    .... on
   Maximum white noise                  ....   0.010
   Pseudo random numbers                .... off
   Inactive MOs                         .... canonical
   Orbital update algorithm             .... Taylor
   Preconditioner                       .... Diag
   Full preconditioner red. dimension   ....   250
 SOSCF                  CNVSOSCF        .... on
   Start iteration      SOSCFMaxIt      ....   150
   Startup grad/error   SOSCFStart      ....  0.003300
   Hessian update       SOSCFHessUp     .... L-BFGS
 Level Shifting         CNVShift        .... on
   Level shift para.    LevelShift      ....    0.2500
   Turn off err/grad.   ShiftErr        ....    0.0010
 Zerner damping         CNVZerner       .... off
 Static damping         CNVDamp         .... on
   Fraction old density DampFac         ....    0.7000
   Max. Damping (<1)    DampMax         ....    0.9800
   Min. Damping (>=0)   DampMin         ....    0.0000
   Turn off err/grad.   DampErr         ....    0.1000

SCF Procedure:
 Maximum # iterations   MaxIter         ....   125
 SCF integral mode      SCFMode         .... Direct
   Integral package                     .... SHARK and LIBINT hybrid scheme
 Reset frequency        DirectResetFreq ....    20
 Integral Threshold     Thresh          ....  2.500e-11 Eh
 Primitive CutOff       TCut            ....  2.500e-12 Eh

Convergence Tolerance:
 Convergence Check Mode ConvCheckMode   .... Total+1el-Energy
 Convergence forced     ConvForced      .... 0
 Energy Change          TolE            ....  1.000e-08 Eh
 1-El. energy change                    ....  1.000e-05 Eh
 Orbital Gradient       TolG            ....  1.000e-05
 Orbital Rotation angle TolX            ....  1.000e-05
 DIIS Error             TolErr          ....  5.000e-07

------------------------------
INITIAL GUESS: MODEL POTENTIAL
------------------------------
Loading Hartree-Fock densities                     ... done
Atomic calculation to generate a density for atom 0 (C  with ECP)
  Multiplicity assumed   :    1
  Atomic configuration   : 1s2 2s2 2p2 
  Number of open shells  : 1
  Command: /home/aspe232/Project/Software/ORCA/6_0_1/build/orca ./output/germacrone/germacrone_atom6.inp "" > ./output/germacrone/germacrone_atom6.out
Returned from the atomic calculation with res=0
Atomic calculation to generate a density for atom 9 (O  with ECP)
  Multiplicity assumed   :    3
  Atomic configuration   : 1s2 2s2 2p4 
  Number of open shells  : 1
  Command: /home/aspe232/Project/Software/ORCA/6_0_1/build/orca ./output/germacrone/germacrone_atom8.inp "" > ./output/germacrone/germacrone_atom8.out
Returned from the atomic calculation with res=0
Calculating cut-offs                               ... done
Initializing the effective Hamiltonian             ... done
Setting up the integral package (SHARK)            ... done
Starting the Coulomb interaction                   ... done (   0.1 sec)
Making the grid                                    ... done (   1.1 sec)
Mapping shells                                     ... done
Starting the XC term evaluation                    ... done (   0.1 sec)
  promolecular density results
     # of electrons  =    120.007239256
     EX              =    -60.783578287
     EC              =     -4.845515750
     EX+EC           =    -65.629094037
Transforming the Hamiltonian                       ... done (   0.0 sec)
Diagonalizing the Hamiltonian                      ... done (   0.0 sec)
Back transforming the eigenvectors                 ... done (   0.0 sec)
Now organizing SCF variables                       ... done
                      ------------------
                      INITIAL GUESS DONE (   2.6 sec)
                      ------------------
             **** ENERGY FILE WAS UPDATED (./output/germacrone/germacrone.en.tmp) ****
Finished Guess after   3.5 sec
Maximum memory used throughout the entire GUESS-calculation: 35.6 MB


           ************************************************************
           *        Program running with 40 parallel MPI-processes    *
           *              working on a common directory               *
           ************************************************************

-------------------------------------------------------------------------------------------
                                      ORCA LEAN-SCF
                              memory conserving SCF solver
-------------------------------------------------------------------------------------------

----------------------------------------D-I-I-S--------------------------------------------
Iteration    Energy (Eh)           Delta-E    RMSDP     MaxDP     DIISErr   Damp  Time(sec)
-------------------------------------------------------------------------------------------
               ***  Starting incremental Fock matrix formation  ***
    1    -114.0269115055058364     0.00e+00  3.46e-03  7.35e-02  1.84e-01  0.700   8.7
    2    -114.2795028038137843    -2.53e-01  2.53e-03  5.42e-02  1.12e-01  0.700   6.1
                               ***Turning on AO-DIIS***
    3    -114.4124842331391392    -1.33e-01  1.37e-03  2.92e-02  6.01e-02  0.700   5.9
    4    -114.4912573131584850    -7.88e-02  2.97e-03  6.04e-02  3.78e-02  0.000   6.0
    5    -114.6576140070959582    -1.66e-01  2.16e-04  4.24e-03  3.63e-03  0.000   6.2
                              *** Initializing SOSCF ***
---------------------------------------S-O-S-C-F--------------------------------------
Iteration    Energy (Eh)           Delta-E    RMSDP     MaxDP     MaxGrad    Time(sec)
--------------------------------------------------------------------------------------
    6    -114.6581184590430667    -5.04e-04  1.14e-04  4.71e-03  3.10e-03     5.6
               *** Restarting incremental Fock matrix formation ***
    7    -114.6581719388179863    -5.35e-05  8.17e-05  5.17e-03  8.84e-04     8.3
    8    -114.6581983893102006    -2.65e-05  5.41e-05  2.68e-03  7.65e-04     7.7
    9    -114.6582227998025019    -2.44e-05  1.16e-05  3.49e-04  8.58e-05     7.3
   10    -114.6582234872674917    -6.87e-07  7.81e-06  3.12e-04  8.97e-05     7.0
   11    -114.6582238623691410    -3.75e-07  2.36e-06  1.25e-04  2.73e-05     7.0
   12    -114.6582239094971101    -4.71e-08  1.24e-06  5.47e-05  1.18e-05     5.9
   13    -114.6582239274583799    -1.80e-08  4.90e-07  1.46e-05  6.55e-06     6.2
   14    -114.6582239355399224    -8.08e-09  2.36e-07  7.39e-06  2.36e-06     5.6
                 **** Energy Check signals convergence ****

               *****************************************************
               *                     SUCCESS                       *
               *           SCF CONVERGED AFTER  14 CYCLES          *
               *****************************************************

Recomputing exchange energy using gridx3       ... done (    9.844 sec)
Old exchange energy                            :    -16.816139850 Eh
New exchange energy                            :    -16.816106903 Eh
Exchange energy change after final integration :      0.000032947 Eh
Total energy after final integration           :   -114.658190988 Eh
             **** ENERGY FILE WAS UPDATED (./output/germacrone/germacrone.en.tmp) ****

----------------
TOTAL SCF ENERGY
----------------

Total Energy       :       -114.65819098804899 Eh           -3120.00799 eV

Components:
Nuclear Repulsion  :        618.72056968535071 Eh           16836.24264 eV
Electronic Energy  :       -733.37879362089063 Eh          -19956.25153 eV
One Electron Energy:      -1401.04333979523790 Eh          -38124.32748 eV
Two Electron Energy:        667.66454617434727 Eh           18168.07595 eV

Virial components:
Potential Energy   :       -203.50811851146335 Eh           -5537.73744 eV
Kinetic Energy     :         88.84992752341437 Eh            2417.72944 eV
Virial Ratio       :          2.29047028156363

DFT components:
N(Alpha)           :       43.999953585935 electrons
N(Beta)            :       43.999953585935 electrons
N(Total)           :       87.999907171870 electrons
E(X)               :      -17.627707046520 Eh       
E(C)               :       -3.313470467937 Eh       
E(XC)              :      -20.941177514457 Eh       

---------------
SCF CONVERGENCE
---------------

  Last Energy change         ...    8.0815e-09  Tolerance :   1.0000e-08
  Last MAX-Density change    ...    7.3925e-06  Tolerance :   1.0000e-07
  Last RMS-Density change    ...    2.3588e-07  Tolerance :   5.0000e-09
  Last DIIS Error            ...    3.0998e-03  Tolerance :   5.0000e-07
  Last Orbital Gradient      ...    2.3587e-06  Tolerance :   1.0000e-05
  Last Orbital Rotation      ...    1.2447e-05  Tolerance :   1.0000e-05


----------------
ORBITAL ENERGIES
----------------

  NO   OCC          E(Eh)            E(eV) 
   0   2.0000      -1.142186       -31.0805 
   1   2.0000      -0.984434       -26.7878 
   2   2.0000      -0.965814       -26.2811 
   3   2.0000      -0.949667       -25.8417 
   4   2.0000      -0.906791       -24.6750 
   5   2.0000      -0.871493       -23.7145 
   6   2.0000      -0.858159       -23.3517 
   7   2.0000      -0.834978       -22.7209 
   8   2.0000      -0.820252       -22.3202 
   9   2.0000      -0.817613       -22.2484 
  10   2.0000      -0.766177       -20.8487 
  11   2.0000      -0.734459       -19.9857 
  12   2.0000      -0.703909       -19.1543 
  13   2.0000      -0.646601       -17.5949 
  14   2.0000      -0.636523       -17.3207 
  15   2.0000      -0.615013       -16.7354 
  16   2.0000      -0.599636       -16.3169 
  17   2.0000      -0.586281       -15.9535 
  18   2.0000      -0.578786       -15.7496 
  19   2.0000      -0.572295       -15.5729 
  20   2.0000      -0.564677       -15.3657 
  21   2.0000      -0.557664       -15.1748 
  22   2.0000      -0.545490       -14.8436 
  23   2.0000      -0.536223       -14.5914 
  24   2.0000      -0.529500       -14.4084 
  25   2.0000      -0.522063       -14.2060 
  26   2.0000      -0.515771       -14.0348 
  27   2.0000      -0.510490       -13.8911 
  28   2.0000      -0.505423       -13.7533 
  29   2.0000      -0.500617       -13.6225 
  30   2.0000      -0.498806       -13.5732 
  31   2.0000      -0.484898       -13.1947 
  32   2.0000      -0.477317       -12.9885 
  33   2.0000      -0.474954       -12.9242 
  34   2.0000      -0.456733       -12.4283 
  35   2.0000      -0.451642       -12.2898 
  36   2.0000      -0.449373       -12.2281 
  37   2.0000      -0.442650       -12.0451 
  38   2.0000      -0.427888       -11.6434 
  39   2.0000      -0.426387       -11.6026 
  40   2.0000      -0.365031        -9.9330 
  41   2.0000      -0.343954        -9.3595 
  42   2.0000      -0.330935        -9.0052 
  43   2.0000      -0.317890        -8.6502 
  44   0.0000       0.034825         0.9476 
  45   0.0000       0.069621         1.8945 
  46   0.0000       0.077966         2.1216 
  47   0.0000       0.079794         2.1713 
  48   0.0000       0.090347         2.4585 
  49   0.0000       0.098247         2.6734 
  50   0.0000       0.105416         2.8685 
  51   0.0000       0.114923         3.1272 
  52   0.0000       0.120189         3.2705 
  53   0.0000       0.122985         3.3466 
  54   0.0000       0.128179         3.4879 
*Only the first 10 virtual orbitals were printed.

                    ********************************
                    * MULLIKEN POPULATION ANALYSIS *
                    ********************************

-----------------------
MULLIKEN ATOMIC CHARGES
-----------------------
   0 C :   -0.089697
   1 C :   -0.063991
   2 C :   -0.001980
   3 C :   -0.061364
   4 C :   -0.037713
   5 C :   -0.043875
   6 C :   -0.093819
   7 C :   -0.098353
   8 C :    0.127855
   9 O :   -0.328442
  10 C :   -0.024361
  11 C :   -0.087804
  12 C :    0.002126
  13 C :   -0.084670
  14 C :   -0.060576
  15 C :   -0.065619
  16 H :    0.064042
  17 H :    0.034028
  18 H :    0.062341
  19 H :   -0.012771
  20 H :    0.060292
  21 H :    0.048990
  22 H :    0.052241
  23 H :    0.065897
  24 H :    0.039202
  25 H :    0.047338
  26 H :    0.071194
  27 H :    0.047797
  28 H :    0.069913
  29 H :    0.039225
  30 H :    0.024636
  31 H :    0.047792
  32 H :    0.045589
  33 H :    0.038368
  34 H :    0.044278
  35 H :    0.026087
  36 H :    0.060671
  37 H :    0.035132
Sum of atomic charges:   -0.0000000

--------------------------------
MULLIKEN REDUCED ORBITAL CHARGES
--------------------------------
  0 C s       :     0.949964  s :     0.949964
      pz      :     1.029919  p :     3.067247
      px      :     1.043183
      py      :     0.994144
      dz2     :     0.021177  d :     0.072486
      dxz     :     0.006178
      dyz     :     0.012161
      dx2y2   :     0.019825
      dxy     :     0.013145

  1 C s       :     1.091381  s :     1.091381
      pz      :     0.958402  p :     2.853457
      px      :     0.955903
      py      :     0.939151
      dz2     :     0.012259  d :     0.119153
      dxz     :     0.026605
      dyz     :     0.015135
      dx2y2   :     0.029232
      dxy     :     0.035922

  2 C s       :     1.038252  s :     1.038252
      pz      :     0.967999  p :     2.870560
      px      :     0.934106
      py      :     0.968455
      dz2     :     0.008779  d :     0.093168
      dxz     :     0.027279
      dyz     :     0.013057
      dx2y2   :     0.021155
      dxy     :     0.022897

  3 C s       :     0.973911  s :     0.973911
      pz      :     0.968379  p :     2.984989
      px      :     1.012742
      py      :     1.003868
      dz2     :     0.015447  d :     0.102465
      dxz     :     0.025556
      dyz     :     0.024851
      dx2y2   :     0.018248
      dxy     :     0.018364

  4 C s       :     1.039727  s :     1.039727
      pz      :     0.929775  p :     2.889702
      px      :     0.977140
      py      :     0.982787
      dz2     :     0.017609  d :     0.108284
      dxz     :     0.028303
      dyz     :     0.018561
      dx2y2   :     0.024643
      dxy     :     0.019168

  5 C s       :     1.103167  s :     1.103167
      pz      :     0.926552  p :     2.821136
      px      :     0.976999
      py      :     0.917585
      dz2     :     0.024260  d :     0.119572
      dxz     :     0.029088
      dyz     :     0.020857
      dx2y2   :     0.026310
      dxy     :     0.019059

  6 C s       :     0.956209  s :     0.956209
      pz      :     0.984582  p :     3.064378
      px      :     1.020033
      py      :     1.059762
      dz2     :     0.021024  d :     0.073232
      dxz     :     0.018126
      dyz     :     0.006597
      dx2y2   :     0.007722
      dxy     :     0.019763

  7 C s       :     0.953316  s :     0.953316
      pz      :     1.016881  p :     3.070939
      px      :     1.055681
      py      :     0.998377
      dz2     :     0.022209  d :     0.074099
      dxz     :     0.008731
      dyz     :     0.012838
      dx2y2   :     0.020356
      dxy     :     0.009964

  8 C s       :     1.158292  s :     1.158292
      pz      :     0.825605  p :     2.513913
      px      :     0.819580
      py      :     0.868727
      dz2     :     0.049664  d :     0.199940
      dxz     :     0.032882
      dyz     :     0.036653
      dx2y2   :     0.040535
      dxy     :     0.040207

  9 O s       :     1.802253  s :     1.802253
      pz      :     1.443615  p :     4.492823
      px      :     1.543530
      py      :     1.505678
      dz2     :     0.007830  d :     0.033365
      dxz     :     0.004148
      dyz     :     0.009804
      dx2y2   :     0.004884
      dxy     :     0.006699

 10 C s       :     0.971536  s :     0.971536
      pz      :     1.010890  p :     2.960382
      px      :     0.989816
      py      :     0.959676
      dz2     :     0.021811  d :     0.092443
      dxz     :     0.020882
      dyz     :     0.011912
      dx2y2   :     0.010810
      dxy     :     0.027029

 11 C s       :     1.091443  s :     1.091443
      pz      :     0.931412  p :     2.878144
      px      :     0.952572
      py      :     0.994161
      dz2     :     0.022692  d :     0.118217
      dxz     :     0.027058
      dyz     :     0.020533
      dx2y2   :     0.027421
      dxy     :     0.020513

 12 C s       :     1.043409  s :     1.043409
      pz      :     0.942960  p :     2.863039
      px      :     0.946181
      py      :     0.973897
      dz2     :     0.016300  d :     0.091426
      dxz     :     0.021131
      dyz     :     0.022702
      dx2y2   :     0.019311
      dxy     :     0.011982

 13 C s       :     0.999488  s :     0.999488
      pz      :     0.944653  p :     2.987695
      px      :     1.010986
      py      :     1.032056
      dz2     :     0.023077  d :     0.097486
      dxz     :     0.020830
      dyz     :     0.020779
      dx2y2   :     0.016606
      dxy     :     0.016195

 14 C s       :     0.995991  s :     0.995991
      pz      :     0.976818  p :     2.964921
      px      :     1.011832
      py      :     0.976270
      dz2     :     0.011610  d :     0.099665
      dxz     :     0.026155
      dyz     :     0.023906
      dx2y2   :     0.013219
      dxy     :     0.024775

 15 C s       :     0.950080  s :     0.950080
      pz      :     0.999983  p :     3.042720
      px      :     1.037221
      py      :     1.005516
      dz2     :     0.019987  d :     0.072818
      dxz     :     0.007882
      dyz     :     0.014502
      dx2y2   :     0.009355
      dxy     :     0.021092

 16 H s       :     0.890313  s :     0.890313
      pz      :     0.024793  p :     0.045645
      px      :     0.010704
      py      :     0.010148

 17 H s       :     0.922109  s :     0.922109
      pz      :     0.010779  p :     0.043864
      px      :     0.023151
      py      :     0.009934

 18 H s       :     0.893535  s :     0.893535
      pz      :     0.012004  p :     0.044124
      px      :     0.012619
      py      :     0.019501

 19 H s       :     0.963673  s :     0.963673
      pz      :     0.016427  p :     0.049097
      px      :     0.011300
      py      :     0.021371

 20 H s       :     0.894234  s :     0.894234
      pz      :     0.014301  p :     0.045474
      px      :     0.012570
      py      :     0.018602

 21 H s       :     0.905561  s :     0.905561
      pz      :     0.014719  p :     0.045450
      px      :     0.019011
      py      :     0.011720

 22 H s       :     0.903453  s :     0.903453
      pz      :     0.020187  p :     0.044306
      px      :     0.013796
      py      :     0.010322

 23 H s       :     0.889329  s :     0.889329
      pz      :     0.010327  p :     0.044773
      px      :     0.012910
      py      :     0.021537

 24 H s       :     0.916691  s :     0.916691
      pz      :     0.010081  p :     0.044106
      px      :     0.017729
      py      :     0.016296

 25 H s       :     0.907780  s :     0.907780
      pz      :     0.010572  p :     0.044882
      px      :     0.012629
      py      :     0.021682

 26 H s       :     0.884529  s :     0.884529
      pz      :     0.022479  p :     0.044277
      px      :     0.010630
      py      :     0.011168

 27 H s       :     0.908137  s :     0.908137
      pz      :     0.009865  p :     0.044066
      px      :     0.023574
      py      :     0.010627

 28 H s       :     0.887568  s :     0.887568
      pz      :     0.019991  p :     0.042518
      px      :     0.013957
      py      :     0.008571

 29 H s       :     0.913685  s :     0.913685
      pz      :     0.010764  p :     0.047090
      px      :     0.017266
      py      :     0.019060

 30 H s       :     0.927154  s :     0.927154
      pz      :     0.018329  p :     0.048210
      px      :     0.011880
      py      :     0.018001

 31 H s       :     0.908328  s :     0.908328
      pz      :     0.011662  p :     0.043880
      px      :     0.010775
      py      :     0.021444

 32 H s       :     0.911869  s :     0.911869
      pz      :     0.010575  p :     0.042543
      px      :     0.019638
      py      :     0.012330

 33 H s       :     0.918650  s :     0.918650
      pz      :     0.015243  p :     0.042982
      px      :     0.012277
      py      :     0.015462

 34 H s       :     0.913049  s :     0.913049
      pz      :     0.013458  p :     0.042674
      px      :     0.016408
      py      :     0.012808

 35 H s       :     0.929630  s :     0.929630
      pz      :     0.011204  p :     0.044283
      px      :     0.019980
      py      :     0.013100

 36 H s       :     0.894984  s :     0.894984
      pz      :     0.010580  p :     0.044345
      px      :     0.016994
      py      :     0.016770

 37 H s       :     0.918783  s :     0.918783
      pz      :     0.022348  p :     0.046085
      px      :     0.010927
      py      :     0.012811



                     *******************************
                     * LOEWDIN POPULATION ANALYSIS *
                     *******************************

----------------------
LOEWDIN ATOMIC CHARGES
----------------------
   0 C :   -0.115086
   1 C :   -0.042406
   2 C :   -0.051050
   3 C :   -0.079226
   4 C :   -0.036138
   5 C :   -0.029579
   6 C :   -0.113743
   7 C :   -0.115633
   8 C :    0.037859
   9 O :   -0.167200
  10 C :   -0.077596
  11 C :   -0.040160
  12 C :   -0.035656
  13 C :   -0.086523
  14 C :   -0.084374
  15 C :   -0.112055
  16 H :    0.053249
  17 H :    0.050841
  18 H :    0.057423
  19 H :    0.027664
  20 H :    0.062165
  21 H :    0.053747
  22 H :    0.054504
  23 H :    0.057739
  24 H :    0.053057
  25 H :    0.046683
  26 H :    0.059507
  27 H :    0.055809
  28 H :    0.071989
  29 H :    0.053366
  30 H :    0.039018
  31 H :    0.052190
  32 H :    0.050515
  33 H :    0.049389
  34 H :    0.048574
  35 H :    0.048667
  36 H :    0.056927
  37 H :    0.045543

-------------------------------
LOEWDIN REDUCED ORBITAL CHARGES
-------------------------------
  0 C s       :     0.774415  s :     0.774415
      pz      :     1.048776  p :     3.105942
      px      :     1.050288
      py      :     1.006879
      dz2     :     0.070357  d :     0.234728
      dxz     :     0.018210
      dyz     :     0.038934
      dx2y2   :     0.064865
      dxy     :     0.042363

  1 C s       :     0.798004  s :     0.798004
      pz      :     0.891841  p :     2.866773
      px      :     1.032568
      py      :     0.942364
      dz2     :     0.042999  d :     0.377629
      dxz     :     0.079078
      dyz     :     0.046682
      dx2y2   :     0.097107
      dxy     :     0.111763

  2 C s       :     0.803722  s :     0.803722
      pz      :     0.945703  p :     2.941977
      px      :     1.017702
      py      :     0.978572
      dz2     :     0.033256  d :     0.305351
      dxz     :     0.080428
[...]
 76:   1500.53   0.001058    5.34  0.000220  ( 0.005025 -0.009507 -0.010213)
 77:   1504.04   0.002332   11.78  0.000484  ( 0.004328 -0.006086  0.020689)
 78:   1506.87   0.002006   10.14  0.000415  ( 0.019097  0.006212 -0.003474)
 79:   1507.01   0.001894    9.57  0.000392  (-0.013635 -0.012342  0.007346)
 80:   1510.08   0.001296    6.55  0.000268  ( 0.004472  0.006898 -0.014151)
 81:   1514.29   0.000674    3.40  0.000139  ( 0.007039 -0.008937 -0.003067)
 82:   1517.87   0.002951   14.91  0.000607  ( 0.018246 -0.016527 -0.000757)
 83:   1519.73   0.001724    8.71  0.000354  ( 0.008841 -0.016447  0.002293)
 84:   1526.32   0.002178   11.00  0.000445  ( 0.016334 -0.001948  0.013215)
 85:   1535.34   0.001665    8.41  0.000338  (-0.000807 -0.011107 -0.014642)
 86:   1539.62   0.001299    6.56  0.000263  (-0.001239 -0.014222  0.007711)
 87:   1541.32   0.001804    9.12  0.000365  (-0.010482  0.006375  0.014652)
 88:   1785.41   0.003289   16.62  0.000575  (-0.023585  0.003852 -0.001949)
 89:   1802.65   0.000339    1.71  0.000059  ( 0.006748  0.000755  0.003537)
 90:   1803.93   0.000182    0.92  0.000031  ( 0.000332 -0.003023 -0.004712)
 91:   1831.61   0.038883  196.50  0.006625  ( 0.017111  0.060162  0.052081)
 92:   3093.41   0.004765   24.08  0.000481  ( 0.008723  0.018640  0.007559)
 93:   3095.33   0.004219   21.32  0.000425  ( 0.009982  0.013009 -0.012510)
 94:   3101.35   0.007951   40.18  0.000800  (-0.026480 -0.008338 -0.005420)
 95:   3103.35   0.004735   23.93  0.000476  (-0.009445 -0.012813 -0.014924)
 96:   3105.64   0.006500   32.85  0.000653  ( 0.013979  0.012746 -0.017184)
 97:   3121.79   0.012382   62.57  0.001238  (-0.032809  0.005202  0.011585)
 98:   3143.76   0.002664   13.47  0.000264  ( 0.005126  0.010310 -0.011485)
 99:   3150.62   0.004151   20.98  0.000411  (-0.014118  0.013605 -0.005169)
100:   3160.80   0.000365    1.85  0.000036  ( 0.005981 -0.000126 -0.000531)
101:   3165.71   0.001631    8.24  0.000161  (-0.004037  0.009902 -0.006815)
102:   3168.09   0.001845    9.33  0.000182  ( 0.009183 -0.009187 -0.003614)
103:   3173.09   0.001684    8.51  0.000166  ( 0.002171 -0.011985 -0.004159)
104:   3175.64   0.001878    9.49  0.000185  ( 0.000954  0.007899 -0.011012)
105:   3177.30   0.003919   19.81  0.000385  (-0.012418 -0.014580 -0.004259)
106:   3194.28   0.002391   12.08  0.000234  ( 0.003317 -0.010770 -0.010324)
107:   3208.21   0.001682    8.50  0.000164  ( 0.008398  0.005425  0.007978)
108:   3212.29   0.000332    1.68  0.000032  ( 0.003846  0.001952  0.003691)
109:   3214.18   0.003148   15.91  0.000306  (-0.000897  0.007421  0.015804)
110:   3215.48   0.002239   11.32  0.000217  ( 0.014194  0.003914 -0.000717)
111:   3227.19   0.001172    5.92  0.000113  ( 0.005108  0.000326  0.009334)
112:   3231.69   0.001547    7.82  0.000149  (-0.006961  0.009806 -0.002196)
113:   3233.08   0.002050   10.36  0.000198  (-0.006120 -0.001567  0.012568)

* The epsilon (eps) is given for a Dirac delta lineshape.
** The dipole moment derivative (T) already includes vibrational overlap.

The first frequency considered to be a vibration is 6
The total number of vibrations considered is 108


--------------------------
THERMOCHEMISTRY AT 298.15K
--------------------------

Temperature         ...   298.15 K
Pressure            ...     1.00 atm
Total Mass          ...   218.34 AMU
Quasi RRHO          ...     True
Cut-Off Frequency   ...     1.00 cm^-1

Throughout the following assumptions are being made:
  (1) The electronic state is orbitally nondegenerate
  (2) There are no thermally accessible electronically excited states
  (3) Hindered rotations indicated by low frequency modes are not
      treated as such but are treated as vibrations and this may
      cause some error
  (4) All equations used are the standard statistical mechanics
      equations for an ideal gas
  (5) All vibrations are strictly harmonic

freq.      38.46  E(vib)   ...       0.54 
freq.      55.97  E(vib)   ...       0.52 
freq.      87.46  E(vib)   ...       0.48 
freq.      93.57  E(vib)   ...       0.47 
freq.     109.99  E(vib)   ...       0.45 
freq.     118.86  E(vib)   ...       0.44 
freq.     131.05  E(vib)   ...       0.42 
freq.     138.86  E(vib)   ...       0.42 
freq.     170.97  E(vib)   ...       0.38 
freq.     203.11  E(vib)   ...       0.35 
freq.     215.43  E(vib)   ...       0.34 
freq.     222.72  E(vib)   ...       0.33 
freq.     243.41  E(vib)   ...       0.31 
freq.     262.06  E(vib)   ...       0.29 
freq.     275.99  E(vib)   ...       0.28 
freq.     333.01  E(vib)   ...       0.24 
freq.     355.03  E(vib)   ...       0.22 
freq.     371.91  E(vib)   ...       0.21 
freq.     389.57  E(vib)   ...       0.20 
freq.     405.41  E(vib)   ...       0.19 
freq.     425.49  E(vib)   ...       0.18 
freq.     434.66  E(vib)   ...       0.17 
freq.     474.95  E(vib)   ...       0.15 
freq.     514.98  E(vib)   ...       0.13 
freq.     521.64  E(vib)   ...       0.13 
freq.     540.73  E(vib)   ...       0.12 
freq.     558.37  E(vib)   ...       0.12 
freq.     631.52  E(vib)   ...       0.09 
freq.     652.14  E(vib)   ...       0.08 
freq.     702.64  E(vib)   ...       0.07 
freq.     761.76  E(vib)   ...       0.06 
freq.     805.61  E(vib)   ...       0.05 
freq.     814.04  E(vib)   ...       0.05 
freq.     865.25  E(vib)   ...       0.04 
freq.     897.08  E(vib)   ...       0.03 
freq.     915.02  E(vib)   ...       0.03 
freq.     935.21  E(vib)   ...       0.03 
freq.     957.37  E(vib)   ...       0.03 
freq.     963.44  E(vib)   ...       0.03 
freq.     994.65  E(vib)   ...       0.02 
freq.     999.67  E(vib)   ...       0.02 
freq.    1002.41  E(vib)   ...       0.02 
freq.    1005.85  E(vib)   ...       0.02 
freq.    1040.83  E(vib)   ...       0.02 
freq.    1055.11  E(vib)   ...       0.02 
freq.    1071.73  E(vib)   ...       0.02 
freq.    1081.98  E(vib)   ...       0.02 
freq.    1088.57  E(vib)   ...       0.02 
freq.    1122.56  E(vib)   ...       0.01 
freq.    1128.72  E(vib)   ...       0.01 
freq.    1139.69  E(vib)   ...       0.01 
freq.    1164.76  E(vib)   ...       0.01 
freq.    1195.44  E(vib)   ...       0.01 
freq.    1207.73  E(vib)   ...       0.01 
freq.    1229.36  E(vib)   ...       0.01 
freq.    1252.33  E(vib)   ...       0.01 
freq.    1266.65  E(vib)   ...       0.01 
freq.    1275.90  E(vib)   ...       0.01 
freq.    1288.47  E(vib)   ...       0.01 
freq.    1330.02  E(vib)   ...       0.01 
freq.    1342.50  E(vib)   ...       0.01 
freq.    1357.95  E(vib)   ...       0.01 
freq.    1363.92  E(vib)   ...       0.01 
freq.    1391.57  E(vib)   ...       0.00 
freq.    1421.10  E(vib)   ...       0.00 
freq.    1423.84  E(vib)   ...       0.00 
freq.    1447.81  E(vib)   ...       0.00 
freq.    1451.29  E(vib)   ...       0.00 
freq.    1463.20  E(vib)   ...       0.00 
freq.    1470.11  E(vib)   ...       0.00 
freq.    1500.53  E(vib)   ...       0.00 
freq.    1504.04  E(vib)   ...       0.00 
freq.    1506.87  E(vib)   ...       0.00 
freq.    1507.01  E(vib)   ...       0.00 
freq.    1510.08  E(vib)   ...       0.00 
freq.    1514.29  E(vib)   ...       0.00 
freq.    1517.87  E(vib)   ...       0.00 
freq.    1519.73  E(vib)   ...       0.00 
freq.    1526.32  E(vib)   ...       0.00 
freq.    1535.34  E(vib)   ...       0.00 
freq.    1539.62  E(vib)   ...       0.00 
freq.    1541.32  E(vib)   ...       0.00 
freq.    1785.41  E(vib)   ...       0.00 
freq.    1802.65  E(vib)   ...       0.00 
freq.    1803.93  E(vib)   ...       0.00 
freq.    1831.61  E(vib)   ...       0.00 
freq.    3093.41  E(vib)   ...       0.00 
freq.    3095.33  E(vib)   ...       0.00 
freq.    3101.35  E(vib)   ...       0.00 
freq.    3103.35  E(vib)   ...       0.00 
freq.    3105.64  E(vib)   ...       0.00 
freq.    3121.79  E(vib)   ...       0.00 
freq.    3143.76  E(vib)   ...       0.00 
freq.    3150.62  E(vib)   ...       0.00 
freq.    3160.80  E(vib)   ...       0.00 
freq.    3165.71  E(vib)   ...       0.00 
freq.    3168.09  E(vib)   ...       0.00 
freq.    3173.09  E(vib)   ...       0.00 
freq.    3175.64  E(vib)   ...       0.00 
freq.    3177.30  E(vib)   ...       0.00 
freq.    3194.28  E(vib)   ...       0.00 
freq.    3208.21  E(vib)   ...       0.00 
freq.    3212.29  E(vib)   ...       0.00 
freq.    3214.18  E(vib)   ...       0.00 
freq.    3215.48  E(vib)   ...       0.00 
freq.    3227.19  E(vib)   ...       0.00 
freq.    3231.69  E(vib)   ...       0.00 
freq.    3233.08  E(vib)   ...       0.00 

------------
INNER ENERGY
------------

The inner energy is: U= E(el) + E(ZPE) + E(vib) + E(rot) + E(trans)
    E(el)   - is the total energy from the electronic structure calculation
              = E(kin-el) + E(nuc-el) + E(el-el) + E(nuc-nuc)
    E(ZPE)  - the the zero temperature vibrational energy from the frequency calculation
    E(vib)  - the the finite temperature correction to E(ZPE) due to population
              of excited vibrational states
    E(rot)  - is the rotational thermal energy
    E(trans)- is the translational thermal energy

Summary of contributions to the inner energy U:
Electronic energy                ...   -114.73490257 Eh
Zero point energy                ...      0.34352337 Eh     215.56 kcal/mol
Thermal vibrational correction   ...      0.01443633 Eh       9.06 kcal/mol
Thermal rotational correction    ...      0.00141627 Eh       0.89 kcal/mol
Thermal translational correction ...      0.00141627 Eh       0.89 kcal/mol
-----------------------------------------------------------------------
Total thermal energy                   -114.37411032 Eh


Summary of corrections to the electronic energy:
(perhaps to be used in another calculation)
Total thermal correction                  0.01726888 Eh      10.84 kcal/mol
Non-thermal (ZPE) correction              0.34352337 Eh     215.56 kcal/mol
-----------------------------------------------------------------------
Total correction                          0.36079225 Eh     226.40 kcal/mol


--------
ENTHALPY
--------

The enthalpy is H = U + kB*T
                kB is Boltzmann's constant
Total thermal energy              ...   -114.37411032 Eh 
Thermal Enthalpy correction       ...      0.00094421 Eh       0.59 kcal/mol
-----------------------------------------------------------------------
Total Enthalpy                    ...   -114.37316611 Eh


Note: Only C1 symmetry has been detected, increase convergence thresholds 
      if your molecule has a higher symmetry. Symmetry factor of 1.0 is   
      used for the rotational entropy correction. 
 

Note: Rotational entropy computed according to Herzberg 
Infrared and Raman Spectra, Chapter V,1, Van Nostrand Reinhold, 1945 
Point Group:  C1, Symmetry Number:   1  
Rotational constants in cm-1:     0.026751     0.014181     0.012680 

Vibrational entropy computed according to the QRRHO of S. Grimme
Chem.Eur.J. 2012 18 9955 using a reference frequency of 100.0 cm-1


-------
ENTROPY
-------

The entropy contributions are T*S = T*(S(el)+S(vib)+S(rot)+S(trans))
     S(el)   - electronic entropy
     S(vib)  - vibrational entropy
     S(rot)  - rotational entropy
     S(trans)- translational entropy
The entropies will be listed as multiplied by the temperature to get
units of energy

Electronic entropy                ...      0.00000000 Eh      0.00 kcal/mol
Vibrational entropy               ...      0.02524739 Eh     15.84 kcal/mol
Rotational entropy                ...      0.01529142 Eh      9.60 kcal/mol
Translational entropy             ...      0.01997718 Eh     12.54 kcal/mol
-----------------------------------------------------------------------
Final entropy term                ...      0.06051600 Eh     37.97 kcal/mol

In case the symmetry of your molecule has not been determined correctly
or in case you have a reason to use a different symmetry number we print 
out the resulting rotational entropy values for sn=1,12:

 non-linear molecules -----------------------------------
|  sn= 1 | S(rot)=       0.01529142 Eh      9.60 kcal/mol|
|  sn= 2 | S(rot)=       0.01463696 Eh      9.18 kcal/mol|
|  sn= 3 | S(rot)=       0.01425413 Eh      8.94 kcal/mol|
|  sn= 4 | S(rot)=       0.01398250 Eh      8.77 kcal/mol|
|  sn= 5 | S(rot)=       0.01377182 Eh      8.64 kcal/mol|
|  sn= 6 | S(rot)=       0.01359967 Eh      8.53 kcal/mol|
|  sn= 7 | S(rot)=       0.01345413 Eh      8.44 kcal/mol|
|  sn= 8 | S(rot)=       0.01332805 Eh      8.36 kcal/mol|
|  sn= 9 | S(rot)=       0.01321684 Eh      8.29 kcal/mol|
|  sn=10 | S(rot)=       0.01311736 Eh      8.23 kcal/mol|
|  sn=11 | S(rot)=       0.01302737 Eh      8.17 kcal/mol|
|  sn=12 | S(rot)=       0.01294522 Eh      8.12 kcal/mol|
 linear molecules ---------------------------------------
|  Dinfh | S(rot)=       0.00944970 Eh      5.93 kcal/mol|
|  Cinfv | S(rot)=       0.01010416 Eh      6.34 kcal/mol|
 --------------------------------------------------------


-------------------
GIBBS FREE ENERGY
-------------------

The Gibbs free energy is G = H - T*S

Total enthalpy                    ...   -114.37316611 Eh 
Total entropy correction          ...     -0.06051600 Eh    -37.97 kcal/mol
-----------------------------------------------------------------------
Final Gibbs free energy         ...   -114.43368210 Eh

For completeness - the Gibbs free energy minus the electronic energy
G-E(el)                           ...      0.30122046 Eh    189.02 kcal/mol


Maximum memory used throughout the entire PROP-calculation: 238.4 MB

--------------------------------
SUGGESTED CITATIONS FOR THIS RUN
--------------------------------

Below you find a list of papers that are relevant to this ORCA run
We neither can nor want to force you to cite these papers, but we appreciate if you do
You receive ORCA, which is the product of decades of hard work by many enthusiastic individuals, for free
The only thing we kindly ask in return is that you cite our papers,
We deeply appreciate it, if you show your appreciation for ORCA by not just citing the generic ORCA reference.

Please note that relegating all ORCA citations to the supporting information does *not* help us.
SI sections are not indexed - citations you put there will not count into any citation statistics
But we need these citations in order to attract the funding resources that allow us to do what we are doing

Therefore, if you are a happy ORCA user, please consider citing a few of the papers listed below in the main body of your paper

In addition to the list printed below, the program has created the file ./output/germacrone/germacrone.bibtex that contains the list in bibtex format
You can import this file easily into all common literature databanks and citation aid programs


List of essential papers. We consider these as the minimum necessary citations

  1. Neese,F.
     Software update: the ORCA program system, version 5.0
     WIRES Comput. Molec. Sci., 2022 12(1)e1606
     doi.org/10.1002/wcms.1606
  2. Mueller,M.; Hansen,A.; Grimme,S.
     wB97X-3c: A composite range-separated hybrid DFT method with a molecule-optimized polarized valence double-zeta basis set
     J. Chem. Phys., 2023 158 014103
     doi.org/10.1063/5.0133026

List of papers to cite with high priority. The work reported in these papers was absolutely
necessary for this run to complete.
Our perspective: the developers of density functionals and basis sets usually get cited in chemistry papers
Good! But without the algorithms to do something with them, the functionals or basis sets would not do anything.
Hence, in our opinion, the algorithm design and method developments papers are equally worthy of getting cited

  1. Neese,F.
     An improvement of the resolution of the identity approximation for the formation of the Coulomb matrix
     J. Comp. Chem., 2003 24(14)1740-1747
     doi.org/10.1002/jcc.10318
  2. Neese,F.; Wennmohs,F.; Hansen,A.; Becker,U.
     Efficient, approximate and parallel Hartree-Fock and hybrid DFT calculations. A 'chain-of-spheres' algorithm for the Hartree-Fock exchange
     Chem. Phys., 2009 356(1-3)98-109
     doi.org/10.1016/j.chemphys.2008.10.036
  3. Bykov,D.; Petrenko,T.; Izsak,R.; Kossmann,S.; Becker,U.; Valeev,E.; Neese,F.
     Efficient implementation of the analytic second derivatives of Hartree-Fock and hybrid DFT energies: a detailed analysis of different approximations
     Molec. Phys., 2015 113 1961-1977
     doi.org/10.1080/00268976.2015.1025114
  4. Helmich-Paris,B.; de Souza,B.; Neese,F.; Izsák,R.
     An improved chain of spheres for exchange algorithm
     J. Chem. Phys., 2021 155 104109
     doi.org/doi: 10.1063/5.0058766.
  5. Neese,F.
     The SHARK Integral Generation and Digestion System
     J. Comp. Chem., 2022  1-16
     doi.org/10.1002/jcc.26942
  6. Caldeweyher,E.; Bannwarth,C.; Grimme,S.
     Extension of the D3 dispersion coefficient model
     J. Chem. Phys., 2017 147 034112
     doi.org/10.1063/1.4993215
  7. Caldeweyher,E.; Ehlert,S.; Hansen,A.; Neugebauer,H.; Spicher,S.; Bannwarth,C.; Grimme,S.
     A generally applicable atomic-charge dependent London dispersion correction
     J. Chem. Phys., 2019 150 154122
     doi.org/10.1063/1.5090222
  8. Caldeweyher,E.; Mewes,J.; Ehlert,S.; Grimme,S.
     Extension and evaluation of the D4 London-dispersion model for periodic systems
     Phys. Chem. Chem. Phys., 2020 22(16)8499-8512
     doi.org/10.1039/D0CP00502A
  9. Wittmann,L.; Gordiy,I.; Friede,M.; Helmich-Paris,B.; Grimme,S.; Hansen,A.; Bursch,M.
     Extension of the D3 and D4 London Dispersion Corrections to the full Actinides Series
     Phys. Chem. Chem. Phys., 2024 26(32)21379-21394
     doi.org/https://doi.org/10.1039/D4CP01514B 

List of suggested additional citations. These are papers that are important in the 'surrounding' of 
of this run, or papers that preceded the highly important papers. If you like your results we are grateful for a citation.

  1. Izsak,R.; Neese,F.
     An overlap fitted chain of spheres exchange method
     J. Chem. Phys., 2011 135 144105
     doi.org/10.1063/1.3646921
  2. Izsak,R.; Hansen,A.; Neese,F.
     The resolution of identity and chain of spheres approximations for the LPNO-CCSD singles Fock term
     Molec. Phys., 2012 110 2413-2417
     doi.org/10.1080/00268976.2012.687466
  3. Neese,F.
     The ORCA program system
     WIRES Comput. Molec. Sci., 2012 2(1)73-78
     doi.org/10.1002/wcms.81
  4. Izsak,R.; Neese,F.; Klopper,W.
     Robust fitting techniques in the chain of spheres approximation to the Fock exchange: The role of the complementary space
     J. Chem. Phys., 2013 139 
     doi.org/10.1063/1.4819264
  5. Neese,F.
     Software update: the ORCA program system, version 4.0
     WIRES Comput. Molec. Sci., 2018 8(1)1-6
     doi.org/10.1002/wcms.1327
  6. Neese,F.; Wennmohs,F.; Becker,U.; Riplinger,C.
     The ORCA quantum chemistry program package
     J. Chem. Phys., 2020 152 Art. No. L224108
     doi.org/10.1063/5.0004608

List of optional additional citations

  1. Neese,F.
     Approximate second-order SCF convergence for spin unrestricted wavefunctions
     Chem. Phys. Lett., 2000 325(1-3)93-98
     doi.org/10.1016/s0009-2614(00)00662-x

Timings for individual modules:

Sum of individual times          ...     3314.195 sec (=  55.237 min)
Startup calculation              ...      155.743 sec (=   2.596 min)   4.7 %
SCF iterations                   ...     2208.132 sec (=  36.802 min)  66.6 %
Property integrals               ...      153.374 sec (=   2.556 min)   4.6 %
SCF Response                     ...      104.584 sec (=   1.743 min)   3.2 %
Property calculations            ...      214.338 sec (=   3.572 min)   6.5 %
SCF Gradient evaluation          ...      477.110 sec (=   7.952 min)  14.4 %
Geometry relaxation              ...        0.913 sec (=   0.015 min)   0.0 %
                             ****ORCA TERMINATED NORMALLY****
TOTAL RUN TIME: 0 days 0 hours 55 minutes 29 seconds 196 msec
