
                                 *****************
                                 * O   R   C   A *
                                 *****************

                                            #,                                       
                                            ###                                      
                                            ####                                     
                                            #####                                    
                                            ######                                   
                                           ########,                                 
                                     ,,################,,,,,                         
                               ,,#################################,,                 
                          ,,##########################################,,             
                       ,#########################################, ''#####,          
                    ,#############################################,,   '####,        
                  ,##################################################,,,,####,       
                ,###########''''           ''''###############################       
              ,#####''   ,,,,##########,,,,          '''####'''          '####       
            ,##' ,,,,###########################,,,                        '##       
           ' ,,###''''                  '''############,,,                           
         ,,##''                                '''############,,,,        ,,,,,,###''
      ,#''                                            '''#######################'''  
     '                                                          ''''####''''         
             ,#######,   #######,   ,#######,      ##                                
            ,#'     '#,  ##    ##  ,#'     '#,    #''#        ,####,   ,####,        
            ##       ##  ##   ,#'  ##            #'  '#       #'       #'  '#        
            ##       ##  #######   ##           ,######,      #####,   #    #        
            '#,     ,#'  ##    ##  '#,     ,#' ,#      #,     #,   #   #,  ,#        
             '#######'   ##     ##  '#######'  #'      '#     '####' # '####'        



                #########################################################
                #                        -***-                          #
                #          Department of theory and spectroscopy        #
                #                                                       #
                #                      Frank Neese                      #
                #                                                       #
                #     Directorship, Architecture, Infrastructure        #
                #                    SHARK, DRIVERS                     #
                #        Core code/Algorithms in most modules           #
                #                                                       #
                #        Max Planck Institute fuer Kohlenforschung      #
                #                Kaiser Wilhelm Platz 1                 #
                #                 D-45470 Muelheim/Ruhr                 #
                #                      Germany                          #
                #                                                       #
                #                  All rights reserved                  #
                #                        -***-                          #
                #########################################################


                         Program Version 6.0.1  -  RELEASE   -


 With contributions from (in alphabetic order):
[Max-Planck-Institut fuer Kohlenforschung]                               
  Daniel Aravena         : Magnetic Suceptibility                        
  Michael Atanasov       : Ab Initio Ligand Field Theory (pilot matlab implementation)
  Alexander A. Auer      : GIAO ZORA, VPT2 properties, NMR spectrum      
  Ute Becker             : All parallelization in ORCA, NUMFREQ, NUMCALC 
  Giovanni Bistoni       : ED, misc. LED, open-shell LED, HFLD           
  Martin Brehm           : Molecular dynamics                            
  Dmytro Bykov           : pre 5.0 version of the SCF Hessian            
  Marcos Casanova-Páez   : Triplet and SCS-CIS(D). UHF-(DLPNO)-IP/EA/STEOM-CCSD. UHF-CVS-IP/STEOM-CCSD   
  Vijay G. Chilkuri      : MRCI spin determinant printing, contributions to CSF-ICE 
  Pauline Colinet        : FMM embedding                                 
  Dipayan Datta          : RHF DLPNO-CCSD density                        
  Achintya Kumar Dutta   : EOM-CC, STEOM-CC                              
  Nicolas Foglia         : Exact transition moments, OPA infrastructure, MCD improvements    
  Dmitry Ganyushin       : Spin-Orbit,Spin-Spin,Magnetic field MRCI      
  Miquel Garcia-Rates    : C-PCM and meta-GGA Hessian, CCSD/C-PCM, Gaussian charge scheme 
  Tiago L. C. Gouveia    : GS-ROHF, GS-ROCIS                             
  Yang Guo               : DLPNO-NEVPT2, F12-NEVPT2, CIM, IAO-localization        
  Andreas Hansen         : Spin unrestricted coupled pair/coupled cluster methods 
  Ingolf Harden          : AUTO-CI MPn and infrastructure                
  Benjamin Helmich-Paris : MC-RPA, TRAH-(SCF,CASSCF), AVAS, COSX integrals, SCF dyn. polar. 
  Lee Huntington         : MR-EOM, pCC                                   
  Robert Izsak           : Overlap fitted RIJCOSX, COSX-SCS-MP3, EOM     
  Riya Kayal             : Wick's Theorem for AUTO-CI, AUTO-CI UHF-CCSDT 
  Emily Kempfer          : AUTO-CI, RHF CISDT and CCSDT                  
  Christian Kollmar      : KDIIS, OOCD, Brueckner-CCSD(T), CCSD density, CASPT2, CASPT2-K, improved NEVPT2 
  Axel Koslowski         : Symmetry handling                             
  Simone Kossmann        : meta-GGA functionals, TD-DFT gradient, OOMP2, (MP2 Hessian; deprecated post 5.0) 
  Lucas Lang             : DCDCAS                                        
  Marvin Lechner         : AUTO-CI (C++ implementation), FIC-MRCC        
  Spencer Leger          : CASSCF response                               
  Dagmar Lenk            : GEPOL surface, SMD, ORCA-2-JSON               
  Dimitrios Liakos       : Extrapolation schemes; Compound Job, initial MDCI parallelization 
  Dimitrios Manganas     : Further ROCIS development; embedding schemes. LFT, Crystal Embedding 
  Dimitrios Pantazis     : SARC Basis sets                               
  Anastasios Papadopoulos: AUTO-CI, single reference methods and gradients 
  Taras Petrenko         : pre 6.0 DFT Hessian and TD-DFT gradient, (ASA, deprecated), ECA, 1-Electron XAS/XES, NRVS 
  Peter Pinski           : DLPNO-MP2, DLPNO-MP2 Gradient                 
  Christoph Reimann      : Effective Core Potentials                     
  Marius Retegan         : Local ZFS, SOC                                
  Christoph Riplinger    : Optimizer, TS searches, QM/MM, DLPNO-CCSD(T), (RO)-DLPNO pert. Triples 
  Michael Roemelt        : Original ROCIS implementation                 
  Masaaki Saitow         : Open-shell DLPNO-CCSD energy and density      
  Barbara Sandhoefer     : DKH picture change effects                    
  Kantharuban Sivalingam : CASSCF convergence/infrastructure, NEVPT2 and variants, FIC-MRCI 
  Bernardo de Souza      : ESD, SOC TD-DFT                               
  Georgi L. Stoychev     : AutoAux, RI-MP2 NMR, DLPNO-MP2 response, X2C  
  Van Anh Tran           : RI-MP2 g-tensors                              
  Willem Van den Heuvel  : Paramagnetic NMR                              
  Zikuan Wang            : NOTCH, Electric field optimization            
  Frank Wennmohs         : Technical directorship and infrastructure     
  Hang Xu                : AUTO-CI-Response properties                   
                                                                         
[FACCTs GmbH]                                                            
  Markus Bursch, Miquel Garcia-Rates, Christoph Riplinger, Bernardo de Souza, Georgi L. Stoychev 
                                                                 
  APM, Basis sets (HGBS, AHGBS, def-TZVP (Ac-Lr), def2-XVPD (La-Lu)), CI-OPT, improved COSX, DLPNO-Multilevel,           
  DOCKER, DRACO, updates on ESD, GOAT, IRC, LR-CPCM, MBIS, meta-GGA TD-DFT gradient, ML-optimized integration grids, 
  MM, NACMEs, nearIR, NEB, NEB-TS, NL-DFT gradient (VV10), 2- and 3-layer-ONIOM, interface openCOSMO-RS, QMMM,   
  Crystal-QMMM, SF, symmetry and pop. for TD-DFT, r2SCAN hybrids, SOLVATOR                                   
                                                                         
[Other institutions]                                                     
  V. Asgeirsson          : NEB                                           
  Christoph Bannwarth    : sTDA-DFT, sTD-DFT, PBEh-3c, B97-3c, D3        
  Sebastian Ehlert       : rSCAN, r2SCAN, r2SCAN-3c, D4, dhf basis sets  
  Marvin Friede          : D4 for Fr, Ra, Ac-Lr                          
  Lars Goerigk           : TD-DFT with DH, B97 family of functionals     
  Stefan Grimme          : VdW corrections, initial TS optimization, DFT functionals, gCP, sTDA/sTD-DF 
  Waldemar Hujo          : DFT-NL                                        
  H. Jonsson             : NEB                                           
  Holger Kruse           : gCP                                           
  Marcel Mueller         : wB97X-3c, vDZP basis set                      
  Hagen Neugebauer       : wr2SCAN                                       
  Tobias Risthaus        : range-separated hybrid DFT                    
  Lukas Wittmann         : regularized MP2, r2SCAN double-hybrids, wr2SCAN        
                                                                         
We gratefully acknowledge several colleagues who have allowed us to      
interface, adapt or use parts of their codes:                            
  Ed Valeev, F. Pavosevic, A. Kumar             : LibInt (2-el integral package), F12 methods 
  Garnet Chan, S. Sharma, J. Yang, R. Olivares  : DMRG                   
  Ulf Ekstrom                                   : XCFun DFT Library      
  Mihaly Kallay                                 : mrcc  (arbitrary order and MRCC methods)
  Frank Weinhold                                : gennbo (NPA and NBO analysis)           
  Simon Mueller                                 : openCOSMO-RS                            
  Christopher J. Cramer and Donald G. Truhlar   : smd solvation model                     
  S Lehtola, MJT Oliveira, MAL Marques          : LibXC Library                           
  Liviu Ungur et al                             : ANISO software                          


 Your calculation uses the libint2 library for the computation of 2-el integrals
 For citations please refer to: http://libint.valeyev.net

 Your ORCA version has been built with support for libXC version: 6.2.2
 For citations please refer to: https://libxc.gitlab.io

 This ORCA versions uses:
   CBLAS   interface :  Fast vector & matrix operations
   LAPACKE interface :  Fast linear algebra routines
   SCALAPACK package :  Parallel linear algebra routines
   Shared memory     :  Shared parallel matrices
   BLAS/LAPACK       :  OpenBLAS 0.3.27  USE64BITINT DYNAMIC_ARCH NO_AFFINITY SkylakeX SINGLE_THREADED
        Core in use  :  SkylakeX
   Copyright (c) 2011-2014, The OpenBLAS Project


Your calculation utilizes the atom-pairwise dispersion correction
based on EEQ partial charges (D4)


================================================================================

cite the ECPs for C  [vDZP-ECP], O  [vDZP-ECP] as follows:
   B-Ne (ecp-2-mwb), Al-Ar (ecp-10-mwb), Ga-Kr (ecp-28-mwb), Y-Cd (ecp-28-mwb), In-Xe (ecp-46-mwb):
     A. Bergner, M. Dolg, W. Küchle, H. Stoll, and H. Preuß, Mol. Phys. 80, 1431 (1993)., T. Leininger, A. Berning, A. Nicklass, H. Stoll, H.-J. Werner, and H.-J.Flad, Chem. Phys. 217, 19 (1997).
   Na-Mg, K-Ca, Rb-Sr, Cs-Ba (CRENBL):
     L. Fernandez Pacios and P. A. Christiansen, J. Chem. Phys. 82, 2664 (1985)., M. M. Hurley, L. F. Pacios, P. A. Christiansen, R. B. Ross, and W. C. Ermler, J. Chem. Phys. 84, 6840 (1986)., L. A. LaJohn, P. A. Christiansen, R. B. Ross, T. Atashroo, and W. C. Ermler, J. Chem. Phys. 87, 2812 (1987)., R. B. Ross, J. M. Powers, T. Atashroo, W. C. Ermler, L. A. LaJohn, and P. A. Christiansen, J. Chem. Phys. 93, 6654 (1990). 
   Sc-Zn (ecp-10-mdf):
     M. Dolg, U. Wedig, H. Stoll, and H. Preuss, J. Chem. Phys. 86, 866 (1986). 
   Y-Cd (ecp-28-mwb), Hf-Hg (ecp-60-mwb):
     D. Andrae, U. Häußermann, M. Dolg, H. Stoll, and H. Preuß, Theor. Chim. Acta 77, 123 (1990). 
   La (ecp-46-mwb):
     M. Dolg, H. Stoll, and H. Preuss, J. Chem. Phys. 90, 1730 (1989)., M. Dolg, H. Stoll, and H. Preuss, Theor. Chim. Acta 85, 441 (1993).
   Ce-Lu (SBKJC-ecp):
     T. R. Cundari and W. J. Stevens, J. Chem. Phys. 98, 5555 (1993).
   Tl-Rn (ecp-78-mwb):
     W. Küchle, M. Dolg, H. Stoll, and H. Preuss, Mol. Phys. 74, 1245 (1991).

ECP parameters for C  [vDZP-ECP], O  [vDZP-ECP] have been obtained from:
MM, AH, SG, J. Chem. Phys. 158, 014103 (2023), 10.1063/5.0133026

----- Orbital basis set information -----
Your calculation utilizes the basis: vDZP
   Marcel Mueller, Andreas Hansen, Stefan Grimme 
   J. Chem. Phys. 158, 014103 (2023). DOI: 10.1063/5.0133026

----- AuxJ basis set information -----
Your calculation utilizes the auxiliary basis: def2/J
   F. Weigend, Phys. Chem. Chem. Phys. 8, 1057 (2006).

================================================================================
                                        WARNINGS
                       Please study these warnings very carefully!
================================================================================

WARNING: Frozen-Core approximation turned on, but there are no core electrons.
  ===> : Turning off frozen-core approximation


WARNING: Geometry Optimization
  ===> : Switching off AutoStart
         For restart on a previous wavefunction, please use MOREAD

================================================================================
                                       INPUT FILE
================================================================================
NAME = ./output/bergamotol/bergamotol.inp
|  1> ! wB97X-3c OPT FREQ TightSCF
|  2> %pal
|  3>   nprocs 40
|  4> end
|  5> * xyz 0 1
|  6> C     -2.768723    -2.621372    -1.122790
|  7> C     -2.591872    -1.258029    -0.525782
|  8> C     -3.003612    -0.978917     0.745101
|  9> C     -2.760437     0.434743     1.308393
| 10> C     -2.090135     1.341327     0.217765
| 11> C     -2.890479     1.099262    -1.076473
| 12> C     -1.956611    -0.104143    -1.314828
| 13> C     -0.885697     0.604098    -0.437134
| 14> C     -0.004402     1.562770    -1.285010
| 15> C      0.033969    -0.294688     0.462619
| 16> C      0.809632     0.502663     1.533941
| 17> C      2.188626     0.902449     1.065295
| 18> C      3.258293     0.075388     1.049142
| 19> C      3.179713    -1.342936     1.565072
| 20> C      4.576446     0.603128     0.530037
| 21> O      4.470430     0.922868    -0.830613
| 22> H     -2.217064    -3.369435    -0.515557
| 23> H     -3.846817    -2.885919    -1.140673
| 24> H     -2.377501    -2.647946    -2.161165
| 25> H     -3.468901    -1.740192     1.363663
| 26> H     -3.732753     0.877631     1.611537
| 27> H     -2.114434     0.375956     2.208914
| 28> H     -1.935709     2.405955     0.496707
| 29> H     -2.755641     1.911218    -1.823356
| 30> H     -3.972702     0.863671    -0.946105
| 31> H     -1.687834    -0.307701    -2.374090
| 32> H      0.840396     1.006800    -1.744482
| 33> H     -0.558886     2.047555    -2.113694
| 34> H      0.404261     2.371664    -0.645557
| 35> H     -0.515212    -1.093517     0.992245
| 36> H      0.736078    -0.843876    -0.200659
| 37> H      0.246341     1.419883     1.808279
| 38> H      0.890824    -0.093226     2.467966
| 39> H      2.319245     1.930668     0.738530
| 40> H      4.151962    -1.867228     1.458867
| 41> H      2.912316    -1.340050     2.642305
| 42> H      2.423770    -1.922692     0.998395
| 43> H      5.401143    -0.128373     0.682882
| 44> H      4.850576     1.520199     1.093796
| 45> H      4.441402     0.060348    -1.321851
| 46> *
| 47> 
| 48>                          ****END OF INPUT****
================================================================================

                       *****************************
                       * Geometry Optimization Run *
                       *****************************

Geometry optimization settings:
Update method            Update   .... BFGS
Choice of coordinates    CoordSys .... (2022) Redundant Internals
Initial Hessian          InHess   .... Almloef's Model
Max. no of cycles        MaxIter  .... 120

Convergence Tolerances:
Energy Change            TolE     ....  5.0000e-06 Eh
Max. Gradient            TolMAXG  ....  3.0000e-04 Eh/bohr
RMS Gradient             TolRMSG  ....  1.0000e-04 Eh/bohr
Max. Displacement        TolMAXD  ....  4.0000e-03 bohr
RMS Displacement         TolRMSD  ....  2.0000e-03 bohr
Strict Convergence                .... False

------------------------------------------------------------------------------
                        ORCA OPTIMIZATION COORDINATE SETUP
------------------------------------------------------------------------------

The optimization will be done in redundant internal coordinates (2022)
Making redundant internal coordinates   ...  (2022 redundants) done
Evaluating the initial hessian          ...  (Almloef) done
Evaluating the coordinates              ...  done
Calculating the B-matrix                .... done
Calculating the G-matrix                .... done
Diagonalizing the G-matrix              .... done
Small eigenvalue found = 3.974e-03
Small eigenvalue found = 5.942e-03
Small eigenvalue found = 7.808e-03
Small eigenvalue found = 1.964e-02
Small eigenvalue found = 2.098e-02
The first mode is                       ....   95
The number of degrees of freedom        ....  114

    -----------------------------------------------------------------
                    Redundant Internal Coordinates


    -----------------------------------------------------------------
         Definition                    Initial Value    Approx d2E/dq
    -----------------------------------------------------------------
      1. B(C   1,C   0)                  1.4988         0.418944   
      2. B(C   2,C   1)                  1.3648         0.685493   
      3. B(C   3,C   2)                  1.5411         0.358700   
      4. B(C   4,C   3)                  1.5687         0.324124   
      5. B(C   5,C   4)                  1.5408         0.358986   
      6. B(C   6,C   5)                  1.5418         0.357744   
      7. B(C   6,C   1)                  1.5354         0.366171   
      8. B(C   7,C   6)                  1.5553         0.340478   
      9. B(C   7,C   4)                  1.5566         0.338770   
     10. B(C   8,C   7)                  1.5539         0.342165   
     11. B(C   9,C   7)                  1.5694         0.323181   
     12. B(C  10,C   9)                  1.5444         0.354334   
     13. B(C  11,C  10)                  1.5103         0.401576   
     14. B(C  12,C  11)                  1.3522         0.717838   
     15. B(C  13,C  12)                  1.5113         0.400153   
     16. B(C  14,C  12)                  1.5118         0.399422   
     17. B(O  15,C  14)                  1.4017         0.535999   
     18. B(H  16,C   0)                  1.1103         0.334282   
     19. B(H  17,C   0)                  1.1102         0.334319   
     20. B(H  18,C   0)                  1.1099         0.334656   
     21. B(H  19,C   2)                  1.0857         0.365891   
     22. B(H  20,C   3)                  1.1106         0.333848   
     23. B(H  21,C   3)                  1.1098         0.334805   
     24. B(H  22,C   4)                  1.1113         0.332941   
     25. B(H  23,C   5)                  1.1114         0.332832   
     26. B(H  24,C   5)                  1.1152         0.328241   
     27. B(H  25,C   6)                  1.1116         0.332598   
     28. B(H  26,C   8)                  1.1108         0.333596   
     29. B(H  27,C   8)                  1.1087         0.336209   
     30. B(H  28,C   8)                  1.1092         0.335637   
     31. B(H  29,C   9)                  1.1046         0.341244   
     32. B(H  30,C   9)                  1.1111         0.333264   
     33. B(H  31,C  10)                  1.1108         0.333624   
     34. B(H  32,C  10)                  1.1109         0.333498   
     35. B(H  33,C  11)                  1.0868         0.364397   
     36. B(H  34,C  13)                  1.1097         0.334962   
     37. B(H  35,C  13)                  1.1099         0.334679   
     38. B(H  36,C  13)                  1.1085         0.336486   
     39. B(H  37,C  14)                  1.1129         0.331027   
     40. B(H  38,C  14)                  1.1109         0.333546   
     41. B(H  39,O  15)                  0.9930         0.460551   
     42. A(C   1,C   0,H  18)          110.6604         0.326531   
     43. A(H  17,C   0,H  18)          108.7534         0.284209   
     44. A(H  16,C   0,H  17)          109.3148         0.284160   
     45. A(C   1,C   0,H  17)          109.7395         0.326477   
     46. A(H  16,C   0,H  18)          108.6871         0.284205   
     47. A(C   1,C   0,H  16)          109.6576         0.326471   
     48. A(C   0,C   1,C   6)          121.8505         0.369289   
     49. A(C   0,C   1,C   2)          121.4232         0.412030   
     50. A(C   2,C   1,C   6)          116.7222         0.402334   
     51. A(C   1,C   2,C   3)          118.7101         0.400876   
     52. A(C   1,C   2,H  19)          121.0949         0.359952   
     53. A(C   3,C   2,H  19)          120.1729         0.323008   
     54. A(C   2,C   3,H  20)          109.1132         0.318204   
     55. A(C   4,C   3,H  20)          109.4757         0.313005   
     56. A(C   2,C   3,C   4)          110.0874         0.352242   
     57. A(H  20,C   3,H  21)          108.0137         0.284167   
     58. A(C   2,C   3,H  21)          109.8676         0.318352   
     59. A(C   4,C   3,H  21)          110.2446         0.313151   
     60. A(C   7,C   4,H  22)          116.8580         0.315118   
     61. A(C   5,C   4,H  22)          115.6896         0.318104   
     62. A(C   3,C   4,H  22)          116.0090         0.312868   
     63. A(C   3,C   4,C   7)          110.4522         0.348858   
     64. A(C   3,C   4,C   5)          105.7383         0.352290   
     65. A(C   5,C   4,C   7)           88.5167         0.354937   
     66. A(C   4,C   5,C   6)           86.4373         0.358237   
     67. A(H  23,C   5,H  24)          110.5250         0.283160   
     68. A(C   6,C   5,H  24)          116.1658         0.317189   
     69. A(C   4,C   5,H  24)          116.0433         0.317368   
     70. A(C   6,C   5,H  23)          113.1313         0.317907   
     71. A(C   4,C   5,H  23)          112.7471         0.318087   
     72. A(C   5,C   6,C   7)           88.5325         0.355031   
     73. A(C   7,C   6,H  25)          117.0429         0.315323   
     74. A(C   5,C   6,H  25)          115.8931         0.317871   
     75. A(C   1,C   6,H  25)          116.8786         0.319080   
     76. A(C   1,C   6,C   7)          109.7003         0.356437   
     77. A(C   1,C   6,C   5)          104.8637         0.359448   
     78. A(C   4,C   7,C   8)          112.0987         0.352064   
     79. A(C   4,C   7,C   6)           85.4295         0.351770   
     80. A(C   6,C   7,C   8)          111.3181         0.352364   
     81. A(C   8,C   7,C   9)          109.4986         0.349274   
     82. A(C   6,C   7,C   9)          117.7904         0.348983   
     83. A(C   4,C   7,C   9)          118.9099         0.348687   
     84. A(H  26,C   8,H  28)          108.8611         0.284243   
     85. A(C   7,C   8,H  28)          110.1402         0.316043   
     86. A(H  26,C   8,H  27)          106.8603         0.284318   
     87. A(C   7,C   8,H  27)          113.2009         0.316131   
     88. A(C   7,C   8,H  26)          110.3798         0.315730   
     89. A(H  27,C   8,H  28)          107.2356         0.284588   
     90. A(H  29,C   9,H  30)          104.0599         0.284932   
     91. A(C   7,C   9,H  30)          108.1266         0.312769   
     92. A(C  10,C   9,H  29)          106.8856         0.318706   
     93. A(C   7,C   9,H  29)          113.4332         0.313971   
     94. A(C   7,C   9,C  10)          113.3486         0.351341   
     95. A(C  10,C   9,H  30)          110.6049         0.317479   
     96. A(C   9,C  10,H  32)          110.0604         0.317515   
     97. A(C  11,C  10,H  31)          108.7279         0.324101   
     98. A(C   9,C  10,H  31)          110.0566         0.317535   
     99. A(C   9,C  10,C  11)          112.3329         0.364559   
    100. A(H  31,C  10,H  32)          105.8035         0.283964   
    101. A(C  11,C  10,H  32)          109.6424         0.324081   
    102. A(C  10,C  11,C  12)          124.3377         0.412305   
    103. A(C  12,C  11,H  33)          118.6863         0.362541   
    104. A(C  10,C  11,H  33)          116.9670         0.328843   
    105. A(C  13,C  12,C  14)          119.3515         0.371904   
    106. A(C  11,C  12,C  14)          118.7062         0.411912   
    107. A(C  11,C  12,C  13)          121.9245         0.412045   
    108. A(H  35,C  13,H  36)          109.4650         0.284498   
    109. A(H  34,C  13,H  36)          107.5456         0.284536   
    110. A(C  12,C  13,H  36)          110.5967         0.324367   
    111. A(H  34,C  13,H  35)          107.7696         0.284298   
    112. A(C  12,C  13,H  35)          109.9630         0.324080   
    113. A(C  12,C  13,H  34)          111.4182         0.324125   
    114. A(C  12,C  14,O  15)          110.3034         0.388765   
    115. A(H  37,C  14,H  38)          106.8616         0.283626   
    116. A(O  15,C  14,H  38)          108.8433         0.337900   
    117. A(C  12,C  14,H  38)          109.2137         0.323803   
    118. A(O  15,C  14,H  37)          109.8335         0.337473   
    119. A(C  12,C  14,H  37)          111.6852         0.323400   
    120. A(C  14,O  15,H  39)          106.5156         0.353636   
    121. D(C   6,C   1,C   0,H  16)    120.3604         0.012980   
    122. D(C   2,C   1,C   0,H  16)    -60.3953         0.012980   
    123. D(C   2,C   1,C   0,H  18)    179.7164         0.012980   
    124. D(C   2,C   1,C   0,H  17)     59.6932         0.012980   
    125. D(C   6,C   1,C   0,H  17)   -119.5511         0.012980   
    126. D(C   3,C   2,C   1,C   6)     -2.1662         0.032981   
    127. D(H  19,C   2,C   1,C   6)    179.5405         0.032981   
    128. D(C   3,C   2,C   1,C   0)    178.5525         0.032981   
    129. D(H  19,C   2,C   1,C   0)      0.2592         0.032981   
    130. D(H  21,C   3,C   2,C   1)   -119.4773         0.009681   
    131. D(H  20,C   3,C   2,C   1)    122.2791         0.009681   
    132. D(H  20,C   3,C   2,H  19)    -59.4114         0.009681   
    133. D(C   4,C   3,C   2,H  19)   -179.5732         0.009681   
    134. D(C   4,C   3,C   2,C   1)      2.1173         0.009681   
    135. D(C   5,C   4,C   3,C   2)     46.1485         0.008587   
    136. D(C   7,C   4,C   3,H  21)     73.1371         0.008587   
    137. D(C   7,C   4,C   3,H  20)   -168.1751         0.008587   
    138. D(C   5,C   4,C   3,H  21)    167.5183         0.008587   
    139. D(C   7,C   4,C   3,C   2)    -48.2327         0.008587   
    140. D(C   5,C   4,C   3,H  20)    -73.7939         0.008587   
    141. D(H  23,C   5,C   4,H  22)     30.5577         0.010343   
    142. D(H  23,C   5,C   4,C   7)    -88.7202         0.010343   
    143. D(H  23,C   5,C   4,C   3)    160.4336         0.010343   
    144. D(C   6,C   5,C   4,C   7)     24.9012         0.010343   
    145. D(C   6,C   5,C   4,C   3)    -85.9450         0.010343   
    146. D(C   6,C   5,C   4,H  22)    144.1791         0.010343   
    147. D(C   7,C   6,C   1,C   2)     48.0171         0.010056   
    148. D(C   7,C   6,C   1,C   0)   -132.7049         0.010056   
    149. D(C   5,C   6,C   1,C   2)    -45.8179         0.010056   
    150. D(H  25,C   6,C   1,C   0)      3.5895         0.010056   
    151. D(C   5,C   6,C   1,C   0)    133.4601         0.010056   
    152. D(C   7,C   6,C   5,H  24)   -142.2817         0.010277   
    153. D(C   7,C   6,C   5,H  23)     88.3219         0.010277   
    154. D(C   7,C   6,C   5,C   4)    -24.9244         0.010277   
    155. D(C   1,C   6,C   5,H  24)    -32.2777         0.010277   
    156. D(C   1,C   6,C   5,H  23)   -161.6741         0.010277   
    157. D(C   1,C   6,C   5,C   4)     85.0796         0.010277   
    158. D(C   8,C   7,C   6,H  25)     31.2443         0.009384   
    159. D(C   8,C   7,C   6,C   5)    -87.2703         0.009384   
    160. D(C   4,C   7,C   6,H  25)    143.2024         0.009384   
    161. D(C   4,C   7,C   6,C   5)     24.6877         0.009384   
    162. D(C   4,C   7,C   6,C   1)    -80.5833         0.009384   
    163. D(C   8,C   7,C   4,H  22)    -31.7590         0.009298   
    164. D(C   8,C   7,C   4,C   5)     86.4677         0.009298   
    165. D(C   8,C   7,C   4,C   3)   -167.2762         0.009298   
    166. D(C   8,C   7,C   6,C   1)    167.4587         0.009384   
    167. D(C   6,C   7,C   4,H  22)   -142.9307         0.009298   
    168. D(C   6,C   7,C   4,C   5)    -24.7040         0.009298   
    169. D(C   6,C   7,C   4,C   3)     81.5521         0.009298   
    170. D(H  27,C   8,C   7,C   6)     33.9477         0.009469   
    171. D(H  27,C   8,C   7,C   4)    -59.8442         0.009469   
    172. D(H  26,C   8,C   7,C   9)     46.2201         0.009469   
    173. D(H  26,C   8,C   7,C   6)    -85.7788         0.009469   
    174. D(H  27,C   8,C   7,C   9)    165.9466         0.009469   
    175. D(H  26,C   8,C   7,C   4)   -179.5707         0.009469   
    176. D(H  29,C   9,C   7,C   8)   -172.2386         0.008543   
    177. D(H  29,C   9,C   7,C   6)    -43.7352         0.008543   
    178. D(H  29,C   9,C   7,C   4)     57.1100         0.008543   
    179. D(C  10,C   9,C   7,C   8)     65.6271         0.008543   
    180. D(C  10,C   9,C   7,C   6)   -165.8694         0.008543   
    181. D(C  10,C   9,C   7,C   4)    -65.0243         0.008543   
    182. D(C  11,C  10,C   9,H  29)    140.5789         0.010096   
    183. D(C  11,C  10,C   9,C   7)    -93.7099         0.010096   
    184. D(H  31,C  10,C   9,H  30)    149.2116         0.010096   
    185. D(H  31,C  10,C   9,H  29)    -98.1224         0.010096   
    186. D(H  31,C  10,C   9,C   7)     27.5888         0.010096   
    187. D(C  11,C  10,C   9,H  30)     27.9129         0.010096   
    188. D(H  33,C  11,C  10,H  31)    -20.3023         0.011964   
    189. D(H  33,C  11,C  10,C   9)    101.7544         0.011964   
    190. D(C  12,C  11,C  10,H  32)     43.3542         0.011964   
    191. D(C  12,C  11,C  10,H  31)    158.5895         0.011964   
    192. D(C  12,C  11,C  10,C   9)    -79.3539         0.011964   
    193. D(C  14,C  12,C  11,H  33)     -2.1973         0.036451   
    194. D(C  14,C  12,C  11,C  10)    178.9286         0.036451   
    195. D(C  13,C  12,C  11,H  33)    176.2592         0.036451   
    196. D(C  13,C  12,C  11,C  10)     -2.6148         0.036451   
    197. D(H  36,C  13,C  12,C  11)     59.8128         0.011883   
    198. D(H  35,C  13,C  12,C  14)    117.2453         0.011883   
    199. D(H  35,C  13,C  12,C  11)    -61.2015         0.011883   
    200. D(H  34,C  13,C  12,C  14)     -2.1789         0.011883   
    201. D(H  34,C  13,C  12,C  11)    179.3743         0.011883   
    202. D(H  38,C  14,C  12,C  11)     55.1010         0.011841   
    203. D(H  37,C  14,C  12,C  13)     -5.4171         0.011841   
    204. D(H  37,C  14,C  12,C  11)    173.0800         0.011841   
    205. D(O  15,C  14,C  12,C  13)    117.0244         0.011841   
    206. D(O  15,C  14,C  12,C  11)    -64.4785         0.011841   
    207. D(H  39,O  15,C  14,H  38)    166.8356         0.022839   
    208. D(H  39,O  15,C  14,H  37)     50.1623         0.022839   
    209. D(H  39,O  15,C  14,C  12)    -73.3608         0.022839   
    -----------------------------------------------------------------

Number of atoms                         .... 40
Number of degrees of freedom            .... 209


         *************************************************************
         *                GEOMETRY OPTIMIZATION CYCLE   1            *
         *************************************************************
---------------------------------
CARTESIAN COORDINATES (ANGSTROEM)
---------------------------------
  C     -2.768723   -2.621372   -1.122790
  C     -2.591872   -1.258029   -0.525782
  C     -3.003612   -0.978917    0.745101
  C     -2.760437    0.434743    1.308393
  C     -2.090135    1.341327    0.217765
  C     -2.890479    1.099262   -1.076473
  C     -1.956611   -0.104143   -1.314828
  C     -0.885697    0.604098   -0.437134
  C     -0.004402    1.562770   -1.285010
  C      0.033969   -0.294688    0.462619
  C      0.809632    0.502663    1.533941
  C      2.188626    0.902449    1.065295
  C      3.258293    0.075388    1.049142
  C      3.179713   -1.342936    1.565072
  C      4.576446    0.603128    0.530037
  O      4.470430    0.922868   -0.830613
  H     -2.217064   -3.369435   -0.515557
  H     -3.846817   -2.885919   -1.140673
  H     -2.377501   -2.647946   -2.161165
  H     -3.468901   -1.740192    1.363663
  H     -3.732753    0.877631    1.611537
  H     -2.114434    0.375956    2.208914
  H     -1.935709    2.405955    0.496707
  H     -2.755641    1.911218   -1.823356
  H     -3.972702    0.863671   -0.946105
  H     -1.687834   -0.307701   -2.374090
  H      0.840396    1.006800   -1.744482
  H     -0.558886    2.047555   -2.113694
  H      0.404261    2.371664   -0.645557
  H     -0.515212   -1.093517    0.992245
  H      0.736078   -0.843876   -0.200659
  H      0.246341    1.419883    1.808279
  H      0.890824   -0.093226    2.467966
  H      2.319245    1.930668    0.738530
  H      4.151962   -1.867228    1.458867
  H      2.912316   -1.340050    2.642305
  H      2.423770   -1.922692    0.998395
  H      5.401143   -0.128373    0.682882
  H      4.850576    1.520199    1.093796
  H      4.441402    0.060348   -1.321851

----------------------------
CARTESIAN COORDINATES (A.U.)
----------------------------
  NO LB      ZA    FRAG     MASS         X           Y           Z
   0 C     4.0000*   0    12.011   -5.232128   -4.953675   -2.121766
   1 C     4.0000*   0    12.011   -4.897928   -2.377330   -0.993584
   2 C     4.0000*   0    12.011   -5.676004   -1.849885    1.408037
   3 C     4.0000*   0    12.011   -5.216470    0.821545    2.472504
   4 C     4.0000*   0    12.011   -3.949783    2.534741    0.411516
   5 C     4.0000*   0    12.011   -5.462214    2.077304   -2.034239
   6 C     4.0000*   0    12.011   -3.697459   -0.196802   -2.484665
   7 C     4.0000*   0    12.011   -1.673725    1.141580   -0.826064
   8 C     4.0000*   0    12.011   -0.008319    2.953207   -2.428317
   9 C     4.0000*   0    12.011    0.064192   -0.556880    0.874223
  10 C     4.0000*   0    12.011    1.529983    0.949895    2.898728
  11 C     4.0000*   0    12.011    4.135904    1.705381    2.013116
  12 C     4.0000*   0    12.011    6.157281    0.142463    1.982591
  13 C     4.0000*   0    12.011    6.008787   -2.537781    2.957557
  14 C     4.0000*   0    12.011    8.648230    1.139747    1.001625
  15 O     6.0000*   0    15.999    8.447888    1.743968   -1.569631
  16 H     1.0000    0     1.008   -4.189644   -6.367309   -0.974262
  17 H     1.0000    0     1.008   -7.269431   -5.453597   -2.155560
  18 H     1.0000    0     1.008   -4.492826   -5.003893   -4.084010
  19 H     1.0000    0     1.008   -6.555273   -3.288486    2.576950
  20 H     1.0000    0     1.008   -7.053881    1.658482    3.045364
  21 H     1.0000    0     1.008   -3.995701    0.710454    4.174243
  22 H     1.0000    0     1.008   -3.657960    4.546596    0.938640
  23 H     1.0000    0     1.008   -5.207407    3.611679   -3.445643
  24 H     1.0000    0     1.008   -7.507319    1.632102   -1.787879
  25 H     1.0000    0     1.008   -3.189544   -0.581471   -4.486380
  26 H     1.0000    0     1.008    1.588118    1.902576   -3.296593
  27 H     1.0000    0     1.008   -1.056141    3.869318   -3.994303
  28 H     1.0000    0     1.008    0.763943    4.481795   -1.219926
  29 H     1.0000    0     1.008   -0.973610   -2.066448    1.875071
  30 H     1.0000    0     1.008    1.390986   -1.594695   -0.379191
  31 H     1.0000    0     1.008    0.465517    2.683190    3.417152
  32 H     1.0000    0     1.008    1.683413   -0.176172    4.663780
  33 H     1.0000    0     1.008    4.382738    3.648434    1.395619
  34 H     1.0000    0     1.008    7.846071   -3.528550    2.756859
  35 H     1.0000    0     1.008    5.503480   -2.532328    4.993233
  36 H     1.0000    0     1.008    4.580262   -3.633361    1.886693
  37 H     1.0000    0     1.008   10.206681   -0.242590    1.290460
  38 H     1.0000    0     1.008    9.166260    2.872760    2.066975
  39 H     1.0000    0     1.008    8.393033    0.114041   -2.497936
* core charge reduced due to ECP

--------------------------------
INTERNAL COORDINATES (ANGSTROEM)
--------------------------------
 C      0   0   0     0.000000000000     0.00000000     0.00000000
 C      1   0   0     1.498799173977     0.00000000     0.00000000
 C      2   1   0     1.364762593213   121.42324509     0.00000000
 C      3   2   1     1.541060204369   118.71011710   178.55250505
 C      4   3   2     1.568651890843   110.08742455     2.11728319
 C      5   4   3     1.540843270162   105.73826472    46.14854072
 C      2   1   3     1.535448803846   121.85049644   180.75571989
 C      7   2   1     1.555252026880   109.70029386   227.29510920
 C      8   7   2     1.553906880088   111.31809169   167.45871486
 C      8   7   2     1.569444897523   117.79042051    39.81960351
 C     10   8   7     1.544393905211   113.34861903   194.13055619
 C     11  10   8     1.510325253430   112.33287313   266.29009849
 C     12  11  10     1.352212375339   124.33766210   280.64612665
 C     13  12  11     1.511291351883   121.92452640   357.38515749
 C     13  12  11     1.511789284270   118.70622860   178.92864477
 O     15  13  12     1.401728034376   110.30337621   295.52148350
 H      1   2   3     1.110251242079   109.65761211   299.60472941
 H      1   2   3     1.110221414734   109.73952018    59.69318966
 H      1   2   3     1.109947508392   110.66035246   179.71635226
 H      3   2   1     1.085657601175   121.09493041     0.25916670
 H      4   3   2     1.110605451606   109.11318062   122.27907222
 H      4   3   2     1.109826048901   109.86755005   240.52271986
 H      5   4   3     1.111345494085   116.00900170   175.83849229
 H      6   5   4     1.111435129852   112.74712014   160.43355752
 H      6   5   4     1.115215475338   116.04330017    31.52800242
 H      7   2   1     1.111626250022   116.87859378     3.58949995
 H      9   8   7     1.110810884214   110.37980100   274.22117547
 H      9   8   7     1.108686688987   113.20092657    33.94771523
 H      9   8   7     1.109150616469   110.14023987   153.98489439
 H     10   8   7     1.104640775039   113.43318075   316.26483710
 H     10   8   7     1.111081550791   108.12662445    71.13028574
 H     11  10   8     1.110788286455   110.05662587    27.58876096
 H     11  10   8     1.110890877544   110.06037672   143.81808724
 H     12  11  10     1.086770905181   116.96700502   101.75436917
 H     14  13  12     1.109698031579   111.41819315   179.37426772
 H     14  13  12     1.109928115192   109.96302048   298.79847396
 H     14  13  12     1.108462746832   110.59669258    59.81281424
 H     15  13  12     1.112915292749   111.68517155   173.07998210
 H     15  13  12     1.110851333898   109.21374329    55.10099602
 H     16  15  13     0.993024746836   106.51558148   286.63920243

---------------------------
INTERNAL COORDINATES (A.U.)
---------------------------
 C      0   0   0     0.000000000000     0.00000000     0.00000000
 C      1   0   0     2.832319968564     0.00000000     0.00000000
 C      2   1   0     2.579027538992   121.42324509     0.00000000
 C      3   2   1     2.912181742142   118.71011710   178.55250505
 C      4   3   2     2.964322473150   110.08742455     2.11728319
 C      5   4   3     2.911771795903   105.73826472    46.14854072
 C      2   1   3     2.901577731926   121.85049644   180.75571989
 C      7   2   1     2.939000400028   109.70029386   227.29510920
 C      8   7   2     2.936458440982   111.31809169   167.45871486
 C      8   7   2     2.965821038599   117.79042051    39.81960351
 C     10   8   7     2.918481523747   113.34861903   194.13055619
 C     11  10   8     2.854101102128   112.33287313   266.29009849
 C     12  11  10     2.555311064289   124.33766210   280.64612665
 C     13  12  11     2.855926763622   121.92452640   357.38515749
 C     13  12  11     2.856867719467   118.70622860   178.92864477
 O     15  13  12     2.648882099211   110.30337621   295.52148350
 H      1   2   3     2.098070787376   109.65761211   299.60472941
 H      1   2   3     2.098014421862   109.73952018    59.69318966
 H      1   2   3     2.097496813889   110.66035246   179.71635226
 H      3   2   1     2.051595541431   121.09493041     0.25916670
 H      4   3   2     2.098740146374   109.11318062   122.27907222
 H      4   3   2     2.097267288715   109.86755005   240.52271986
 H      5   4   3     2.100138623989   116.00900170   175.83849229
 H      6   5   4     2.100308011039   112.74712014   160.43355752
 H      6   5   4     2.107451828700   116.04330017    31.52800242
 H      7   2   1     2.100669175819   116.87859378     3.58949995
 H      9   8   7     2.099128357743   110.37980100   274.22117547
 H      9   8   7     2.095114210509   113.20092657    33.94771523
 H      9   8   7     2.095990906397   110.14023987   153.98489439
 H     10   8   7     2.087468541186   113.43318075   316.26483710
 H     10   8   7     2.099639843448   108.12662445    71.13028574
 H     11  10   8     2.099085654167   110.05662587    27.58876096
 H     11  10   8     2.099279523229   110.06037672   143.81808724
 H     12  11  10     2.053699381105   116.96700502   101.75436917
 H     14  13  12     2.097025371036   111.41819315   179.37426772
 H     14  13  12     2.097460166053   109.96302048   298.79847396
 H     14  13  12     2.094691021166   110.59669258    59.81281424
 H     15  13  12     2.103105113549   111.68517155   173.07998210
 H     15  13  12     2.099204796568   109.21374329    55.10099602
 H     16  15  13     1.876544815726   106.51558148   286.63920243

---------------------
BASIS SET INFORMATION
---------------------
There are 3 groups of distinct atoms

 Group   1 Type C   : 6s6p2d contracted to 2s2p1d pattern {42/42/2}
 Group   2 Type O   : 6s6p2d contracted to 2s2p1d pattern {42/42/2}
 Group   3 Type H   : 8s2p contracted to 2s1p pattern {53/2}

Atom   0C    basis set group =>   1
Atom   1C    basis set group =>   1
Atom   2C    basis set group =>   1
Atom   3C    basis set group =>   1
Atom   4C    basis set group =>   1
Atom   5C    basis set group =>   1
Atom   6C    basis set group =>   1
Atom   7C    basis set group =>   1
Atom   8C    basis set group =>   1
Atom   9C    basis set group =>   1
Atom  10C    basis set group =>   1
Atom  11C    basis set group =>   1
Atom  12C    basis set group =>   1
Atom  13C    basis set group =>   1
Atom  14C    basis set group =>   1
Atom  15O    basis set group =>   2
Atom  16H    basis set group =>   3
Atom  17H    basis set group =>   3
Atom  18H    basis set group =>   3
Atom  19H    basis set group =>   3
Atom  20H    basis set group =>   3
Atom  21H    basis set group =>   3
Atom  22H    basis set group =>   3
Atom  23H    basis set group =>   3
Atom  24H    basis set group =>   3
Atom  25H    basis set group =>   3
Atom  26H    basis set group =>   3
Atom  27H    basis set group =>   3
Atom  28H    basis set group =>   3
Atom  29H    basis set group =>   3
Atom  30H    basis set group =>   3
Atom  31H    basis set group =>   3
Atom  32H    basis set group =>   3
Atom  33H    basis set group =>   3
Atom  34H    basis set group =>   3
Atom  35H    basis set group =>   3
Atom  36H    basis set group =>   3
Atom  37H    basis set group =>   3
Atom  38H    basis set group =>   3
Atom  39H    basis set group =>   3
---------------------------------
AUXILIARY/J BASIS SET INFORMATION
---------------------------------
There are 3 groups of distinct atoms

 Group   1 Type C   : 12s5p4d2f1g contracted to 6s4p3d1f1g pattern {711111/2111/211/2/1}
 Group   2 Type O   : 12s5p4d2f1g contracted to 6s4p3d1f1g pattern {711111/2111/211/2/1}
 Group   3 Type H   : 5s2p1d contracted to 3s1p1d pattern {311/2/1}

Atom   0C    basis set group =>   1
Atom   1C    basis set group =>   1
Atom   2C    basis set group =>   1
Atom   3C    basis set group =>   1
Atom   4C    basis set group =>   1
Atom   5C    basis set group =>   1
Atom   6C    basis set group =>   1
Atom   7C    basis set group =>   1
Atom   8C    basis set group =>   1
Atom   9C    basis set group =>   1
Atom  10C    basis set group =>   1
Atom  11C    basis set group =>   1
Atom  12C    basis set group =>   1
Atom  13C    basis set group =>   1
Atom  14C    basis set group =>   1
Atom  15O    basis set group =>   2
Atom  16H    basis set group =>   3
Atom  17H    basis set group =>   3
Atom  18H    basis set group =>   3
Atom  19H    basis set group =>   3
Atom  20H    basis set group =>   3
Atom  21H    basis set group =>   3
Atom  22H    basis set group =>   3
Atom  23H    basis set group =>   3
Atom  24H    basis set group =>   3
Atom  25H    basis set group =>   3
Atom  26H    basis set group =>   3
Atom  27H    basis set group =>   3
Atom  28H    basis set group =>   3
Atom  29H    basis set group =>   3
Atom  30H    basis set group =>   3
Atom  31H    basis set group =>   3
Atom  32H    basis set group =>   3
Atom  33H    basis set group =>   3
Atom  34H    basis set group =>   3
Atom  35H    basis set group =>   3
Atom  36H    basis set group =>   3
Atom  37H    basis set group =>   3
Atom  38H    basis set group =>   3
Atom  39H    basis set group =>   3
-------------------------
ECP PARAMETER INFORMATION
-------------------------

 Group 1, Type C  ECP vDZP-ECP (replacing 2 core electrons, lmax=3)
 Group 2, Type O  ECP vDZP-ECP (replacing 2 core electrons, lmax=3)

Atom   0C    ECP group =>   1
Atom   1C    ECP group =>   1
Atom   2C    ECP group =>   1
Atom   3C    ECP group =>   1
Atom   4C    ECP group =>   1
Atom   5C    ECP group =>   1
Atom   6C    ECP group =>   1
Atom   7C    ECP group =>   1
Atom   8C    ECP group =>   1
Atom   9C    ECP group =>   1
Atom  10C    ECP group =>   1
Atom  11C    ECP group =>   1
Atom  12C    ECP group =>   1
Atom  13C    ECP group =>   1
Atom  14C    ECP group =>   1
Atom  15O    ECP group =>   2



           ************************************************************
           *        Program running with 40 parallel MPI-processes    *
           *              working on a common directory               *
           ************************************************************
------------------------------------------------------------------------------
                             ORCA STARTUP CALCULATIONS
                           -- RI-GTO INTEGRALS CHOSEN --
------------------------------------------------------------------------------
------------------------------------------------------------------------------
                   ___                                                        
                  /   \      - P O W E R E D   B Y -                         
                 /     \                                                     
                 |  |  |   _    _      __       _____    __    __             
                 |  |  |  | |  | |    /  \     |  _  \  |  |  /  |          
                  \  \/   | |  | |   /    \    | | | |  |  | /  /          
                 / \  \   | |__| |  /  /\  \   | |_| |  |  |/  /          
                |  |  |   |  __  | /  /__\  \  |    /   |      \           
                |  |  |   | |  | | |   __   |  |    \   |  |\   \          
                \     /   | |  | | |  |  |  |  | |\  \  |  | \   \       
                 \___/    |_|  |_| |__|  |__|  |_| \__\ |__|  \__/        
                                                                              
                      - O R C A' S   B I G   F R I E N D -                    
                                      &                                       
                       - I N T E G R A L  F E E D E R -                       
                                                                              
 v1 FN, 2020, v2 2021, v3 2022-2024                                           
------------------------------------------------------------------------------


----------------------
SHARK INTEGRAL PACKAGE
----------------------

Number of atoms                             ...     40
Number of basis functions                   ...    328
Number of shells                            ...    152
Maximum angular momentum                    ...      2
Integral batch strategy                     ... SHARK/LIBINT Hybrid
RI-J (if used) integral strategy            ... SPLIT-RIJ (Revised 2003 algorithm where possible)
Printlevel                                  ...      1
Contraction scheme used                     ... SEGMENTED contraction
Prescreening option                         ... SCHWARTZ
   Thresh                                   ... 2.500e-11
   Tcut                                     ... 2.500e-12
   Tpresel                                  ... 2.500e-12 
Coulomb Range Separation                    ... NOT USED
Exchange Range Separation                   ... Long Range
   Mu parameter                             ... 3.000e-01
   Scaling (regular/separated)              ... 1.670e-01 8.330e-01
Multipole approximations                    ... NOT USED
Finite Nucleus Model                        ... NOT USED
CABS basis                                  ... NOT available
Auxiliary Coulomb fitting basis             ... AVAILABLE
   # of basis functions in Aux-J            ...   1048
   # of shells in Aux-J                     ...    360
   Maximum angular momentum in Aux-J        ...      4
Auxiliary J/K fitting basis                 ... NOT available
Auxiliary Correlation fitting basis         ... NOT available
Auxiliary 'external' fitting basis          ... NOT available

Checking pre-screening integrals            ... done (  0.0 sec) Dimension = 152
Check shell pair data                       ... done (  0.0 sec)
Shell pair information
Shell pair cut-off parameter TPreSel        ...   2.5e-12
Total number of shell pairs                 ...     11628
Shell pairs after pre-screening             ...     11325
Total number of primitive shell pairs       ...    108456
Primitive shell pairs kept                  ...     79080
          la=0 lb=0:   3205 shell pairs
          la=1 lb=0:   4367 shell pairs
          la=1 lb=1:   1505 shell pairs
          la=2 lb=0:   1259 shell pairs
          la=2 lb=1:    857 shell pairs
          la=2 lb=2:    132 shell pairs

Calculating one electron integrals          ... done (  0.0 sec)
Calculating ECP integrals                   ... done (  0.2 sec)
Calculating RI/J V-Matrix + Cholesky decomp.... done (  0.0 sec)
Calculating Nuclear repulsion               ... done (  0.0 sec) ENN=    617.655043710552 Eh

Diagonalization of the overlap matrix:
Smallest eigenvalue                        ... 1.017e-03
Time for diagonalization                   ...    0.015 sec
Threshold for overlap eigenvalues          ... 1.000e-07
Number of eigenvalues below threshold      ... 0
Time for construction of square roots      ...    0.008 sec
Total time needed                          ...    0.027 sec

-------------------
DFT GRID GENERATION
-------------------

General Integration Accuracy     IntAcc      ... 4.388
Radial Grid Type                 RadialGrid  ... OptM3 with GC (2021)
Angular Grid (max. ang.)         AngularGrid ... 4 (Lebedev-302)
Angular grid pruning method      GridPruning ... 4 (adaptive)
Weight generation scheme         WeightScheme... mBecke (2022)
Basis function cutoff            BFCut       ... 1.0000e-11
Integration weight cutoff        WCut        ... 1.0000e-14
Partially contracted basis set               ... off
Rotationally invariant grid construction     ... off
Angular grids for H and He will be reduced by one unit

Total number of grid points                  ...   171045
Total number of batches                      ...     2694
Average number of points per batch           ...       63
Average number of grid points per atom       ...     4276

--------------------
COSX GRID GENERATION
--------------------

GRIDX 1
-------
General Integration Accuracy     IntAcc      ... 3.816
Radial Grid Type                 RadialGrid  ... OptM3 with GC (2021)
Angular Grid (max. ang.)         AngularGrid ... 1 (Lebedev-50)
Angular grid pruning method      GridPruning ... 4 (adaptive)
Weight generation scheme         WeightScheme... mBecke (2022)
Basis function cutoff            BFCut       ... 1.0000e-11
Integration weight cutoff        WCut        ... 1.0000e-14
Partially contracted basis set               ... on
Rotationally invariant grid construction     ... off
Angular grids for H and He will be reduced by one unit

Total number of grid points                  ...    21802
Total number of batches                      ...      198
Average number of points per batch           ...      110
Average number of grid points per atom       ...      545
UseSFitting                                  ... on

GRIDX 2
-------
General Integration Accuracy     IntAcc      ... 4.020
Radial Grid Type                 RadialGrid  ... OptM3 with GC (2021)
Angular Grid (max. ang.)         AngularGrid ... 2 (Lebedev-110)
Angular grid pruning method      GridPruning ... 4 (adaptive)
Weight generation scheme         WeightScheme... mBecke (2022)
Basis function cutoff            BFCut       ... 1.0000e-11
Integration weight cutoff        WCut        ... 1.0000e-14
Partially contracted basis set               ... on
Rotationally invariant grid construction     ... off
Angular grids for H and He will be reduced by one unit

Total number of grid points                  ...    45381
Total number of batches                      ...      376
Average number of points per batch           ...      120
Average number of grid points per atom       ...     1135
UseSFitting                                  ... on

GRIDX 3
-------
General Integration Accuracy     IntAcc      ... 4.338
Radial Grid Type                 RadialGrid  ... OptM3 with GC (2021)
Angular Grid (max. ang.)         AngularGrid ... 3 (Lebedev-194)
Angular grid pruning method      GridPruning ... 4 (adaptive)
Weight generation scheme         WeightScheme... mBecke (2022)
Basis function cutoff            BFCut       ... 1.0000e-11
Integration weight cutoff        WCut        ... 1.0000e-14
Partially contracted basis set               ... on
Rotationally invariant grid construction     ... off
Angular grids for H and He will be reduced by one unit

Total number of grid points                  ...    98468
Total number of batches                      ...      790
Average number of points per batch           ...      124
Average number of grid points per atom       ...     2462
UseSFitting                                  ... on
Initializing property integral containers    ... done (  0.0 sec)

SHARK setup successfully completed in   5.4 seconds

Maximum memory used throughout the entire STARTUP-calculation: 54.6 MB


           ************************************************************
           *        Program running with 40 parallel MPI-processes    *
           *              working on a common directory               *
           ************************************************************
-------------------------------------------------------------------------------
                                 ORCA GUESS
                   Start orbitals & Density for SCF / CASSCF
-------------------------------------------------------------------------------

------------
SCF SETTINGS
------------
Hamiltonian:
 Density Functional     Method          .... DFT(GTOs)
 Exchange Functional    Exchange        .... WB97X-V
 Correlation Functional Correlation     .... WB97X-V
 Gradients option       PostSCFGGA      .... off
 Hybrid DFT is turned on
   Fraction HF Exchange ScalHFX         ....  0.167000
   Scaling of DF-GGA-X  ScalDFX         ....  0.000000
   Scaling of DF-GGA-C  ScalDFC         ....  1.000000
   Scaling of DF-LDA-C  ScalLDAC        ....  1.000000
   Perturbative correction              ....  0.000000
 Long-range corrected/Screened/Range-Separated Hybrid DFT is turned on
   Amount of maximum screened exact exchange              ....  0.833000
   Range separation parameter mu (erf(mu*r12)/r12)        ....  0.300000
   NL short-range parameter             ....  6.000000
   NL long-range parameter              ....  0.010000
 RI-approximation to the Coulomb term is turned on
   Number of AuxJ basis functions       .... 1048
   RIJ-COSX (HFX calculated with COS-X)).... on


General Settings:
 Integral files         IntName         .... ./output/bergamotol/bergamotol
 Hartree-Fock type      HFTyp           .... RHF
 Total Charge           Charge          ....    0
 Multiplicity           Mult            ....    1
 Number of Electrons    NEL             ....   90
 Basis Dimension        Dim             ....  328
 Nuclear Repulsion      ENuc            ....    617.6550437106 Eh

Convergence Acceleration:
 AO-DIIS                CNVDIIS         .... on
   Start iteration      DIISMaxIt       ....    12
   Startup error        DIISStart       ....  0.200000
   # of expansion vecs  DIISMaxEq       ....     5
   Bias factor          DIISBfac        ....   1.050
   Max. coefficient     DIISMaxC        ....  10.000
 MO-DIIS                CNVKDIIS        .... off
 Trust-Rad. Augm. Hess. CNVTRAH         .... auto
   Auto Start mean grad. ratio tolernc. ....  1.125000
   Auto Start start iteration           ....    50
   Auto Start num. interpolation iter.  ....    10
   Max. Number of Micro iterations      ....    24
   Max. Number of Macro iterations      .... Maxiter - #DIIS iter
   Number of Davidson start vectors     ....     2
   Converg. threshold    (grad. norm)   ....   1.000e-05
   Grad. Scal. Fac. for Micro threshold ....   0.100
   Minimum threshold for Micro iter.    ....   1.000e-02
   NR start threshold (gradient norm)   ....   1.000e-04
   Initial trust radius                 ....   0.400
   Minimum AH scaling param. (alpha)    ....   1.000
   Maximum AH scaling param. (alpha)    .... 1000.000
   Quad. conv. algorithm                .... NR
   White noise on init. David. guess    .... on
   Maximum white noise                  ....   0.010
   Pseudo random numbers                .... off
   Inactive MOs                         .... canonical
   Orbital update algorithm             .... Taylor
   Preconditioner                       .... Diag
   Full preconditioner red. dimension   ....   250
 SOSCF                  CNVSOSCF        .... on
   Start iteration      SOSCFMaxIt      ....   150
   Startup grad/error   SOSCFStart      ....  0.003300
   Hessian update       SOSCFHessUp     .... L-BFGS
 Level Shifting         CNVShift        .... on
   Level shift para.    LevelShift      ....    0.2500
   Turn off err/grad.   ShiftErr        ....    0.0010
 Zerner damping         CNVZerner       .... off
 Static damping         CNVDamp         .... on
   Fraction old density DampFac         ....    0.7000
   Max. Damping (<1)    DampMax         ....    0.9800
   Min. Damping (>=0)   DampMin         ....    0.0000
   Turn off err/grad.   DampErr         ....    0.1000

SCF Procedure:
 Maximum # iterations   MaxIter         ....   125
 SCF integral mode      SCFMode         .... Direct
   Integral package                     .... SHARK and LIBINT hybrid scheme
 Reset frequency        DirectResetFreq ....    20
 Integral Threshold     Thresh          ....  2.500e-11 Eh
 Primitive CutOff       TCut            ....  2.500e-12 Eh

Convergence Tolerance:
 Convergence Check Mode ConvCheckMode   .... Total+1el-Energy
 Convergence forced     ConvForced      .... 0
 Energy Change          TolE            ....  1.000e-08 Eh
 1-El. energy change                    ....  1.000e-05 Eh
 Orbital Gradient       TolG            ....  1.000e-05
 Orbital Rotation angle TolX            ....  1.000e-05
 DIIS Error             TolErr          ....  5.000e-07

------------------------------
INITIAL GUESS: MODEL POTENTIAL
------------------------------
Loading Hartree-Fock densities                     ... done
Atomic calculation to generate a density for atom 0 (C  with ECP)
  Multiplicity assumed   :    1
  Atomic configuration   : 1s2 2s2 2p2 
  Number of open shells  : 1
  Command: /home/aspe232/Project/Software/ORCA/6_0_1/build/orca ./output/bergamotol/bergamotol_atom6.inp "" > ./output/bergamotol/bergamotol_atom6.out
Returned from the atomic calculation with res=0
Atomic calculation to generate a density for atom 15 (O  with ECP)
  Multiplicity assumed   :    3
  Atomic configuration   : 1s2 2s2 2p4 
  Number of open shells  : 1
  Command: /home/aspe232/Project/Software/ORCA/6_0_1/build/orca ./output/bergamotol/bergamotol_atom8.inp "" > ./output/bergamotol/bergamotol_atom8.out
Returned from the atomic calculation with res=0
Calculating cut-offs                               ... done
Initializing the effective Hamiltonian             ... done
Setting up the integral package (SHARK)            ... done
Starting the Coulomb interaction                   ... done (   0.1 sec)
Making the grid                                    ... done (   1.0 sec)
Mapping shells                                     ... done
Starting the XC term evaluation                    ... done (   0.1 sec)
  promolecular density results
     # of electrons  =    121.995025811
     EX              =    -61.086333220
     EC              =     -4.919766161
     EX+EC           =    -66.006099380
Transforming the Hamiltonian                       ... done (   0.0 sec)
Diagonalizing the Hamiltonian                      ... done (   0.0 sec)
Back transforming the eigenvectors                 ... done (   0.0 sec)
Now organizing SCF variables                       ... done
                      ------------------
                      INITIAL GUESS DONE (   2.3 sec)
                      ------------------
             **** ENERGY FILE WAS UPDATED (./output/bergamotol/bergamotol.en.tmp) ****
Finished Guess after   3.3 sec
Maximum memory used throughout the entire GUESS-calculation: 36.1 MB


           ************************************************************
           *        Program running with 40 parallel MPI-processes    *
           *              working on a common directory               *
           ************************************************************

-------------------------------------------------------------------------------------------
                                      ORCA LEAN-SCF
                              memory conserving SCF solver
-------------------------------------------------------------------------------------------

----------------------------------------D-I-I-S--------------------------------------------
Iteration    Energy (Eh)           Delta-E    RMSDP     MaxDP     DIISErr   Damp  Time(sec)
-------------------------------------------------------------------------------------------
               ***  Starting incremental Fock matrix formation  ***
    1    -115.1792154970665933     0.00e+00  3.30e-03  7.99e-02  2.05e-01  0.700   9.1
    2    -115.4577891400891758    -2.79e-01  2.40e-03  5.48e-02  1.17e-01  0.700   6.3
                               ***Turning on AO-DIIS***
    3    -115.6002188690564481    -1.42e-01  1.25e-03  2.82e-02  5.79e-02  0.700   5.6
    4    -115.6842193498946472    -8.40e-02  2.69e-03  6.02e-02  3.97e-02  0.000   6.0
    5    -115.8615533348307736    -1.77e-01  2.23e-04  4.35e-03  4.92e-03  0.000   6.0
                              *** Initializing SOSCF ***
---------------------------------------S-O-S-C-F--------------------------------------
Iteration    Energy (Eh)           Delta-E    RMSDP     MaxDP     MaxGrad    Time(sec)
--------------------------------------------------------------------------------------
    6    -115.8620668708157382    -5.14e-04  1.02e-04  3.60e-03  2.94e-03     6.0
               *** Restarting incremental Fock matrix formation ***
    7    -115.8622278774444112    -1.61e-04  6.11e-05  1.94e-03  2.96e-04     8.7
    8    -115.8622428600230023    -1.50e-05  3.59e-05  1.19e-03  1.71e-04     7.6
    9    -115.8622471109456455    -4.25e-06  1.08e-05  2.53e-04  4.20e-05     7.4
   10    -115.8622474598469125    -3.49e-07  2.45e-06  5.59e-05  9.03e-06     7.0
   11    -115.8622474713448582    -1.15e-08  9.46e-07  3.05e-05  7.74e-06     6.2
   12    -115.8622474969472478    -2.56e-08  2.39e-07  6.91e-06  1.26e-06     6.1
                  *** Gradient check signals convergence ***

               *****************************************************
               *                     SUCCESS                       *
               *           SCF CONVERGED AFTER  12 CYCLES          *
               *****************************************************

Recomputing exchange energy using gridx3       ... done (   10.131 sec)
Old exchange energy                            :    -17.208035181 Eh
New exchange energy                            :    -17.207992273 Eh
Exchange energy change after final integration :      0.000042908 Eh
Total energy after final integration           :   -115.862204589 Eh
             **** ENERGY FILE WAS UPDATED (./output/bergamotol/bergamotol.en.tmp) ****

----------------
TOTAL SCF ENERGY
----------------

Total Energy       :       -115.86220458885319 Eh           -3152.77087 eV

Components:
Nuclear Repulsion  :        617.65504371055226 Eh           16807.24820 eV
Electronic Energy  :       -733.51729120749951 Eh          -19960.02024 eV
One Electron Energy:      -1400.61082890224156 Eh          -38112.55826 eV
Two Electron Energy:        667.09353769474205 Eh           18152.53802 eV

Virial components:
Potential Energy   :       -206.21224438163094 Eh           -5611.32044 eV
Kinetic Energy     :         90.35003979277775 Eh            2458.54957 eV
Virial Ratio       :          2.28237026629528

DFT components:
N(Alpha)           :       44.999932889506 electrons
N(Beta)            :       44.999932889506 electrons
N(Total)           :       89.999865779012 electrons
E(X)               :      -17.999459653102 Eh       
E(C)               :       -3.391523026447 Eh       
E(XC)              :      -21.390982679549 Eh       

---------------
SCF CONVERGENCE
---------------

  Last Energy change         ...    2.5602e-08  Tolerance :   1.0000e-08
  Last MAX-Density change    ...    6.9079e-06  Tolerance :   1.0000e-07
  Last RMS-Density change    ...    2.3926e-07  Tolerance :   5.0000e-09
  Last DIIS Error            ...    2.9382e-03  Tolerance :   5.0000e-07
  Last Orbital Gradient      ...    1.2568e-06  Tolerance :   1.0000e-05
  Last Orbital Rotation      ...    4.3595e-06  Tolerance :   1.0000e-05


----------------
ORBITAL ENERGIES
----------------

  NO   OCC          E(Eh)            E(eV) 
   0   2.0000      -1.143788       -31.1240 
   1   2.0000      -1.024279       -27.8720 
   2   2.0000      -0.951033       -25.8789 
   3   2.0000      -0.919878       -25.0312 
   4   2.0000      -0.895109       -24.3572 
   5   2.0000      -0.874377       -23.7930 
   6   2.0000      -0.839662       -22.8484 
   7   2.0000      -0.817830       -22.2543 
   8   2.0000      -0.803347       -21.8602 
   9   2.0000      -0.796101       -21.6630 
  10   2.0000      -0.750906       -20.4332 
  11   2.0000      -0.723890       -19.6980 
  12   2.0000      -0.715386       -19.4666 
  13   2.0000      -0.666146       -18.1268 
  14   2.0000      -0.648298       -17.6411 
  15   2.0000      -0.619167       -16.8484 
  16   2.0000      -0.609277       -16.5793 
  17   2.0000      -0.594357       -16.1733 
  18   2.0000      -0.581819       -15.8321 
  19   2.0000      -0.568623       -15.4730 
  20   2.0000      -0.555403       -15.1133 
  21   2.0000      -0.547782       -14.9059 
  22   2.0000      -0.536197       -14.5907 
  23   2.0000      -0.527082       -14.3426 
  24   2.0000      -0.524376       -14.2690 
  25   2.0000      -0.521017       -14.1776 
  26   2.0000      -0.513172       -13.9641 
  27   2.0000      -0.509240       -13.8571 
  28   2.0000      -0.503808       -13.7093 
  29   2.0000      -0.491564       -13.3761 
  30   2.0000      -0.490861       -13.3570 
  31   2.0000      -0.477647       -12.9974 
  32   2.0000      -0.472802       -12.8656 
  33   2.0000      -0.466712       -12.6999 
  34   2.0000      -0.453966       -12.3530 
  35   2.0000      -0.452254       -12.3065 
  36   2.0000      -0.433953       -11.8085 
  37   2.0000      -0.430353       -11.7105 
  38   2.0000      -0.420213       -11.4346 
  39   2.0000      -0.394603       -10.7377 
  40   2.0000      -0.389103       -10.5880 
  41   2.0000      -0.383639       -10.4394 
  42   2.0000      -0.374611       -10.1937 
  43   2.0000      -0.325319        -8.8524 
  44   2.0000      -0.315706        -8.5908 
  45   0.0000       0.069558         1.8928 
  46   0.0000       0.079024         2.1503 
  47   0.0000       0.085068         2.3148 
  48   0.0000       0.092290         2.5113 
  49   0.0000       0.095718         2.6046 
  50   0.0000       0.099128         2.6974 
  51   0.0000       0.107722         2.9313 
  52   0.0000       0.112330         3.0567 
  53   0.0000       0.117863         3.2072 
  54   0.0000       0.126979         3.4553 
  55   0.0000       0.128629         3.5002 
*Only the first 10 virtual orbitals were printed.

                    ********************************
                    * MULLIKEN POPULATION ANALYSIS *
                    ********************************

-----------------------
MULLIKEN ATOMIC CHARGES
-----------------------
   0 C :   -0.076849
   1 C :   -0.084743
   2 C :   -0.042181
   3 C :   -0.069509
   4 C :   -0.046304
   5 C :   -0.028589
   6 C :   -0.025784
   7 C :   -0.159291
   8 C :   -0.025476
   9 C :   -0.013271
  10 C :   -0.087301
  11 C :    0.017764
  12 C :   -0.093500
  13 C :   -0.091102
  14 C :    0.084550
  15 O :   -0.322275
  16 H :    0.047343
  17 H :    0.054333
  18 H :    0.035656
  19 H :    0.020096
  20 H :    0.050414
  21 H :    0.041613
  22 H :    0.043223
  23 H :    0.034653
  24 H :    0.049400
  25 H :    0.039011
  26 H :    0.039741
  27 H :    0.024514
  28 H :    0.031979
  29 H :    0.042772
  30 H :    0.032375
  31 H :    0.041024
  32 H :    0.039807
  33 H :    0.011682
  34 H :    0.031227
  35 H :    0.056051
  36 H :    0.046655
  37 H :    0.025493
  38 H :    0.054436
  39 H :    0.170365
Sum of atomic charges:   -0.0000000

--------------------------------
MULLIKEN REDUCED ORBITAL CHARGES
--------------------------------
  0 C s       :     0.954543  s :     0.954543
      pz      :     1.031606  p :     3.048884
      px      :     1.043376
      py      :     0.973902
      dz2     :     0.017164  d :     0.073422
      dxz     :     0.008956
      dyz     :     0.015135
      dx2y2   :     0.016397
      dxy     :     0.015771

  1 C s       :     1.090363  s :     1.090363
      pz      :     0.997425  p :     2.876185
      px      :     0.958078
      py      :     0.920683
      dz2     :     0.026995  d :     0.118195
      dxz     :     0.020505
      dyz     :     0.034056
      dx2y2   :     0.017396
      dxy     :     0.019242

  2 C s       :     1.037628  s :     1.037628
      pz      :     0.973902  p :     2.917250
      px      :     1.011799
      py      :     0.931549
      dz2     :     0.017945  d :     0.087304
      dxz     :     0.016509
      dyz     :     0.029034
      dx2y2   :     0.010390
      dxy     :     0.013426

  3 C s       :     0.995347  s :     0.995347
      pz      :     0.996202  p :     2.976508
      px      :     1.028798
      py      :     0.951508
      dz2     :     0.017574  d :     0.097655
      dxz     :     0.022509
      dyz     :     0.018004
      dx2y2   :     0.019902
      dxy     :     0.019665

  4 C s       :     1.058005  s :     1.058005
      pz      :     0.940231  p :     2.870079
      px      :     0.937399
      py      :     0.992449
      dz2     :     0.022586  d :     0.118220
      dxz     :     0.027459
      dyz     :     0.025243
      dx2y2   :     0.026121
      dxy     :     0.016811

  5 C s       :     1.009903  s :     1.009903
      pz      :     0.969807  p :     2.920767
      px      :     0.979358
      py      :     0.971601
      dz2     :     0.019030  d :     0.097920
      dxz     :     0.014163
      dyz     :     0.022739
      dx2y2   :     0.026531
      dxy     :     0.015457

  6 C s       :     1.036517  s :     1.036517
      pz      :     0.996734  p :     2.870320
      px      :     0.939541
      py      :     0.934045
      dz2     :     0.027046  d :     0.118948
      dxz     :     0.019262
      dyz     :     0.024912
      dx2y2   :     0.020252
      dxy     :     0.027475

  7 C s       :     1.093689  s :     1.093689
      pz      :     0.989699  p :     2.922698
      px      :     0.913528
      py      :     1.019470
      dz2     :     0.018824  d :     0.142905
      dxz     :     0.036947
      dyz     :     0.028226
      dx2y2   :     0.021923
      dxy     :     0.036985

  8 C s       :     0.949871  s :     0.949871
      pz      :     1.004387  p :     3.003368
      px      :     0.998692
      py      :     1.000289
      dz2     :     0.006671  d :     0.072237
      dxz     :     0.018724
      dyz     :     0.020479
      dx2y2   :     0.007917
      dxy     :     0.018446

  9 C s       :     0.987367  s :     0.987367
      pz      :     0.971997  p :     2.931885
      px      :     0.975010
      py      :     0.984878
      dz2     :     0.012180  d :     0.094019
      dxz     :     0.024059
      dyz     :     0.024901
      dx2y2   :     0.009894
      dxy     :     0.022985

 10 C s       :     0.989116  s :     0.989116
      pz      :     1.002649  p :     2.999769
      px      :     0.955304
      py      :     1.041816
      dz2     :     0.019546  d :     0.098416
      dxz     :     0.019247
      dyz     :     0.019962
      dx2y2   :     0.016815
      dxy     :     0.022847

 11 C s       :     1.038189  s :     1.038189
      pz      :     0.947791  p :     2.852341
      px      :     0.924301
      py      :     0.980250
      dz2     :     0.005753  d :     0.091706
      dxz     :     0.020385
      dyz     :     0.010431
      dx2y2   :     0.033643
      dxy     :     0.021494

 12 C s       :     1.085040  s :     1.085040
      pz      :     1.002687  p :     2.897734
      px      :     0.937844
      py      :     0.957203
      dz2     :     0.009170  d :     0.110725
      dxz     :     0.017469
      dyz     :     0.017936
      dx2y2   :     0.035398
      dxy     :     0.030752

 13 C s       :     0.952769  s :     0.952769
      pz      :     1.040058  p :     3.064465
      px      :     1.044020
      py      :     0.980387
      dz2     :     0.018882  d :     0.073868
      dxz     :     0.007379
      dyz     :     0.014227
      dx2y2   :     0.012975
      dxy     :     0.020406

 14 C s       :     1.018861  s :     1.018861
      pz      :     0.730004  p :     2.745973
      px      :     0.979904
      py      :     1.036065
      dz2     :     0.033684  d :     0.150616
      dxz     :     0.041577
      dyz     :     0.034740
      dx2y2   :     0.013157
      dxy     :     0.027459

 15 O s       :     1.663402  s :     1.663402
      pz      :     1.254400  p :     4.627022
      px      :     1.893780
      py      :     1.478842
      dz2     :     0.008276  d :     0.031851
      dxz     :     0.003725
      dyz     :     0.011367
      dx2y2   :     0.006487
      dxy     :     0.001996

 16 H s       :     0.908329  s :     0.908329
      pz      :     0.014039  p :     0.044328
      px      :     0.013499
      py      :     0.016790

 17 H s       :     0.901271  s :     0.901271
      pz      :     0.010206  p :     0.044395
      px      :     0.022929
      py      :     0.011260

 18 H s       :     0.920240  s :     0.920240
      pz      :     0.022190  p :     0.044104
      px      :     0.011964
      py      :     0.009951

 19 H s       :     0.931506  s :     0.931506
      pz      :     0.014879  p :     0.048399
      px      :     0.016286
      py      :     0.017234

 20 H s       :     0.907060  s :     0.907060
      pz      :     0.009952  p :     0.042526
      px      :     0.020395
      py      :     0.012179

 21 H s       :     0.914869  s :     0.914869
      pz      :     0.018626  p :     0.043518
      px      :     0.014708
      py      :     0.010185

 22 H s       :     0.916085  s :     0.916085
      pz      :     0.009638  p :     0.040693
      px      :     0.009219
      py      :     0.021836

 23 H s       :     0.921134  s :     0.921134
      pz      :     0.016541  p :     0.044214
      px      :     0.009929
      py      :     0.017744

 24 H s       :     0.907796  s :     0.907796
      pz      :     0.009775  p :     0.042803
      px      :     0.022798
      py      :     0.010230

 25 H s       :     0.919345  s :     0.919345
      pz      :     0.022285  p :     0.041645
      px      :     0.010358
      py      :     0.009002

 26 H s       :     0.916987  s :     0.916987
      pz      :     0.012121  p :     0.043272
      px      :     0.018366
      py      :     0.012785

 27 H s       :     0.930352  s :     0.930352
      pz      :     0.017972  p :     0.045134
      px      :     0.014006
      py      :     0.013157

 28 H s       :     0.924078  s :     0.924078
      pz      :     0.014239  p :     0.043943
      px      :     0.012175
      py      :     0.017530

 29 H s       :     0.910785  s :     0.910785
      pz      :     0.013167  p :     0.046443
      px      :     0.016228
      py      :     0.017049

 30 H s       :     0.925448  s :     0.925448
      pz      :     0.014643  p :     0.042177
      px      :     0.015292
      py      :     0.012241

 31 H s       :     0.916003  s :     0.916003
      pz      :     0.010168  p :     0.042974
      px      :     0.013597
      py      :     0.019208

 32 H s       :     0.917152  s :     0.917152
      pz      :     0.019312  p :     0.043041
      px      :     0.009965
      py      :     0.013764

 33 H s       :     0.939650  s :     0.939650
[...]
 85:   1514.56   0.001512    7.64  0.000312  (-0.006833  0.007515 -0.014436)
 86:   1516.10   0.001654    8.36  0.000340  ( 0.015034  0.002679 -0.010356)
 87:   1518.51   0.000562    2.84  0.000115  (-0.004899 -0.004938 -0.008189)
 88:   1519.88   0.003480   17.59  0.000715  ( 0.008098  0.000414 -0.025472)
 89:   1527.05   0.001855    9.37  0.000379  ( 0.008012  0.007145  0.016242)
 90:   1528.24   0.000513    2.59  0.000105  ( 0.009681 -0.003297 -0.000483)
 91:   1534.65   0.001907    9.64  0.000388  (-0.003090 -0.014101  0.013396)
 92:   1538.30   0.003708   18.74  0.000752  ( 0.018708 -0.019879 -0.002665)
 93:   1548.26   0.001875    9.48  0.000378  ( 0.010438 -0.001941  0.016288)
 94:   1791.50   0.000544    2.75  0.000095  (-0.003046  0.002441  0.008917)
 95:   1801.16   0.000352    1.78  0.000061  (-0.003867 -0.006592  0.001594)
 96:   3071.58   0.011339   57.30  0.001152  ( 0.024746  0.009411  0.021238)
 97:   3082.02   0.008162   41.25  0.000826  (-0.009438  0.006625  0.026334)
 98:   3091.42   0.005408   27.33  0.000546  (-0.006440 -0.017752 -0.013760)
 99:   3091.89   0.007652   38.67  0.000772  (-0.015465  0.022838 -0.003399)
100:   3101.23   0.002835   14.33  0.000285  ( 0.002467 -0.016344  0.003475)
101:   3102.41   0.004978   25.16  0.000501  ( 0.007291 -0.007782 -0.019673)
102:   3108.81   0.006024   30.44  0.000605  ( 0.020116  0.007788 -0.011805)
103:   3123.63   0.005429   27.43  0.000542  ( 0.020540 -0.000813  0.010944)
104:   3126.11   0.007961   40.23  0.000795  (-0.004622 -0.022065 -0.016926)
105:   3135.83   0.008561   43.26  0.000852  (-0.012524  0.020290  0.016833)
106:   3146.13   0.007486   37.83  0.000742  (-0.013293  0.012200 -0.020419)
107:   3149.88   0.003707   18.73  0.000367  ( 0.013227 -0.013523  0.003072)
108:   3164.69   0.002199   11.11  0.000217  (-0.008784 -0.002802 -0.011482)
109:   3168.26   0.001978    9.99  0.000195  (-0.012052  0.003294 -0.006220)
110:   3184.81   0.002496   12.61  0.000245  ( 0.007206  0.008285 -0.011134)
111:   3186.17   0.002344   11.84  0.000230  ( 0.004470 -0.014399  0.001493)
112:   3192.55   0.002147   10.85  0.000210  ( 0.002296 -0.010801 -0.009376)
113:   3202.18   0.002444   12.35  0.000238  ( 0.007601  0.008669 -0.010258)
114:   3204.00   0.004754   24.02  0.000463  (-0.020359  0.000442 -0.006952)
115:   3216.61   0.001376    6.95  0.000133  ( 0.010570  0.000954 -0.004563)
116:   3217.76   0.005896   29.79  0.000572  ( 0.007280  0.022539 -0.003280)
117:   3221.72   0.004283   21.64  0.000415  ( 0.001187  0.012201 -0.016265)
118:   3227.95   0.003709   18.75  0.000359  (-0.011530 -0.012414  0.008458)
119:   3978.14   0.011030   55.74  0.000865  (-0.018669  0.022610  0.002343)

* The epsilon (eps) is given for a Dirac delta lineshape.
** The dipole moment derivative (T) already includes vibrational overlap.

The first frequency considered to be a vibration is 6
The total number of vibrations considered is 114


--------------------------
THERMOCHEMISTRY AT 298.15K
--------------------------

Temperature         ...   298.15 K
Pressure            ...     1.00 atm
Total Mass          ...   220.36 AMU
Quasi RRHO          ...     True
Cut-Off Frequency   ...     1.00 cm^-1

Throughout the following assumptions are being made:
  (1) The electronic state is orbitally nondegenerate
  (2) There are no thermally accessible electronically excited states
  (3) Hindered rotations indicated by low frequency modes are not
      treated as such but are treated as vibrations and this may
      cause some error
  (4) All equations used are the standard statistical mechanics
      equations for an ideal gas
  (5) All vibrations are strictly harmonic

freq.      21.75  E(vib)   ...       0.56 
freq.      33.59  E(vib)   ...       0.55 
freq.      59.92  E(vib)   ...       0.51 
freq.      79.08  E(vib)   ...       0.49 
freq.      99.56  E(vib)   ...       0.46 
freq.     116.39  E(vib)   ...       0.44 
freq.     147.46  E(vib)   ...       0.41 
freq.     174.01  E(vib)   ...       0.38 
freq.     199.01  E(vib)   ...       0.35 
freq.     204.18  E(vib)   ...       0.35 
freq.     222.00  E(vib)   ...       0.33 
freq.     236.76  E(vib)   ...       0.32 
freq.     246.25  E(vib)   ...       0.31 
freq.     299.32  E(vib)   ...       0.26 
freq.     302.72  E(vib)   ...       0.26 
freq.     324.44  E(vib)   ...       0.25 
freq.     345.41  E(vib)   ...       0.23 
freq.     359.57  E(vib)   ...       0.22 
freq.     399.33  E(vib)   ...       0.19 
freq.     411.15  E(vib)   ...       0.19 
freq.     445.15  E(vib)   ...       0.17 
freq.     457.71  E(vib)   ...       0.16 
freq.     478.56  E(vib)   ...       0.15 
freq.     513.19  E(vib)   ...       0.13 
freq.     556.97  E(vib)   ...       0.12 
freq.     607.33  E(vib)   ...       0.10 
freq.     625.29  E(vib)   ...       0.09 
freq.     655.56  E(vib)   ...       0.08 
freq.     689.40  E(vib)   ...       0.07 
freq.     803.50  E(vib)   ...       0.05 
freq.     813.12  E(vib)   ...       0.05 
freq.     822.87  E(vib)   ...       0.05 
freq.     872.20  E(vib)   ...       0.04 
freq.     891.63  E(vib)   ...       0.03 
freq.     903.21  E(vib)   ...       0.03 
freq.     917.24  E(vib)   ...       0.03 
freq.     934.22  E(vib)   ...       0.03 
freq.     939.87  E(vib)   ...       0.03 
freq.     961.40  E(vib)   ...       0.03 
freq.     974.11  E(vib)   ...       0.03 
freq.     985.90  E(vib)   ...       0.02 
freq.     999.22  E(vib)   ...       0.02 
freq.    1016.50  E(vib)   ...       0.02 
freq.    1030.06  E(vib)   ...       0.02 
freq.    1058.59  E(vib)   ...       0.02 
freq.    1065.46  E(vib)   ...       0.02 
freq.    1077.31  E(vib)   ...       0.02 
freq.    1086.13  E(vib)   ...       0.02 
freq.    1094.13  E(vib)   ...       0.02 
freq.    1100.53  E(vib)   ...       0.02 
freq.    1107.96  E(vib)   ...       0.02 
freq.    1133.70  E(vib)   ...       0.01 
freq.    1139.51  E(vib)   ...       0.01 
freq.    1150.78  E(vib)   ...       0.01 
freq.    1161.72  E(vib)   ...       0.01 
freq.    1197.22  E(vib)   ...       0.01 
freq.    1212.89  E(vib)   ...       0.01 
freq.    1226.42  E(vib)   ...       0.01 
freq.    1232.95  E(vib)   ...       0.01 
freq.    1249.40  E(vib)   ...       0.01 
freq.    1281.17  E(vib)   ...       0.01 
freq.    1287.98  E(vib)   ...       0.01 
freq.    1301.40  E(vib)   ...       0.01 
freq.    1311.66  E(vib)   ...       0.01 
freq.    1318.27  E(vib)   ...       0.01 
freq.    1347.37  E(vib)   ...       0.01 
freq.    1381.96  E(vib)   ...       0.01 
freq.    1390.07  E(vib)   ...       0.00 
freq.    1398.82  E(vib)   ...       0.00 
freq.    1408.47  E(vib)   ...       0.00 
freq.    1412.20  E(vib)   ...       0.00 
freq.    1415.46  E(vib)   ...       0.00 
freq.    1420.55  E(vib)   ...       0.00 
freq.    1435.05  E(vib)   ...       0.00 
freq.    1448.80  E(vib)   ...       0.00 
freq.    1449.77  E(vib)   ...       0.00 
freq.    1461.81  E(vib)   ...       0.00 
freq.    1507.47  E(vib)   ...       0.00 
freq.    1508.30  E(vib)   ...       0.00 
freq.    1514.56  E(vib)   ...       0.00 
freq.    1516.10  E(vib)   ...       0.00 
freq.    1518.51  E(vib)   ...       0.00 
freq.    1519.88  E(vib)   ...       0.00 
freq.    1527.05  E(vib)   ...       0.00 
freq.    1528.24  E(vib)   ...       0.00 
freq.    1534.65  E(vib)   ...       0.00 
freq.    1538.30  E(vib)   ...       0.00 
freq.    1548.26  E(vib)   ...       0.00 
freq.    1791.50  E(vib)   ...       0.00 
freq.    1801.16  E(vib)   ...       0.00 
freq.    3071.58  E(vib)   ...       0.00 
freq.    3082.02  E(vib)   ...       0.00 
freq.    3091.42  E(vib)   ...       0.00 
freq.    3091.89  E(vib)   ...       0.00 
freq.    3101.23  E(vib)   ...       0.00 
freq.    3102.41  E(vib)   ...       0.00 
freq.    3108.81  E(vib)   ...       0.00 
freq.    3123.63  E(vib)   ...       0.00 
freq.    3126.11  E(vib)   ...       0.00 
freq.    3135.83  E(vib)   ...       0.00 
freq.    3146.13  E(vib)   ...       0.00 
freq.    3149.88  E(vib)   ...       0.00 
freq.    3164.69  E(vib)   ...       0.00 
freq.    3168.26  E(vib)   ...       0.00 
freq.    3184.81  E(vib)   ...       0.00 
freq.    3186.17  E(vib)   ...       0.00 
freq.    3192.55  E(vib)   ...       0.00 
freq.    3202.18  E(vib)   ...       0.00 
freq.    3204.00  E(vib)   ...       0.00 
freq.    3216.61  E(vib)   ...       0.00 
freq.    3217.76  E(vib)   ...       0.00 
freq.    3221.72  E(vib)   ...       0.00 
freq.    3227.95  E(vib)   ...       0.00 
freq.    3978.14  E(vib)   ...       0.00 

------------
INNER ENERGY
------------

The inner energy is: U= E(el) + E(ZPE) + E(vib) + E(rot) + E(trans)
    E(el)   - is the total energy from the electronic structure calculation
              = E(kin-el) + E(nuc-el) + E(el-el) + E(nuc-nuc)
    E(ZPE)  - the the zero temperature vibrational energy from the frequency calculation
    E(vib)  - the the finite temperature correction to E(ZPE) due to population
              of excited vibrational states
    E(rot)  - is the rotational thermal energy
    E(trans)- is the translational thermal energy

Summary of contributions to the inner energy U:
Electronic energy                ...   -115.94379642 Eh
Zero point energy                ...      0.36858797 Eh     231.29 kcal/mol
Thermal vibrational correction   ...      0.01425938 Eh       8.95 kcal/mol
Thermal rotational correction    ...      0.00141627 Eh       0.89 kcal/mol
Thermal translational correction ...      0.00141627 Eh       0.89 kcal/mol
-----------------------------------------------------------------------
Total thermal energy                   -115.55811653 Eh


Summary of corrections to the electronic energy:
(perhaps to be used in another calculation)
Total thermal correction                  0.01709192 Eh      10.73 kcal/mol
Non-thermal (ZPE) correction              0.36858797 Eh     231.29 kcal/mol
-----------------------------------------------------------------------
Total correction                          0.38567989 Eh     242.02 kcal/mol


--------
ENTHALPY
--------

The enthalpy is H = U + kB*T
                kB is Boltzmann's constant
Total thermal energy              ...   -115.55811653 Eh 
Thermal Enthalpy correction       ...      0.00094421 Eh       0.59 kcal/mol
-----------------------------------------------------------------------
Total Enthalpy                    ...   -115.55717232 Eh


Note: Only C1 symmetry has been detected, increase convergence thresholds 
      if your molecule has a higher symmetry. Symmetry factor of 1.0 is   
      used for the rotational entropy correction. 
 

Note: Rotational entropy computed according to Herzberg 
Infrared and Raman Spectra, Chapter V,1, Van Nostrand Reinhold, 1945 
Point Group:  C1, Symmetry Number:   1  
Rotational constants in cm-1:     0.034335     0.008388     0.008154 

Vibrational entropy computed according to the QRRHO of S. Grimme
Chem.Eur.J. 2012 18 9955 using a reference frequency of 100.0 cm-1


-------
ENTROPY
-------

The entropy contributions are T*S = T*(S(el)+S(vib)+S(rot)+S(trans))
     S(el)   - electronic entropy
     S(vib)  - vibrational entropy
     S(rot)  - rotational entropy
     S(trans)- translational entropy
The entropies will be listed as multiplied by the temperature to get
units of energy

Electronic entropy                ...      0.00000000 Eh      0.00 kcal/mol
Vibrational entropy               ...      0.02506619 Eh     15.73 kcal/mol
Rotational entropy                ...      0.01562993 Eh      9.81 kcal/mol
Translational entropy             ...      0.01999020 Eh     12.54 kcal/mol
-----------------------------------------------------------------------
Final entropy term                ...      0.06068632 Eh     38.08 kcal/mol

In case the symmetry of your molecule has not been determined correctly
or in case you have a reason to use a different symmetry number we print 
out the resulting rotational entropy values for sn=1,12:

 non-linear molecules -----------------------------------
|  sn= 1 | S(rot)=       0.01562993 Eh      9.81 kcal/mol|
|  sn= 2 | S(rot)=       0.01497548 Eh      9.40 kcal/mol|
|  sn= 3 | S(rot)=       0.01459264 Eh      9.16 kcal/mol|
|  sn= 4 | S(rot)=       0.01432102 Eh      8.99 kcal/mol|
|  sn= 5 | S(rot)=       0.01411033 Eh      8.85 kcal/mol|
|  sn= 6 | S(rot)=       0.01393819 Eh      8.75 kcal/mol|
|  sn= 7 | S(rot)=       0.01379264 Eh      8.65 kcal/mol|
|  sn= 8 | S(rot)=       0.01366656 Eh      8.58 kcal/mol|
|  sn= 9 | S(rot)=       0.01355536 Eh      8.51 kcal/mol|
|  sn=10 | S(rot)=       0.01345588 Eh      8.44 kcal/mol|
|  sn=11 | S(rot)=       0.01336589 Eh      8.39 kcal/mol|
|  sn=12 | S(rot)=       0.01328373 Eh      8.34 kcal/mol|
 linear molecules ---------------------------------------
|  Dinfh | S(rot)=       0.00986660 Eh      6.19 kcal/mol|
|  Cinfv | S(rot)=       0.01052105 Eh      6.60 kcal/mol|
 --------------------------------------------------------


-------------------
GIBBS FREE ENERGY
-------------------

The Gibbs free energy is G = H - T*S

Total enthalpy                    ...   -115.55717232 Eh 
Total entropy correction          ...     -0.06068632 Eh    -38.08 kcal/mol
-----------------------------------------------------------------------
Final Gibbs free energy         ...   -115.61785864 Eh

For completeness - the Gibbs free energy minus the electronic energy
G-E(el)                           ...      0.32593778 Eh    204.53 kcal/mol


Maximum memory used throughout the entire PROP-calculation: 254.2 MB

--------------------------------
SUGGESTED CITATIONS FOR THIS RUN
--------------------------------

Below you find a list of papers that are relevant to this ORCA run
We neither can nor want to force you to cite these papers, but we appreciate if you do
You receive ORCA, which is the product of decades of hard work by many enthusiastic individuals, for free
The only thing we kindly ask in return is that you cite our papers,
We deeply appreciate it, if you show your appreciation for ORCA by not just citing the generic ORCA reference.

Please note that relegating all ORCA citations to the supporting information does *not* help us.
SI sections are not indexed - citations you put there will not count into any citation statistics
But we need these citations in order to attract the funding resources that allow us to do what we are doing

Therefore, if you are a happy ORCA user, please consider citing a few of the papers listed below in the main body of your paper

In addition to the list printed below, the program has created the file ./output/bergamotol/bergamotol.bibtex that contains the list in bibtex format
You can import this file easily into all common literature databanks and citation aid programs


List of essential papers. We consider these as the minimum necessary citations

  1. Neese,F.
     Software update: the ORCA program system, version 5.0
     WIRES Comput. Molec. Sci., 2022 12(1)e1606
     doi.org/10.1002/wcms.1606
  2. Mueller,M.; Hansen,A.; Grimme,S.
     wB97X-3c: A composite range-separated hybrid DFT method with a molecule-optimized polarized valence double-zeta basis set
     J. Chem. Phys., 2023 158 014103
     doi.org/10.1063/5.0133026

List of papers to cite with high priority. The work reported in these papers was absolutely
necessary for this run to complete.
Our perspective: the developers of density functionals and basis sets usually get cited in chemistry papers
Good! But without the algorithms to do something with them, the functionals or basis sets would not do anything.
Hence, in our opinion, the algorithm design and method developments papers are equally worthy of getting cited

  1. Neese,F.
     An improvement of the resolution of the identity approximation for the formation of the Coulomb matrix
     J. Comp. Chem., 2003 24(14)1740-1747
     doi.org/10.1002/jcc.10318
  2. Neese,F.; Wennmohs,F.; Hansen,A.; Becker,U.
     Efficient, approximate and parallel Hartree-Fock and hybrid DFT calculations. A 'chain-of-spheres' algorithm for the Hartree-Fock exchange
     Chem. Phys., 2009 356(1-3)98-109
     doi.org/10.1016/j.chemphys.2008.10.036
  3. Bykov,D.; Petrenko,T.; Izsak,R.; Kossmann,S.; Becker,U.; Valeev,E.; Neese,F.
     Efficient implementation of the analytic second derivatives of Hartree-Fock and hybrid DFT energies: a detailed analysis of different approximations
     Molec. Phys., 2015 113 1961-1977
     doi.org/10.1080/00268976.2015.1025114
  4. Helmich-Paris,B.; de Souza,B.; Neese,F.; Izsák,R.
     An improved chain of spheres for exchange algorithm
     J. Chem. Phys., 2021 155 104109
     doi.org/doi: 10.1063/5.0058766.
  5. Neese,F.
     The SHARK Integral Generation and Digestion System
     J. Comp. Chem., 2022  1-16
     doi.org/10.1002/jcc.26942
  6. Caldeweyher,E.; Bannwarth,C.; Grimme,S.
     Extension of the D3 dispersion coefficient model
     J. Chem. Phys., 2017 147 034112
     doi.org/10.1063/1.4993215
  7. Caldeweyher,E.; Ehlert,S.; Hansen,A.; Neugebauer,H.; Spicher,S.; Bannwarth,C.; Grimme,S.
     A generally applicable atomic-charge dependent London dispersion correction
     J. Chem. Phys., 2019 150 154122
     doi.org/10.1063/1.5090222
  8. Caldeweyher,E.; Mewes,J.; Ehlert,S.; Grimme,S.
     Extension and evaluation of the D4 London-dispersion model for periodic systems
     Phys. Chem. Chem. Phys., 2020 22(16)8499-8512
     doi.org/10.1039/D0CP00502A
  9. Wittmann,L.; Gordiy,I.; Friede,M.; Helmich-Paris,B.; Grimme,S.; Hansen,A.; Bursch,M.
     Extension of the D3 and D4 London Dispersion Corrections to the full Actinides Series
     Phys. Chem. Chem. Phys., 2024 26(32)21379-21394
     doi.org/https://doi.org/10.1039/D4CP01514B 

List of suggested additional citations. These are papers that are important in the 'surrounding' of 
of this run, or papers that preceded the highly important papers. If you like your results we are grateful for a citation.

  1. Izsak,R.; Neese,F.
     An overlap fitted chain of spheres exchange method
     J. Chem. Phys., 2011 135 144105
     doi.org/10.1063/1.3646921
  2. Izsak,R.; Hansen,A.; Neese,F.
     The resolution of identity and chain of spheres approximations for the LPNO-CCSD singles Fock term
     Molec. Phys., 2012 110 2413-2417
     doi.org/10.1080/00268976.2012.687466
  3. Neese,F.
     The ORCA program system
     WIRES Comput. Molec. Sci., 2012 2(1)73-78
     doi.org/10.1002/wcms.81
  4. Izsak,R.; Neese,F.; Klopper,W.
     Robust fitting techniques in the chain of spheres approximation to the Fock exchange: The role of the complementary space
     J. Chem. Phys., 2013 139 
     doi.org/10.1063/1.4819264
  5. Neese,F.
     Software update: the ORCA program system, version 4.0
     WIRES Comput. Molec. Sci., 2018 8(1)1-6
     doi.org/10.1002/wcms.1327
  6. Neese,F.; Wennmohs,F.; Becker,U.; Riplinger,C.
     The ORCA quantum chemistry program package
     J. Chem. Phys., 2020 152 Art. No. L224108
     doi.org/10.1063/5.0004608

List of optional additional citations

  1. Neese,F.
     Approximate second-order SCF convergence for spin unrestricted wavefunctions
     Chem. Phys. Lett., 2000 325(1-3)93-98
     doi.org/10.1016/s0009-2614(00)00662-x

Timings for individual modules:

Sum of individual times          ...     3710.146 sec (=  61.836 min)
Startup calculation              ...      173.746 sec (=   2.896 min)   4.7 %
SCF iterations                   ...     2539.176 sec (=  42.320 min)  68.4 %
Property integrals               ...      167.376 sec (=   2.790 min)   4.5 %
SCF Response                     ...       92.201 sec (=   1.537 min)   2.5 %
Property calculations            ...      205.009 sec (=   3.417 min)   5.5 %
SCF Gradient evaluation          ...      531.439 sec (=   8.857 min)  14.3 %
Geometry relaxation              ...        1.200 sec (=   0.020 min)   0.0 %
                             ****ORCA TERMINATED NORMALLY****
TOTAL RUN TIME: 0 days 1 hours 2 minutes 6 seconds 311 msec
