
                                 *****************
                                 * O   R   C   A *
                                 *****************

                                            #,                                       
                                            ###                                      
                                            ####                                     
                                            #####                                    
                                            ######                                   
                                           ########,                                 
                                     ,,################,,,,,                         
                               ,,#################################,,                 
                          ,,##########################################,,             
                       ,#########################################, ''#####,          
                    ,#############################################,,   '####,        
                  ,##################################################,,,,####,       
                ,###########''''           ''''###############################       
              ,#####''   ,,,,##########,,,,          '''####'''          '####       
            ,##' ,,,,###########################,,,                        '##       
           ' ,,###''''                  '''############,,,                           
         ,,##''                                '''############,,,,        ,,,,,,###''
      ,#''                                            '''#######################'''  
     '                                                          ''''####''''         
             ,#######,   #######,   ,#######,      ##                                
            ,#'     '#,  ##    ##  ,#'     '#,    #''#        ,####,   ,####,        
            ##       ##  ##   ,#'  ##            #'  '#       #'       #'  '#        
            ##       ##  #######   ##           ,######,      #####,   #    #        
            '#,     ,#'  ##    ##  '#,     ,#' ,#      #,     #,   #   #,  ,#        
             '#######'   ##     ##  '#######'  #'      '#     '####' # '####'        



                #########################################################
                #                        -***-                          #
                #          Department of theory and spectroscopy        #
                #                                                       #
                #                      Frank Neese                      #
                #                                                       #
                #     Directorship, Architecture, Infrastructure        #
                #                    SHARK, DRIVERS                     #
                #        Core code/Algorithms in most modules           #
                #                                                       #
                #        Max Planck Institute fuer Kohlenforschung      #
                #                Kaiser Wilhelm Platz 1                 #
                #                 D-45470 Muelheim/Ruhr                 #
                #                      Germany                          #
                #                                                       #
                #                  All rights reserved                  #
                #                        -***-                          #
                #########################################################


                         Program Version 6.0.1  -  RELEASE   -


 With contributions from (in alphabetic order):
[Max-Planck-Institut fuer Kohlenforschung]                               
  Daniel Aravena         : Magnetic Suceptibility                        
  Michael Atanasov       : Ab Initio Ligand Field Theory (pilot matlab implementation)
  Alexander A. Auer      : GIAO ZORA, VPT2 properties, NMR spectrum      
  Ute Becker             : All parallelization in ORCA, NUMFREQ, NUMCALC 
  Giovanni Bistoni       : ED, misc. LED, open-shell LED, HFLD           
  Martin Brehm           : Molecular dynamics                            
  Dmytro Bykov           : pre 5.0 version of the SCF Hessian            
  Marcos Casanova-Páez   : Triplet and SCS-CIS(D). UHF-(DLPNO)-IP/EA/STEOM-CCSD. UHF-CVS-IP/STEOM-CCSD   
  Vijay G. Chilkuri      : MRCI spin determinant printing, contributions to CSF-ICE 
  Pauline Colinet        : FMM embedding                                 
  Dipayan Datta          : RHF DLPNO-CCSD density                        
  Achintya Kumar Dutta   : EOM-CC, STEOM-CC                              
  Nicolas Foglia         : Exact transition moments, OPA infrastructure, MCD improvements    
  Dmitry Ganyushin       : Spin-Orbit,Spin-Spin,Magnetic field MRCI      
  Miquel Garcia-Rates    : C-PCM and meta-GGA Hessian, CCSD/C-PCM, Gaussian charge scheme 
  Tiago L. C. Gouveia    : GS-ROHF, GS-ROCIS                             
  Yang Guo               : DLPNO-NEVPT2, F12-NEVPT2, CIM, IAO-localization        
  Andreas Hansen         : Spin unrestricted coupled pair/coupled cluster methods 
  Ingolf Harden          : AUTO-CI MPn and infrastructure                
  Benjamin Helmich-Paris : MC-RPA, TRAH-(SCF,CASSCF), AVAS, COSX integrals, SCF dyn. polar. 
  Lee Huntington         : MR-EOM, pCC                                   
  Robert Izsak           : Overlap fitted RIJCOSX, COSX-SCS-MP3, EOM     
  Riya Kayal             : Wick's Theorem for AUTO-CI, AUTO-CI UHF-CCSDT 
  Emily Kempfer          : AUTO-CI, RHF CISDT and CCSDT                  
  Christian Kollmar      : KDIIS, OOCD, Brueckner-CCSD(T), CCSD density, CASPT2, CASPT2-K, improved NEVPT2 
  Axel Koslowski         : Symmetry handling                             
  Simone Kossmann        : meta-GGA functionals, TD-DFT gradient, OOMP2, (MP2 Hessian; deprecated post 5.0) 
  Lucas Lang             : DCDCAS                                        
  Marvin Lechner         : AUTO-CI (C++ implementation), FIC-MRCC        
  Spencer Leger          : CASSCF response                               
  Dagmar Lenk            : GEPOL surface, SMD, ORCA-2-JSON               
  Dimitrios Liakos       : Extrapolation schemes; Compound Job, initial MDCI parallelization 
  Dimitrios Manganas     : Further ROCIS development; embedding schemes. LFT, Crystal Embedding 
  Dimitrios Pantazis     : SARC Basis sets                               
  Anastasios Papadopoulos: AUTO-CI, single reference methods and gradients 
  Taras Petrenko         : pre 6.0 DFT Hessian and TD-DFT gradient, (ASA, deprecated), ECA, 1-Electron XAS/XES, NRVS 
  Peter Pinski           : DLPNO-MP2, DLPNO-MP2 Gradient                 
  Christoph Reimann      : Effective Core Potentials                     
  Marius Retegan         : Local ZFS, SOC                                
  Christoph Riplinger    : Optimizer, TS searches, QM/MM, DLPNO-CCSD(T), (RO)-DLPNO pert. Triples 
  Michael Roemelt        : Original ROCIS implementation                 
  Masaaki Saitow         : Open-shell DLPNO-CCSD energy and density      
  Barbara Sandhoefer     : DKH picture change effects                    
  Kantharuban Sivalingam : CASSCF convergence/infrastructure, NEVPT2 and variants, FIC-MRCI 
  Bernardo de Souza      : ESD, SOC TD-DFT                               
  Georgi L. Stoychev     : AutoAux, RI-MP2 NMR, DLPNO-MP2 response, X2C  
  Van Anh Tran           : RI-MP2 g-tensors                              
  Willem Van den Heuvel  : Paramagnetic NMR                              
  Zikuan Wang            : NOTCH, Electric field optimization            
  Frank Wennmohs         : Technical directorship and infrastructure     
  Hang Xu                : AUTO-CI-Response properties                   
                                                                         
[FACCTs GmbH]                                                            
  Markus Bursch, Miquel Garcia-Rates, Christoph Riplinger, Bernardo de Souza, Georgi L. Stoychev 
                                                                 
  APM, Basis sets (HGBS, AHGBS, def-TZVP (Ac-Lr), def2-XVPD (La-Lu)), CI-OPT, improved COSX, DLPNO-Multilevel,           
  DOCKER, DRACO, updates on ESD, GOAT, IRC, LR-CPCM, MBIS, meta-GGA TD-DFT gradient, ML-optimized integration grids, 
  MM, NACMEs, nearIR, NEB, NEB-TS, NL-DFT gradient (VV10), 2- and 3-layer-ONIOM, interface openCOSMO-RS, QMMM,   
  Crystal-QMMM, SF, symmetry and pop. for TD-DFT, r2SCAN hybrids, SOLVATOR                                   
                                                                         
[Other institutions]                                                     
  V. Asgeirsson          : NEB                                           
  Christoph Bannwarth    : sTDA-DFT, sTD-DFT, PBEh-3c, B97-3c, D3        
  Sebastian Ehlert       : rSCAN, r2SCAN, r2SCAN-3c, D4, dhf basis sets  
  Marvin Friede          : D4 for Fr, Ra, Ac-Lr                          
  Lars Goerigk           : TD-DFT with DH, B97 family of functionals     
  Stefan Grimme          : VdW corrections, initial TS optimization, DFT functionals, gCP, sTDA/sTD-DF 
  Waldemar Hujo          : DFT-NL                                        
  H. Jonsson             : NEB                                           
  Holger Kruse           : gCP                                           
  Marcel Mueller         : wB97X-3c, vDZP basis set                      
  Hagen Neugebauer       : wr2SCAN                                       
  Tobias Risthaus        : range-separated hybrid DFT                    
  Lukas Wittmann         : regularized MP2, r2SCAN double-hybrids, wr2SCAN        
                                                                         
We gratefully acknowledge several colleagues who have allowed us to      
interface, adapt or use parts of their codes:                            
  Ed Valeev, F. Pavosevic, A. Kumar             : LibInt (2-el integral package), F12 methods 
  Garnet Chan, S. Sharma, J. Yang, R. Olivares  : DMRG                   
  Ulf Ekstrom                                   : XCFun DFT Library      
  Mihaly Kallay                                 : mrcc  (arbitrary order and MRCC methods)
  Frank Weinhold                                : gennbo (NPA and NBO analysis)           
  Simon Mueller                                 : openCOSMO-RS                            
  Christopher J. Cramer and Donald G. Truhlar   : smd solvation model                     
  S Lehtola, MJT Oliveira, MAL Marques          : LibXC Library                           
  Liviu Ungur et al                             : ANISO software                          


 Your calculation uses the libint2 library for the computation of 2-el integrals
 For citations please refer to: http://libint.valeyev.net

 Your ORCA version has been built with support for libXC version: 6.2.2
 For citations please refer to: https://libxc.gitlab.io

 This ORCA versions uses:
   CBLAS   interface :  Fast vector & matrix operations
   LAPACKE interface :  Fast linear algebra routines
   SCALAPACK package :  Parallel linear algebra routines
   Shared memory     :  Shared parallel matrices
   BLAS/LAPACK       :  OpenBLAS 0.3.27  USE64BITINT DYNAMIC_ARCH NO_AFFINITY SkylakeX SINGLE_THREADED
        Core in use  :  SkylakeX
   Copyright (c) 2011-2014, The OpenBLAS Project


Your calculation utilizes the atom-pairwise dispersion correction
based on EEQ partial charges (D4)


================================================================================

cite the ECPs for C  [vDZP-ECP], O  [vDZP-ECP] as follows:
   B-Ne (ecp-2-mwb), Al-Ar (ecp-10-mwb), Ga-Kr (ecp-28-mwb), Y-Cd (ecp-28-mwb), In-Xe (ecp-46-mwb):
     A. Bergner, M. Dolg, W. Küchle, H. Stoll, and H. Preuß, Mol. Phys. 80, 1431 (1993)., T. Leininger, A. Berning, A. Nicklass, H. Stoll, H.-J. Werner, and H.-J.Flad, Chem. Phys. 217, 19 (1997).
   Na-Mg, K-Ca, Rb-Sr, Cs-Ba (CRENBL):
     L. Fernandez Pacios and P. A. Christiansen, J. Chem. Phys. 82, 2664 (1985)., M. M. Hurley, L. F. Pacios, P. A. Christiansen, R. B. Ross, and W. C. Ermler, J. Chem. Phys. 84, 6840 (1986)., L. A. LaJohn, P. A. Christiansen, R. B. Ross, T. Atashroo, and W. C. Ermler, J. Chem. Phys. 87, 2812 (1987)., R. B. Ross, J. M. Powers, T. Atashroo, W. C. Ermler, L. A. LaJohn, and P. A. Christiansen, J. Chem. Phys. 93, 6654 (1990). 
   Sc-Zn (ecp-10-mdf):
     M. Dolg, U. Wedig, H. Stoll, and H. Preuss, J. Chem. Phys. 86, 866 (1986). 
   Y-Cd (ecp-28-mwb), Hf-Hg (ecp-60-mwb):
     D. Andrae, U. Häußermann, M. Dolg, H. Stoll, and H. Preuß, Theor. Chim. Acta 77, 123 (1990). 
   La (ecp-46-mwb):
     M. Dolg, H. Stoll, and H. Preuss, J. Chem. Phys. 90, 1730 (1989)., M. Dolg, H. Stoll, and H. Preuss, Theor. Chim. Acta 85, 441 (1993).
   Ce-Lu (SBKJC-ecp):
     T. R. Cundari and W. J. Stevens, J. Chem. Phys. 98, 5555 (1993).
   Tl-Rn (ecp-78-mwb):
     W. Küchle, M. Dolg, H. Stoll, and H. Preuss, Mol. Phys. 74, 1245 (1991).

ECP parameters for C  [vDZP-ECP], O  [vDZP-ECP] have been obtained from:
MM, AH, SG, J. Chem. Phys. 158, 014103 (2023), 10.1063/5.0133026

----- Orbital basis set information -----
Your calculation utilizes the basis: vDZP
   Marcel Mueller, Andreas Hansen, Stefan Grimme 
   J. Chem. Phys. 158, 014103 (2023). DOI: 10.1063/5.0133026

----- AuxJ basis set information -----
Your calculation utilizes the auxiliary basis: def2/J
   F. Weigend, Phys. Chem. Chem. Phys. 8, 1057 (2006).

================================================================================
                                        WARNINGS
                       Please study these warnings very carefully!
================================================================================

WARNING: Frozen-Core approximation turned on, but there are no core electrons.
  ===> : Turning off frozen-core approximation


WARNING: Geometry Optimization
  ===> : Switching off AutoStart
         For restart on a previous wavefunction, please use MOREAD

================================================================================
                                       INPUT FILE
================================================================================
NAME = ./output/caryophyllene_oxide/caryophyllene_oxide.inp
|  1> ! wB97X-3c OPT FREQ TightSCF
|  2> %pal
|  3>   nprocs 40
|  4> end
|  5> * xyz 0 1
|  6> C     -3.253883    -0.811201     0.372693
|  7> C     -2.386215    -0.009764    -0.619457
|  8> C     -2.117053     1.422735    -0.120786
|  9> C     -0.640910     1.065871     0.086928
| 10> C     -0.863261    -0.300413    -0.574573
| 11> C     -0.369668    -1.508040     0.255595
| 12> C      1.141845    -1.773313     0.052481
| 13> C      2.055479    -1.260048     1.195025
| 14> C      2.798695     0.045753     1.136005
| 15> O      1.566124    -0.092622     1.807711
| 16> C      2.697239     0.996541    -0.078875
| 17> C      1.715641     2.175120     0.108408
| 18> C      0.406704     1.920780    -0.607985
| 19> C      0.268954     2.324763    -1.884355
| 20> C      2.511005    -2.274738     2.244960
| 21> C     -2.974344    -0.057353    -2.040388
| 22> H     -2.861109    -0.736146     1.408766
| 23> H     -4.290976    -0.413219     0.373879
| 24> H     -3.290911    -1.880685     0.076648
| 25> H     -2.627572     1.671177     0.836380
| 26> H     -2.290698     2.205008    -0.890314
| 27> H     -0.458968     0.992866     1.179090
| 28> H     -0.444839    -0.344318    -1.606462
| 29> H     -0.610298    -1.398405     1.334694
| 30> H     -0.918823    -2.403494    -0.107704
| 31> H      1.277745    -2.875822     0.000435
| 32> H      1.485452    -1.426039    -0.939565
| 33> H      3.613540     0.225949     1.869315
| 34> H      3.712472     1.428592    -0.211482
| 35> H      2.504937     0.458827    -1.026849
| 36> H      1.532212     2.379256     1.185320
| 37> H      2.182631     3.102506    -0.292365
| 38> H     -0.617424     2.096850    -2.462489
| 39> H      1.058902     2.880234    -2.380722
| 40> H      3.040543    -1.785097     3.090570
| 41> H      1.628687    -2.814227     2.649163
| 42> H      3.197440    -3.008625     1.773807
| 43> H     -2.370511     0.542223    -2.752504
| 44> H     -4.009467     0.345522    -2.038445
| 45> H     -2.999316    -1.107003    -2.402554
| 46> *
| 47> 
| 48>                          ****END OF INPUT****
================================================================================

                       *****************************
                       * Geometry Optimization Run *
                       *****************************

Geometry optimization settings:
Update method            Update   .... BFGS
Choice of coordinates    CoordSys .... (2022) Redundant Internals
Initial Hessian          InHess   .... Almloef's Model
Max. no of cycles        MaxIter  .... 120

Convergence Tolerances:
Energy Change            TolE     ....  5.0000e-06 Eh
Max. Gradient            TolMAXG  ....  3.0000e-04 Eh/bohr
RMS Gradient             TolRMSG  ....  1.0000e-04 Eh/bohr
Max. Displacement        TolMAXD  ....  4.0000e-03 bohr
RMS Displacement         TolRMSD  ....  2.0000e-03 bohr
Strict Convergence                .... False

------------------------------------------------------------------------------
                        ORCA OPTIMIZATION COORDINATE SETUP
------------------------------------------------------------------------------

The optimization will be done in redundant internal coordinates (2022)
Making redundant internal coordinates   ...  (2022 redundants) done
Evaluating the initial hessian          ...  (Almloef) done
Evaluating the coordinates              ...  done
Calculating the B-matrix                .... done
Calculating the G-matrix                .... done
Diagonalizing the G-matrix              .... done
Small eigenvalue found = 1.549e-02
Small eigenvalue found = 2.685e-02
The first mode is                       ....  109
The number of degrees of freedom        ....  114

    -----------------------------------------------------------------
                    Redundant Internal Coordinates


    -----------------------------------------------------------------
         Definition                    Initial Value    Approx d2E/dq
    -----------------------------------------------------------------
      1. B(C   1,C   0)                  1.5426         0.356721   
      2. B(C   2,C   1)                  1.5405         0.359425   
      3. B(C   3,C   2)                  1.5328         0.369743   
      4. B(C   4,C   3)                  1.5342         0.367861   
      5. B(C   4,C   1)                  1.5511         0.345724   
      6. B(C   5,C   4)                  1.5463         0.351806   
      7. B(C   6,C   5)                  1.5480         0.349674   
      8. B(C   7,C   6)                  1.5503         0.346670   
      9. B(C   8,C   7)                  1.5037         0.411542   
     10. B(O   9,C   8)                  1.4105         0.518963   
     11. B(O   9,C   7)                  1.4063         0.527033   
     12. B(C  10,C   8)                  1.5460         0.352204   
     13. B(C  11,C  10)                  1.5452         0.353280   
     14. B(C  12,C  11)                  1.5137         0.396658   
     15. B(C  12,C   3)                  1.5203         0.387147   
     16. B(C  13,C  12)                  1.3458         0.734828   
     17. B(C  14,C   7)                  1.5295         0.374220   
     18. B(C  15,C   1)                  1.5386         0.361993   
     19. B(H  16,C   0)                  1.1106         0.333899   
     20. B(H  17,C   0)                  1.1108         0.333567   
     21. B(H  18,C   0)                  1.1103         0.334198   
     22. B(H  19,C   2)                  1.1129         0.331060   
     23. B(H  20,C   2)                  1.1110         0.333388   
     24. B(H  21,C   3)                  1.1096         0.335062   
     25. B(H  22,C   4)                  1.1144         0.329274   
     26. B(H  23,C   5)                  1.1110         0.333333   
     27. B(H  24,C   5)                  1.1115         0.332773   
     28. B(H  25,C   6)                  1.1121         0.332054   
     29. B(H  26,C   6)                  1.1058         0.339779   
     30. B(H  27,C   8)                  1.1109         0.333438   
     31. B(H  28,C  10)                  1.1113         0.333017   
     32. B(H  29,C  10)                  1.1067         0.338680   
     33. B(H  30,C  11)                  1.1113         0.332959   
     34. B(H  31,C  11)                  1.1130         0.330938   
     35. B(H  32,C  13)                  1.0825         0.370133   
     36. B(H  33,C  13)                  1.0858         0.365709   
     37. B(H  34,C  14)                  1.1114         0.332872   
     38. B(H  35,C  14)                  1.1104         0.334141   
     39. B(H  36,C  14)                  1.1099         0.334775   
     40. B(H  37,C  15)                  1.1096         0.335082   
     41. B(H  38,C  15)                  1.1108         0.333656   
     42. B(H  39,C  15)                  1.1107         0.333788   
     43. A(H  16,C   0,H  18)          109.0042         0.284093   
     44. A(C   1,C   0,H  18)          110.3471         0.317971   
     45. A(C   1,C   0,H  16)          111.4688         0.317925   
     46. A(C   1,C   0,H  17)          109.8580         0.317873   
     47. A(H  17,C   0,H  18)          108.3153         0.284050   
     48. A(H  16,C   0,H  17)          107.7572         0.284010   
     49. A(C   2,C   1,C  15)          113.2351         0.359033   
     50. A(C   2,C   1,C   4)           89.6176         0.356237   
     51. A(C   0,C   1,C  15)          111.2796         0.358571   
     52. A(C   0,C   1,C   4)          115.8689         0.355780   
     53. A(C   0,C   1,C   2)          111.9130         0.358137   
     54. A(C   4,C   1,C  15)          113.3440         0.356668   
     55. A(C   3,C   2,H  20)          114.0992         0.319710   
     56. A(H  19,C   2,H  20)          111.5213         0.283610   
     57. A(C   1,C   2,H  20)          113.7805         0.318237   
     58. A(C   1,C   2,C   3)           89.7500         0.360330   
     59. A(C   1,C   2,H  19)          113.9442         0.317874   
     60. A(C   3,C   2,H  19)          112.1603         0.319345   
     61. A(C  12,C   3,H  21)          111.9571         0.322389   
     62. A(C   2,C   3,H  21)          107.8548         0.319972   
     63. A(C   2,C   3,C   4)           90.5349         0.361759   
     64. A(C   4,C   3,C  12)          113.8018         0.364613   
     65. A(C   2,C   3,C  12)          118.0832         0.364932   
     66. A(C   4,C   3,H  21)          112.9271         0.319705   
     67. A(C   3,C   4,C   5)          114.6923         0.358706   
     68. A(C   5,C   4,H  22)          110.2736         0.316488   
     69. A(C   1,C   4,C   3)           89.3069         0.357644   
     70. A(C   3,C   4,H  22)          112.3293         0.318797   
     71. A(C   1,C   4,H  22)          110.4419         0.315592   
     72. A(C   1,C   4,C   5)          118.3778         0.354944   
     73. A(H  23,C   5,H  24)          106.8555         0.283830   
     74. A(C   6,C   5,H  24)          107.5467         0.316719   
     75. A(C   4,C   5,H  24)          107.2165         0.317033   
     76. A(C   6,C   5,H  23)          110.8443         0.316806   
     77. A(C   4,C   5,H  23)          112.0388         0.317120   
     78. A(C   4,C   5,C   6)          112.0283         0.355629   
     79. A(H  25,C   6,H  26)          103.3787         0.284581   
     80. A(C   7,C   6,H  26)          111.9661         0.317349   
     81. A(C   5,C   6,C   7)          114.9603         0.354742   
     82. A(C   5,C   6,H  25)          107.1789         0.316608   
     83. A(C   5,C   6,H  26)          111.5492         0.317796   
     84. A(C   7,C   6,H  25)          106.8994         0.316164   
     85. A(O   9,C   7,C  14)          110.8106         0.383250   
     86. A(C   8,C   7,C  14)          117.1195         0.369538   
     87. A(C   8,C   7,O   9)           57.8723         0.389650   
     88. A(C   6,C   7,C  14)          117.5008         0.358854   
     89. A(C   6,C   7,O   9)          113.0064         0.378201   
     90. A(C   6,C   7,C   8)          123.3572         0.364724   
     91. A(O   9,C   8,H  27)          110.0301         0.336069   
     92. A(C   7,C   8,H  27)          118.5214         0.325379   
     93. A(C   7,C   8,O   9)           57.6016         0.388602   
     94. A(O   9,C   8,C  10)          112.1601         0.378228   
     95. A(C   7,C   8,C  10)          122.1727         0.365714   
     96. A(C  10,C   8,H  27)          117.8446         0.317194   
     97. A(C   7,O   9,C   8)           64.5260         0.403247   
     98. A(C   8,C  10,H  29)          112.6874         0.318001   
     99. A(C  11,C  10,H  28)          107.3538         0.317287   
    100. A(C   8,C  10,H  28)          105.8377         0.317129   
    101. A(C   8,C  10,C  11)          114.5518         0.356317   
    102. A(H  28,C  10,H  29)          104.2073         0.284565   
    103. A(C  11,C  10,H  29)          111.3478         0.318159   
    104. A(C  10,C  11,C  12)          111.3341         0.363606   
    105. A(H  30,C  11,H  31)          105.3749         0.283537   
    106. A(C  12,C  11,H  31)          109.4154         0.323018   
    107. A(C  10,C  11,H  31)          108.9871         0.316963   
    108. A(C  12,C  11,H  30)          110.2891         0.323341   
    109. A(C  10,C  11,H  30)          111.2479         0.317278   
    110. A(C  11,C  12,C  13)          119.1383         0.413116   
    111. A(C   3,C  12,C  13)          122.1247         0.411341   
    112. A(C   3,C  12,C  11)          118.2967         0.369355   
    113. A(H  32,C  13,H  33)          117.3402         0.292810   
    114. A(C  12,C  13,H  33)          120.8402         0.364217   
    115. A(C  12,C  13,H  32)          121.8099         0.364967   
    116. A(H  35,C  14,H  36)          108.9489         0.284202   
    117. A(H  34,C  14,H  36)          108.6405         0.284034   
    118. A(C   7,C  14,H  36)          109.3577         0.320557   
    119. A(H  34,C  14,H  35)          108.4023         0.283950   
    120. A(C   7,C  14,H  35)          109.6061         0.320458   
    121. A(C   7,C  14,H  34)          111.8335         0.320258   
    122. A(H  38,C  15,H  39)          108.8080         0.284007   
    123. A(H  37,C  15,H  39)          108.2785         0.284195   
    124. A(C   1,C  15,H  39)          109.8146         0.318669   
    125. A(H  37,C  15,H  38)          108.1960         0.284178   
    126. A(C   1,C  15,H  38)          110.0837         0.318649   
    127. A(C   1,C  15,H  37)          111.5906         0.318870   
    128. D(C   2,C   1,C   0,H  17)     70.0905         0.010222   
    129. D(C   4,C   1,C   0,H  18)    -69.7688         0.010222   
    130. D(C   2,C   1,C   0,H  16)    -49.2817         0.010222   
    131. D(C   4,C   1,C   0,H  17)    170.8718         0.010222   
    132. D(C   2,C   1,C   0,H  18)   -170.5502         0.010222   
    133. D(C   4,C   1,C   0,H  16)     51.4996         0.010222   
    134. D(C   3,C   2,C   1,C   0)    111.1805         0.010367   
    135. D(H  19,C   2,C   1,C   0)     -3.0736         0.010367   
    136. D(H  19,C   2,C   1,C  15)    123.6826         0.010367   
    137. D(H  19,C   2,C   1,C   4)   -120.9533         0.010367   
    138. D(C   3,C   2,C   1,C  15)   -122.0634         0.010367   
    139. D(C   3,C   2,C   1,C   4)     -6.6992         0.010367   
    140. D(C   4,C   3,C   2,C   1)      6.7735         0.010930   
    141. D(C   4,C   3,C   2,H  20)   -109.3168         0.010930   
    142. D(C   4,C   3,C   2,H  19)    122.6507         0.010930   
    143. D(C  12,C   3,C   2,H  19)   -119.8052         0.010930   
    144. D(C  12,C   3,C   2,C   1)    124.3175         0.010930   
    145. D(C  12,C   3,C   2,H  20)      8.2272         0.010930   
    146. D(C   5,C   4,C   3,H  21)    -18.2122         0.010825   
    147. D(C   5,C   4,C   3,C  12)    110.8597         0.010825   
    148. D(C   5,C   4,C   3,C   2)   -127.8983         0.010825   
    149. D(C   1,C   4,C   3,C  12)   -127.9696         0.010825   
    150. D(C   1,C   4,C   3,C   2)     -6.7275         0.010825   
    151. D(C   5,C   4,C   1,C  15)   -120.1175         0.009649   
    152. D(C   1,C   4,C   3,H  21)    102.9586         0.010825   
    153. D(C   5,C   4,C   1,C   2)    124.6175         0.009649   
    154. D(C   5,C   4,C   1,C   0)     10.3165         0.009649   
    155. D(C   3,C   4,C   1,C   2)      6.6936         0.009649   
    156. D(C   3,C   4,C   1,C   0)   -107.6075         0.009649   
    157. D(C   3,C   4,C   1,C  15)    121.9586         0.009649   
    158. D(C   6,C   5,C   4,C   1)    172.5786         0.009964   
    159. D(H  23,C   5,C   4,H  22)    169.3665         0.009964   
    160. D(H  23,C   5,C   4,C   1)    -62.1186         0.009964   
    161. D(H  23,C   5,C   4,C   3)     41.3694         0.009964   
    162. D(C   6,C   5,C   4,H  22)     44.0636         0.009964   
    163. D(C   6,C   5,C   4,C   3)    -83.9334         0.009964   
    164. D(H  25,C   6,C   5,H  24)    -22.3215         0.009853   
    165. D(H  25,C   6,C   5,H  23)     94.1528         0.009853   
    166. D(H  25,C   6,C   5,C   4)   -139.8898         0.009853   
    167. D(C   7,C   6,C   5,H  24)   -140.9749         0.009853   
    168. D(C   7,C   6,C   5,H  23)    -24.5006         0.009853   
    169. D(C   7,C   6,C   5,C   4)    101.4568         0.009853   
    170. D(O   9,C   7,C   6,H  26)     96.1922         0.009698   
    171. D(O   9,C   7,C   6,H  25)   -151.2698         0.009698   
    172. D(O   9,C   7,C   6,C   5)    -32.4601         0.009698   
    173. D(C   8,C   7,C   6,H  25)    143.0730         0.009698   
    174. D(C   8,C   7,C   6,C   5)    -98.1173         0.009698   
    175. D(C   8,C   7,C   6,H  26)     30.5350         0.009698   
    176. D(H  27,C   8,C   7,C   6)   -165.2930         0.013414   
    177. D(C  10,C   8,C   7,C  14)    164.0015         0.013414   
    178. D(C  10,C   8,C   7,O   9)    -97.3876         0.013414   
    179. D(C  10,C   8,C   7,C   6)      0.6101         0.013414   
    180. D(O   9,C   8,C   7,C  14)    -98.6109         0.013414   
    181. D(O   9,C   8,C   7,C   6)     97.9977         0.013414   
    182. D(C   7,O   9,C   8,H  27)   -111.7511         0.021349   
    183. D(C   7,O   9,C   8,C  10)    114.9914         0.021349   
    184. D(C   8,O   9,C   7,C  14)    109.7044         0.022047   
    185. D(C   8,O   9,C   7,C   6)   -116.0242         0.022047   
    186. D(H  28,C  10,C   8,O   9)    152.5045         0.009984   
    187. D(H  28,C  10,C   8,C   7)   -142.7907         0.009984   
    188. D(C  11,C  10,C   8,H  27)    -94.8605         0.009984   
    189. D(C  11,C  10,C   8,O   9)     34.4409         0.009984   
    190. D(C  11,C  10,C   8,C   7)     99.1457         0.009984   
    191. D(H  28,C  10,C   8,H  27)     23.2031         0.009984   
    192. D(H  30,C  11,C  10,H  29)    150.9268         0.010041   
    193. D(H  30,C  11,C  10,H  28)    -95.6066         0.010041   
    194. D(H  30,C  11,C  10,C   8)     21.5939         0.010041   
    195. D(C  12,C  11,C  10,H  29)     27.4715         0.010041   
    196. D(C  12,C  11,C  10,H  28)    140.9381         0.010041   
    197. D(C  12,C  11,C  10,C   8)   -101.8615         0.010041   
    198. D(C  13,C  12,C  11,H  30)    145.8677         0.011686   
    199. D(C   3,C  12,C  11,H  31)   -157.0509         0.011686   
    200. D(C   3,C  12,C  11,H  30)    -41.5822         0.011686   
    201. D(C   3,C  12,C  11,C  10)     82.4178         0.011686   
    202. D(C  13,C  12,C   3,C   4)     61.3903         0.011160   
    203. D(C  13,C  12,C   3,C   2)    -42.9049         0.011160   
    204. D(C  11,C  12,C   3,H  21)     18.6362         0.011160   
    205. D(C  13,C  12,C  11,C  10)    -90.1324         0.011686   
    206. D(C  11,C  12,C   3,C   4)   -110.9248         0.011160   
    207. D(C  11,C  12,C   3,C   2)    144.7799         0.011160   
    208. D(H  33,C  13,C  12,C  11)     -3.7426         0.038359   
    209. D(H  33,C  13,C  12,C   3)   -175.9952         0.038359   
    210. D(H  32,C  13,C  12,C  11)    175.0946         0.038359   
    211. D(H  32,C  13,C  12,C   3)      2.8419         0.038359   
    212. D(H  35,C  14,C   7,O   9)     80.1274         0.011180   
    213. D(H  35,C  14,C   7,C   8)    143.7334         0.011180   
    214. D(H  35,C  14,C   7,C   6)    -51.8808         0.011180   
    215. D(H  34,C  14,C   7,O   9)    -40.1195         0.011180   
    216. D(H  34,C  14,C   7,C   8)     23.4865         0.011180   
    217. D(H  34,C  14,C   7,C   6)   -172.1277         0.011180   
    218. D(H  38,C  15,C   1,C   4)   -169.1313         0.010505   
    219. D(H  38,C  15,C   1,C   2)    -68.9143         0.010505   
    220. D(H  38,C  15,C   1,C   0)     58.1754         0.010505   
    221. D(H  37,C  15,C   1,C   4)    -48.9813         0.010505   
    222. D(H  37,C  15,C   1,C   2)     51.2357         0.010505   
    223. D(H  37,C  15,C   1,C   0)    178.3255         0.010505   
    -----------------------------------------------------------------

Number of atoms                         .... 40
Number of degrees of freedom            .... 223


         *************************************************************
         *                GEOMETRY OPTIMIZATION CYCLE   1            *
         *************************************************************
---------------------------------
CARTESIAN COORDINATES (ANGSTROEM)
---------------------------------
  C     -3.253883   -0.811201    0.372693
  C     -2.386215   -0.009764   -0.619457
  C     -2.117053    1.422735   -0.120786
  C     -0.640910    1.065871    0.086928
  C     -0.863261   -0.300413   -0.574573
  C     -0.369668   -1.508040    0.255595
  C      1.141845   -1.773313    0.052481
  C      2.055479   -1.260048    1.195025
  C      2.798695    0.045753    1.136005
  O      1.566124   -0.092622    1.807711
  C      2.697239    0.996541   -0.078875
  C      1.715641    2.175120    0.108408
  C      0.406704    1.920780   -0.607985
  C      0.268954    2.324763   -1.884355
  C      2.511005   -2.274738    2.244960
  C     -2.974344   -0.057353   -2.040388
  H     -2.861109   -0.736146    1.408766
  H     -4.290976   -0.413219    0.373879
  H     -3.290911   -1.880685    0.076648
  H     -2.627572    1.671177    0.836380
  H     -2.290698    2.205008   -0.890314
  H     -0.458968    0.992866    1.179090
  H     -0.444839   -0.344318   -1.606462
  H     -0.610298   -1.398405    1.334694
  H     -0.918823   -2.403494   -0.107704
  H      1.277745   -2.875822    0.000435
  H      1.485452   -1.426039   -0.939565
  H      3.613540    0.225949    1.869315
  H      3.712472    1.428592   -0.211482
  H      2.504937    0.458827   -1.026849
  H      1.532212    2.379256    1.185320
  H      2.182631    3.102506   -0.292365
  H     -0.617424    2.096850   -2.462489
  H      1.058902    2.880234   -2.380722
  H      3.040543   -1.785097    3.090570
  H      1.628687   -2.814227    2.649163
  H      3.197440   -3.008625    1.773807
  H     -2.370511    0.542223   -2.752504
  H     -4.009467    0.345522   -2.038445
  H     -2.999316   -1.107003   -2.402554

----------------------------
CARTESIAN COORDINATES (A.U.)
----------------------------
  NO LB      ZA    FRAG     MASS         X           Y           Z
   0 C     4.0000*   0    12.011   -6.148948   -1.532948    0.704288
   1 C     4.0000*   0    12.011   -4.509293   -0.018451   -1.170604
   2 C     4.0000*   0    12.011   -4.000650    2.688580   -0.228252
   3 C     4.0000*   0    12.011   -1.211144    2.014204    0.164270
   4 C     4.0000*   0    12.011   -1.631327   -0.567698   -1.085786
   5 C     4.0000*   0    12.011   -0.698571   -2.849783    0.483005
   6 C     4.0000*   0    12.011    2.157774   -3.351076    0.099175
   7 C     4.0000*   0    12.011    3.884292   -2.381146    2.258270
   8 C     4.0000*   0    12.011    5.288767    0.086461    2.146738
   9 O     6.0000*   0    15.999    2.959545   -0.175030    3.416079
  10 C     4.0000*   0    12.011    5.097043    1.883190   -0.149052
  11 C     4.0000*   0    12.011    3.242092    4.110381    0.204861
  12 C     4.0000*   0    12.011    0.768559    3.629748   -1.148925
  13 C     4.0000*   0    12.011    0.508249    4.393165   -3.560915
  14 C     4.0000*   0    12.011    4.745112   -4.298632    4.242360
  15 C     4.0000*   0    12.011   -5.620696   -0.108381   -3.855775
  16 H     1.0000    0     1.008   -5.406712   -1.391114    2.662182
  17 H     1.0000    0     1.008   -8.108769   -0.780871    0.706529
  18 H     1.0000    0     1.008   -6.218921   -3.553980    0.144844
  19 H     1.0000    0     1.008   -4.965391    3.158067    1.580529
  20 H     1.0000    0     1.008   -4.328792    4.166861   -1.682450
  21 H     1.0000    0     1.008   -0.867324    1.876245    2.228157
  22 H     1.0000    0     1.008   -0.840624   -0.650667   -3.035773
  23 H     1.0000    0     1.008   -1.153296   -2.642602    2.522206
  24 H     1.0000    0     1.008   -1.736324   -4.541945   -0.203531
  25 H     1.0000    0     1.008    2.414588   -5.434516    0.000822
  26 H     1.0000    0     1.008    2.807097   -2.694823   -1.775521
  27 H     1.0000    0     1.008    6.828601    0.426982    3.532493
  28 H     1.0000    0     1.008    7.015555    2.699648   -0.399643
  29 H     1.0000    0     1.008    4.733645    0.867057   -1.940463
  30 H     1.0000    0     1.008    2.895461    4.496142    2.239930
  31 H     1.0000    0     1.008    4.124575    5.862887   -0.552490
  32 H     1.0000    0     1.008   -1.166762    3.962472   -4.653430
  33 H     1.0000    0     1.008    2.001035    5.442853   -4.498913
  34 H     1.0000    0     1.008    5.745794   -3.373344    5.840331
  35 H     1.0000    0     1.008    3.077772   -5.318118    5.006193
  36 H     1.0000    0     1.008    6.042286   -5.685477    3.352009
  37 H     1.0000    0     1.008   -4.479617    1.024653   -5.201479
  38 H     1.0000    0     1.008   -7.576795    0.652942   -3.852103
  39 H     1.0000    0     1.008   -5.667886   -2.091932   -4.540169
* core charge reduced due to ECP

--------------------------------
INTERNAL COORDINATES (ANGSTROEM)
--------------------------------
 C      0   0   0     0.000000000000     0.00000000     0.00000000
 C      1   0   0     1.542566253259     0.00000000     0.00000000
 C      2   1   0     1.540511062435   111.91295716     0.00000000
 C      3   2   1     1.532806307640    89.74995951   111.18048193
 C      4   3   2     1.534195394615    90.53487042     6.77348459
 C      5   4   3     1.546342759223   114.69226748   232.10171484
 C      6   5   4     1.547997613271   112.02828252   276.06655796
 C      7   6   5     1.550346683203   114.96028650   101.45677283
 C      8   7   6     1.503652098943   123.35719268   261.88267826
 O      8   7   6     1.406319990648   113.00638382   327.53989824
 C      9   8   7     1.546035108036   122.17266914     0.61008354
 C     11   9   8     1.545204845622   114.55176878    99.14571159
 C     12  11   9     1.513678907833   111.33412230   258.13853158
 C     13  12  11     1.345844606070   119.13826320   269.86762822
 C      8   7   6     1.529530397541   117.50083159    98.55011307
 C      2   1   3     1.538572500834   111.27963719   232.19256263
 H      1   2   3     1.110563788996   111.46875183   310.71829651
 H      1   2   3     1.110834357395   109.85801298    70.09048839
 H      1   2   3     1.110319657155   110.34708463   189.44980699
 H      3   2   1     1.112888057390   113.94424430   356.92642649
 H      3   2   1     1.110980186744   113.78049065   227.55795612
 H      4   3   2     1.109617256370   107.85475537   252.42426414
 H      5   4   3     1.114360591294   112.32933272   105.15030536
 H      6   5   4     1.111025329111   112.03878451    41.36939818
 H      6   5   4     1.111483352796   107.21649327   158.30109764
 H      7   6   5     1.112071801278   107.17892018   220.11016739
 H      7   6   5     1.105812039924   111.54921104   332.59722006
 H      9   8   7     1.110939480143   118.52140122   194.70700668
 H     11   9   8     1.111283369505   105.83774368   217.20926922
 H     11   9   8     1.106693774120   112.68738456   330.48178225
 H     12  11   9     1.111331255873   111.24785815    21.59386935
 H     12  11   9     1.112988522234   108.98705782   137.35553604
 H     14  13  12     1.082519845734   121.80993744   175.09457858
 H     14  13  12     1.085792831637   120.84021841   356.25744504
 H     15   8   7     1.111402300891   111.83351285   187.87233904
 H     15   8   7     1.110366380729   109.60614725   308.11921534
 H     15   8   7     1.109850569853   109.35765811    67.49326410
 H     16   2   1     1.109601220764   111.59060936   178.32546079
 H     16   2   1     1.110761750333   110.08366610    58.17543941
 H     16   2   1     1.110654282322   109.81456129   298.39939814

---------------------------
INTERNAL COORDINATES (A.U.)
---------------------------
 C      0   0   0     0.000000000000     0.00000000     0.00000000
 C      1   0   0     2.915027762088     0.00000000     0.00000000
 C      2   1   0     2.911144014279   111.91295716     0.00000000
 C      3   2   1     2.896584137787    89.74995951   111.18048193
 C      4   3   2     2.899209131746    90.53487042     6.77348459
 C      5   4   3     2.922164324104   114.69226748   232.10171484
 C      6   5   4     2.925291545047   112.02828252   276.06655796
 C      7   6   5     2.929730643886   114.96028650   101.45677283
 C      8   7   6     2.841490667699   123.35719268   261.88267826
 O      8   7   6     2.657559638984   113.00638382   327.53989824
 C      9   8   7     2.921582947615   122.17266914     0.61008354
 C     11   9   8     2.920013979034   114.55176878    99.14571159
 C     12  11   9     2.860438590497   111.33412230   258.13853158
 C     13  12  11     2.543277724288   119.13826320   269.86762822
 C      8   7   6     2.890393564860   117.50083159    98.55011307
 C      2   1   3     2.907480663759   111.27963719   232.19256263
 H      1   2   3     2.098661415453   111.46875183   310.71829651
 H      1   2   3     2.099172715627   109.85801298    70.09048839
 H      1   2   3     2.098200073132   110.34708463   189.44980699
 H      3   2   1     2.103053646178   113.94424430   356.92642649
 H      3   2   1     2.099448293159   113.78049065   227.55795612
 H      4   3   2     2.096872728011   107.85475537   252.42426414
 H      5   4   3     2.105836331981   112.32933272   105.15030536
 H      6   5   4     2.099533599869   112.03878451    41.36939818
 H      6   5   4     2.100399139196   107.21649327   158.30109764
 H      7   6   5     2.101511145671   107.17892018   220.11016739
 H      7   6   5     2.089681911049   111.54921104   332.59722006
 H      9   8   7     2.099371368832   118.52140122   194.70700668
 H     11   9   8     2.100021225546   105.83774368   217.20926922
 H     11   9   8     2.091348147203   112.68738456   330.48178225
 H     12  11   9     2.100111717667   111.24785815    21.59386935
 H     12  11   9     2.103243497220   108.98705782   137.35553604
 H     14  13  12     2.045666042973   121.80993744   175.09457858
 H     14  13  12     2.051851089969   120.84021841   356.25744504
 H     15   8   7     2.100245973293   111.83351285   187.87233904
 H     15   8   7     2.098288367892   109.60614725   308.11921534
 H     15   8   7     2.097313626599   109.35765811    67.49326410
 H     16   2   1     2.096842425109   111.59060936   178.32546079
 H     16   2   1     2.099035508165   110.08366610    58.17543941
 H     16   2   1     2.098832423055   109.81456129   298.39939814

---------------------
BASIS SET INFORMATION
---------------------
There are 3 groups of distinct atoms

 Group   1 Type C   : 6s6p2d contracted to 2s2p1d pattern {42/42/2}
 Group   2 Type O   : 6s6p2d contracted to 2s2p1d pattern {42/42/2}
 Group   3 Type H   : 8s2p contracted to 2s1p pattern {53/2}

Atom   0C    basis set group =>   1
Atom   1C    basis set group =>   1
Atom   2C    basis set group =>   1
Atom   3C    basis set group =>   1
Atom   4C    basis set group =>   1
Atom   5C    basis set group =>   1
Atom   6C    basis set group =>   1
Atom   7C    basis set group =>   1
Atom   8C    basis set group =>   1
Atom   9O    basis set group =>   2
Atom  10C    basis set group =>   1
Atom  11C    basis set group =>   1
Atom  12C    basis set group =>   1
Atom  13C    basis set group =>   1
Atom  14C    basis set group =>   1
Atom  15C    basis set group =>   1
Atom  16H    basis set group =>   3
Atom  17H    basis set group =>   3
Atom  18H    basis set group =>   3
Atom  19H    basis set group =>   3
Atom  20H    basis set group =>   3
Atom  21H    basis set group =>   3
Atom  22H    basis set group =>   3
Atom  23H    basis set group =>   3
Atom  24H    basis set group =>   3
Atom  25H    basis set group =>   3
Atom  26H    basis set group =>   3
Atom  27H    basis set group =>   3
Atom  28H    basis set group =>   3
Atom  29H    basis set group =>   3
Atom  30H    basis set group =>   3
Atom  31H    basis set group =>   3
Atom  32H    basis set group =>   3
Atom  33H    basis set group =>   3
Atom  34H    basis set group =>   3
Atom  35H    basis set group =>   3
Atom  36H    basis set group =>   3
Atom  37H    basis set group =>   3
Atom  38H    basis set group =>   3
Atom  39H    basis set group =>   3
---------------------------------
AUXILIARY/J BASIS SET INFORMATION
---------------------------------
There are 3 groups of distinct atoms

 Group   1 Type C   : 12s5p4d2f1g contracted to 6s4p3d1f1g pattern {711111/2111/211/2/1}
 Group   2 Type O   : 12s5p4d2f1g contracted to 6s4p3d1f1g pattern {711111/2111/211/2/1}
 Group   3 Type H   : 5s2p1d contracted to 3s1p1d pattern {311/2/1}

Atom   0C    basis set group =>   1
Atom   1C    basis set group =>   1
Atom   2C    basis set group =>   1
Atom   3C    basis set group =>   1
Atom   4C    basis set group =>   1
Atom   5C    basis set group =>   1
Atom   6C    basis set group =>   1
Atom   7C    basis set group =>   1
Atom   8C    basis set group =>   1
Atom   9O    basis set group =>   2
Atom  10C    basis set group =>   1
Atom  11C    basis set group =>   1
Atom  12C    basis set group =>   1
Atom  13C    basis set group =>   1
Atom  14C    basis set group =>   1
Atom  15C    basis set group =>   1
Atom  16H    basis set group =>   3
Atom  17H    basis set group =>   3
Atom  18H    basis set group =>   3
Atom  19H    basis set group =>   3
Atom  20H    basis set group =>   3
Atom  21H    basis set group =>   3
Atom  22H    basis set group =>   3
Atom  23H    basis set group =>   3
Atom  24H    basis set group =>   3
Atom  25H    basis set group =>   3
Atom  26H    basis set group =>   3
Atom  27H    basis set group =>   3
Atom  28H    basis set group =>   3
Atom  29H    basis set group =>   3
Atom  30H    basis set group =>   3
Atom  31H    basis set group =>   3
Atom  32H    basis set group =>   3
Atom  33H    basis set group =>   3
Atom  34H    basis set group =>   3
Atom  35H    basis set group =>   3
Atom  36H    basis set group =>   3
Atom  37H    basis set group =>   3
Atom  38H    basis set group =>   3
Atom  39H    basis set group =>   3
-------------------------
ECP PARAMETER INFORMATION
-------------------------

 Group 1, Type C  ECP vDZP-ECP (replacing 2 core electrons, lmax=3)
 Group 2, Type O  ECP vDZP-ECP (replacing 2 core electrons, lmax=3)

Atom   0C    ECP group =>   1
Atom   1C    ECP group =>   1
Atom   2C    ECP group =>   1
Atom   3C    ECP group =>   1
Atom   4C    ECP group =>   1
Atom   5C    ECP group =>   1
Atom   6C    ECP group =>   1
Atom   7C    ECP group =>   1
Atom   8C    ECP group =>   1
Atom   9O    ECP group =>   2
Atom  10C    ECP group =>   1
Atom  11C    ECP group =>   1
Atom  12C    ECP group =>   1
Atom  13C    ECP group =>   1
Atom  14C    ECP group =>   1
Atom  15C    ECP group =>   1



           ************************************************************
           *        Program running with 40 parallel MPI-processes    *
           *              working on a common directory               *
           ************************************************************
------------------------------------------------------------------------------
                             ORCA STARTUP CALCULATIONS
                           -- RI-GTO INTEGRALS CHOSEN --
------------------------------------------------------------------------------
------------------------------------------------------------------------------
                   ___                                                        
                  /   \      - P O W E R E D   B Y -                         
                 /     \                                                     
                 |  |  |   _    _      __       _____    __    __             
                 |  |  |  | |  | |    /  \     |  _  \  |  |  /  |          
                  \  \/   | |  | |   /    \    | | | |  |  | /  /          
                 / \  \   | |__| |  /  /\  \   | |_| |  |  |/  /          
                |  |  |   |  __  | /  /__\  \  |    /   |      \           
                |  |  |   | |  | | |   __   |  |    \   |  |\   \          
                \     /   | |  | | |  |  |  |  | |\  \  |  | \   \       
                 \___/    |_|  |_| |__|  |__|  |_| \__\ |__|  \__/        
                                                                              
                      - O R C A' S   B I G   F R I E N D -                    
                                      &                                       
                       - I N T E G R A L  F E E D E R -                       
                                                                              
 v1 FN, 2020, v2 2021, v3 2022-2024                                           
------------------------------------------------------------------------------


----------------------
SHARK INTEGRAL PACKAGE
----------------------

Number of atoms                             ...     40
Number of basis functions                   ...    328
Number of shells                            ...    152
Maximum angular momentum                    ...      2
Integral batch strategy                     ... SHARK/LIBINT Hybrid
RI-J (if used) integral strategy            ... SPLIT-RIJ (Revised 2003 algorithm where possible)
Printlevel                                  ...      1
Contraction scheme used                     ... SEGMENTED contraction
Prescreening option                         ... SCHWARTZ
   Thresh                                   ... 2.500e-11
   Tcut                                     ... 2.500e-12
   Tpresel                                  ... 2.500e-12 
Coulomb Range Separation                    ... NOT USED
Exchange Range Separation                   ... Long Range
   Mu parameter                             ... 3.000e-01
   Scaling (regular/separated)              ... 1.670e-01 8.330e-01
Multipole approximations                    ... NOT USED
Finite Nucleus Model                        ... NOT USED
CABS basis                                  ... NOT available
Auxiliary Coulomb fitting basis             ... AVAILABLE
   # of basis functions in Aux-J            ...   1048
   # of shells in Aux-J                     ...    360
   Maximum angular momentum in Aux-J        ...      4
Auxiliary J/K fitting basis                 ... NOT available
Auxiliary Correlation fitting basis         ... NOT available
Auxiliary 'external' fitting basis          ... NOT available

Checking pre-screening integrals            ... done (  0.0 sec) Dimension = 152
Check shell pair data                       ... done (  0.0 sec)
Shell pair information
Shell pair cut-off parameter TPreSel        ...   2.5e-12
Total number of shell pairs                 ...     11628
Shell pairs after pre-screening             ...     11538
Total number of primitive shell pairs       ...    108456
Primitive shell pairs kept                  ...     82531
          la=0 lb=0:   3227 shell pairs
          la=1 lb=0:   4443 shell pairs
          la=1 lb=1:   1559 shell pairs
          la=2 lb=0:   1279 shell pairs
          la=2 lb=1:    894 shell pairs
          la=2 lb=2:    136 shell pairs

Calculating one electron integrals          ... done (  0.0 sec)
Calculating ECP integrals                   ... done (  0.2 sec)
Calculating RI/J V-Matrix + Cholesky decomp.... done (  0.1 sec)
Calculating Nuclear repulsion               ... done (  0.0 sec) ENN=    651.752497919291 Eh

Diagonalization of the overlap matrix:
Smallest eigenvalue                        ... 9.288e-04
Time for diagonalization                   ...    0.015 sec
Threshold for overlap eigenvalues          ... 1.000e-07
Number of eigenvalues below threshold      ... 0
Time for construction of square roots      ...    0.008 sec
Total time needed                          ...    0.026 sec

-------------------
DFT GRID GENERATION
-------------------

General Integration Accuracy     IntAcc      ... 4.388
Radial Grid Type                 RadialGrid  ... OptM3 with GC (2021)
Angular Grid (max. ang.)         AngularGrid ... 4 (Lebedev-302)
Angular grid pruning method      GridPruning ... 4 (adaptive)
Weight generation scheme         WeightScheme... mBecke (2022)
Basis function cutoff            BFCut       ... 1.0000e-11
Integration weight cutoff        WCut        ... 1.0000e-14
Partially contracted basis set               ... off
Rotationally invariant grid construction     ... off
Angular grids for H and He will be reduced by one unit

Total number of grid points                  ...   170657
Total number of batches                      ...     2688
Average number of points per batch           ...       63
Average number of grid points per atom       ...     4266

--------------------
COSX GRID GENERATION
--------------------

GRIDX 1
-------
General Integration Accuracy     IntAcc      ... 3.816
Radial Grid Type                 RadialGrid  ... OptM3 with GC (2021)
Angular Grid (max. ang.)         AngularGrid ... 1 (Lebedev-50)
Angular grid pruning method      GridPruning ... 4 (adaptive)
Weight generation scheme         WeightScheme... mBecke (2022)
Basis function cutoff            BFCut       ... 1.0000e-11
Integration weight cutoff        WCut        ... 1.0000e-14
Partially contracted basis set               ... on
Rotationally invariant grid construction     ... off
Angular grids for H and He will be reduced by one unit

Total number of grid points                  ...    21772
Total number of batches                      ...      194
Average number of points per batch           ...      112
Average number of grid points per atom       ...      544
UseSFitting                                  ... on

GRIDX 2
-------
General Integration Accuracy     IntAcc      ... 4.020
Radial Grid Type                 RadialGrid  ... OptM3 with GC (2021)
Angular Grid (max. ang.)         AngularGrid ... 2 (Lebedev-110)
Angular grid pruning method      GridPruning ... 4 (adaptive)
Weight generation scheme         WeightScheme... mBecke (2022)
Basis function cutoff            BFCut       ... 1.0000e-11
Integration weight cutoff        WCut        ... 1.0000e-14
Partially contracted basis set               ... on
Rotationally invariant grid construction     ... off
Angular grids for H and He will be reduced by one unit

Total number of grid points                  ...    45169
Total number of batches                      ...      373
Average number of points per batch           ...      121
Average number of grid points per atom       ...     1129
UseSFitting                                  ... on

GRIDX 3
-------
General Integration Accuracy     IntAcc      ... 4.338
Radial Grid Type                 RadialGrid  ... OptM3 with GC (2021)
Angular Grid (max. ang.)         AngularGrid ... 3 (Lebedev-194)
Angular grid pruning method      GridPruning ... 4 (adaptive)
Weight generation scheme         WeightScheme... mBecke (2022)
Basis function cutoff            BFCut       ... 1.0000e-11
Integration weight cutoff        WCut        ... 1.0000e-14
Partially contracted basis set               ... on
Rotationally invariant grid construction     ... off
Angular grids for H and He will be reduced by one unit

Total number of grid points                  ...    97955
Total number of batches                      ...      785
Average number of points per batch           ...      124
Average number of grid points per atom       ...     2449
UseSFitting                                  ... on
Initializing property integral containers    ... done (  0.0 sec)

SHARK setup successfully completed in   5.5 seconds

Maximum memory used throughout the entire STARTUP-calculation: 56.7 MB


           ************************************************************
           *        Program running with 40 parallel MPI-processes    *
           *              working on a common directory               *
           ************************************************************
-------------------------------------------------------------------------------
                                 ORCA GUESS
                   Start orbitals & Density for SCF / CASSCF
-------------------------------------------------------------------------------

------------
SCF SETTINGS
------------
Hamiltonian:
 Density Functional     Method          .... DFT(GTOs)
 Exchange Functional    Exchange        .... WB97X-V
 Correlation Functional Correlation     .... WB97X-V
 Gradients option       PostSCFGGA      .... off
 Hybrid DFT is turned on
   Fraction HF Exchange ScalHFX         ....  0.167000
   Scaling of DF-GGA-X  ScalDFX         ....  0.000000
   Scaling of DF-GGA-C  ScalDFC         ....  1.000000
   Scaling of DF-LDA-C  ScalLDAC        ....  1.000000
   Perturbative correction              ....  0.000000
 Long-range corrected/Screened/Range-Separated Hybrid DFT is turned on
   Amount of maximum screened exact exchange              ....  0.833000
   Range separation parameter mu (erf(mu*r12)/r12)        ....  0.300000
   NL short-range parameter             ....  6.000000
   NL long-range parameter              ....  0.010000
 RI-approximation to the Coulomb term is turned on
   Number of AuxJ basis functions       .... 1048
   RIJ-COSX (HFX calculated with COS-X)).... on


General Settings:
 Integral files         IntName         .... ./output/caryophyllene_oxide/caryophyllene_oxide
 Hartree-Fock type      HFTyp           .... RHF
 Total Charge           Charge          ....    0
 Multiplicity           Mult            ....    1
 Number of Electrons    NEL             ....   90
 Basis Dimension        Dim             ....  328
 Nuclear Repulsion      ENuc            ....    651.7524979193 Eh

Convergence Acceleration:
 AO-DIIS                CNVDIIS         .... on
   Start iteration      DIISMaxIt       ....    12
   Startup error        DIISStart       ....  0.200000
   # of expansion vecs  DIISMaxEq       ....     5
   Bias factor          DIISBfac        ....   1.050
   Max. coefficient     DIISMaxC        ....  10.000
 MO-DIIS                CNVKDIIS        .... off
 Trust-Rad. Augm. Hess. CNVTRAH         .... auto
   Auto Start mean grad. ratio tolernc. ....  1.125000
   Auto Start start iteration           ....    50
   Auto Start num. interpolation iter.  ....    10
   Max. Number of Micro iterations      ....    24
   Max. Number of Macro iterations      .... Maxiter - #DIIS iter
   Number of Davidson start vectors     ....     2
   Converg. threshold    (grad. norm)   ....   1.000e-05
   Grad. Scal. Fac. for Micro threshold ....   0.100
   Minimum threshold for Micro iter.    ....   1.000e-02
   NR start threshold (gradient norm)   ....   1.000e-04
   Initial trust radius                 ....   0.400
   Minimum AH scaling param. (alpha)    ....   1.000
   Maximum AH scaling param. (alpha)    .... 1000.000
   Quad. conv. algorithm                .... NR
   White noise on init. David. guess    .... on
   Maximum white noise                  ....   0.010
   Pseudo random numbers                .... off
   Inactive MOs                         .... canonical
   Orbital update algorithm             .... Taylor
   Preconditioner                       .... Diag
   Full preconditioner red. dimension   ....   250
 SOSCF                  CNVSOSCF        .... on
   Start iteration      SOSCFMaxIt      ....   150
   Startup grad/error   SOSCFStart      ....  0.003300
   Hessian update       SOSCFHessUp     .... L-BFGS
 Level Shifting         CNVShift        .... on
   Level shift para.    LevelShift      ....    0.2500
   Turn off err/grad.   ShiftErr        ....    0.0010
 Zerner damping         CNVZerner       .... off
 Static damping         CNVDamp         .... on
   Fraction old density DampFac         ....    0.7000
   Max. Damping (<1)    DampMax         ....    0.9800
   Min. Damping (>=0)   DampMin         ....    0.0000
   Turn off err/grad.   DampErr         ....    0.1000

SCF Procedure:
 Maximum # iterations   MaxIter         ....   125
 SCF integral mode      SCFMode         .... Direct
   Integral package                     .... SHARK and LIBINT hybrid scheme
 Reset frequency        DirectResetFreq ....    20
 Integral Threshold     Thresh          ....  2.500e-11 Eh
 Primitive CutOff       TCut            ....  2.500e-12 Eh

Convergence Tolerance:
 Convergence Check Mode ConvCheckMode   .... Total+1el-Energy
 Convergence forced     ConvForced      .... 0
 Energy Change          TolE            ....  1.000e-08 Eh
 1-El. energy change                    ....  1.000e-05 Eh
 Orbital Gradient       TolG            ....  1.000e-05
 Orbital Rotation angle TolX            ....  1.000e-05
 DIIS Error             TolErr          ....  5.000e-07

------------------------------
INITIAL GUESS: MODEL POTENTIAL
------------------------------
Loading Hartree-Fock densities                     ... done
Atomic calculation to generate a density for atom 0 (C  with ECP)
  Multiplicity assumed   :    1
  Atomic configuration   : 1s2 2s2 2p2 
  Number of open shells  : 1
  Command: /home/aspe232/Project/Software/ORCA/6_0_1/build/orca ./output/caryophyllene_oxide/caryophyllene_oxide_atom6.inp "" > ./output/caryophyllene_oxide/caryophyllene_oxide_atom6.out
Returned from the atomic calculation with res=0
Atomic calculation to generate a density for atom 9 (O  with ECP)
  Multiplicity assumed   :    3
  Atomic configuration   : 1s2 2s2 2p4 
  Number of open shells  : 1
  Command: /home/aspe232/Project/Software/ORCA/6_0_1/build/orca ./output/caryophyllene_oxide/caryophyllene_oxide_atom8.inp "" > ./output/caryophyllene_oxide/caryophyllene_oxide_atom8.out
Returned from the atomic calculation with res=0
Calculating cut-offs                               ... done
Initializing the effective Hamiltonian             ... done
Setting up the integral package (SHARK)            ... done
Starting the Coulomb interaction                   ... done (   0.1 sec)
Making the grid                                    ... done (   1.1 sec)
Mapping shells                                     ... done
Starting the XC term evaluation                    ... done (   0.1 sec)
  promolecular density results
     # of electrons  =    121.980555124
     EX              =    -61.119033561
     EC              =     -4.934049289
     EX+EC           =    -66.053082850
Transforming the Hamiltonian                       ... done (   0.0 sec)
Diagonalizing the Hamiltonian                      ... done (   0.0 sec)
Back transforming the eigenvectors                 ... done (   0.0 sec)
Now organizing SCF variables                       ... done
                      ------------------
                      INITIAL GUESS DONE (   2.3 sec)
                      ------------------
             **** ENERGY FILE WAS UPDATED (./output/caryophyllene_oxide/caryophyllene_oxide.en.tmp) ****
Finished Guess after   3.4 sec
Maximum memory used throughout the entire GUESS-calculation: 37.2 MB


           ************************************************************
           *        Program running with 40 parallel MPI-processes    *
           *              working on a common directory               *
           ************************************************************

-------------------------------------------------------------------------------------------
                                      ORCA LEAN-SCF
                              memory conserving SCF solver
-------------------------------------------------------------------------------------------

----------------------------------------D-I-I-S--------------------------------------------
Iteration    Energy (Eh)           Delta-E    RMSDP     MaxDP     DIISErr   Damp  Time(sec)
-------------------------------------------------------------------------------------------
               ***  Starting incremental Fock matrix formation  ***
    1    -115.2089028688122880     0.00e+00  3.30e-03  7.63e-02  1.84e-01  0.700  10.0
    2    -115.4747809695269325    -2.66e-01  2.40e-03  5.60e-02  1.11e-01  0.700   6.7
                               ***Turning on AO-DIIS***
    3    -115.6120263539394273    -1.37e-01  1.27e-03  3.07e-02  5.77e-02  0.700   6.2
    4    -115.6929236757638364    -8.09e-02  2.76e-03  6.22e-02  3.65e-02  0.000   6.1
    5    -115.8631185980747205    -1.70e-01  2.18e-04  6.68e-03  6.19e-03  0.000   6.3
                              *** Initializing SOSCF ***
---------------------------------------S-O-S-C-F--------------------------------------
Iteration    Energy (Eh)           Delta-E    RMSDP     MaxDP     MaxGrad    Time(sec)
--------------------------------------------------------------------------------------
    6    -115.8636112530624587    -4.93e-04  1.04e-04  3.18e-03  2.06e-03     6.2
               *** Restarting incremental Fock matrix formation ***
    7    -115.8636181357609303    -6.88e-06  6.03e-05  2.16e-03  2.21e-04     8.6
    8    -115.8636294023784785    -1.13e-05  3.32e-05  1.19e-03  3.14e-04     7.6
    9    -115.8636346716594971    -5.27e-06  9.50e-06  1.69e-04  3.89e-05     7.5
   10    -115.8636348873232009    -2.16e-07  2.34e-06  6.13e-05  8.99e-06     7.8
   11    -115.8636349088125144    -2.15e-08  9.91e-07  2.51e-05  1.65e-05     6.6
   12    -115.8636349370250400    -2.82e-08  2.59e-07  8.31e-06  1.27e-06     5.9
                  *** Gradient check signals convergence ***

               *****************************************************
               *                     SUCCESS                       *
               *           SCF CONVERGED AFTER  12 CYCLES          *
               *****************************************************

Recomputing exchange energy using gridx3       ... done (   10.611 sec)
Old exchange energy                            :    -17.222476244 Eh
New exchange energy                            :    -17.222498450 Eh
Exchange energy change after final integration :     -0.000022206 Eh
Total energy after final integration           :   -115.863657143 Eh
             **** ENERGY FILE WAS UPDATED (./output/caryophyllene_oxide/caryophyllene_oxide.en.tmp) ****

----------------
TOTAL SCF ENERGY
----------------

Total Energy       :       -115.86365714286484 Eh           -3152.81040 eV

Components:
Nuclear Repulsion  :        651.75249791929150 Eh           17735.08710 eV
Electronic Energy  :       -767.61613285631654 Eh          -20887.89690 eV
One Electron Energy:      -1468.61821977215050 Eh          -39963.13345 eV
Two Electron Energy:        701.00208691583396 Eh           19075.23655 eV

Virial components:
Potential Energy   :       -206.30006835119167 Eh           -5613.71026 eV
Kinetic Energy     :         90.43641120832685 Eh            2460.89986 eV
Virial Ratio       :          2.28116159846242

DFT components:
N(Alpha)           :       45.000006225859 electrons
N(Beta)            :       45.000006225859 electrons
N(Total)           :       90.000012451718 electrons
E(X)               :      -18.028870821425 Eh       
E(C)               :       -3.401029995792 Eh       
E(XC)              :      -21.429900817217 Eh       

---------------
SCF CONVERGENCE
---------------

  Last Energy change         ...    2.8213e-08  Tolerance :   1.0000e-08
  Last MAX-Density change    ...    8.3117e-06  Tolerance :   1.0000e-07
  Last RMS-Density change    ...    2.5904e-07  Tolerance :   5.0000e-09
  Last DIIS Error            ...    2.0577e-03  Tolerance :   5.0000e-07
  Last Orbital Gradient      ...    1.2683e-06  Tolerance :   1.0000e-05
  Last Orbital Rotation      ...    4.1825e-06  Tolerance :   1.0000e-05


----------------
ORBITAL ENERGIES
----------------

  NO   OCC          E(Eh)            E(eV) 
   0   2.0000      -1.213265       -33.0146 
   1   2.0000      -1.004984       -27.3470 
   2   2.0000      -0.943063       -25.6620 
   3   2.0000      -0.918238       -24.9865 
   4   2.0000      -0.885992       -24.1091 
   5   2.0000      -0.870248       -23.6807 
   6   2.0000      -0.849921       -23.1275 
   7   2.0000      -0.813365       -22.1328 
   8   2.0000      -0.801526       -21.8106 
   9   2.0000      -0.790875       -21.5208 
  10   2.0000      -0.745828       -20.2950 
  11   2.0000      -0.727623       -19.7996 
  12   2.0000      -0.714148       -19.4330 
  13   2.0000      -0.680174       -18.5085 
  14   2.0000      -0.639065       -17.3899 
  15   2.0000      -0.632255       -17.2045 
  16   2.0000      -0.612601       -16.6697 
  17   2.0000      -0.597025       -16.2459 
  18   2.0000      -0.577962       -15.7272 
  19   2.0000      -0.572731       -15.5848 
  20   2.0000      -0.563724       -15.3397 
  21   2.0000      -0.548047       -14.9131 
  22   2.0000      -0.536513       -14.5993 
  23   2.0000      -0.532963       -14.5026 
  24   2.0000      -0.530470       -14.4348 
  25   2.0000      -0.518065       -14.0973 
  26   2.0000      -0.507542       -13.8109 
  27   2.0000      -0.504057       -13.7161 
  28   2.0000      -0.490981       -13.3603 
  29   2.0000      -0.484627       -13.1874 
  30   2.0000      -0.478643       -13.0245 
  31   2.0000      -0.474867       -12.9218 
  32   2.0000      -0.466898       -12.7050 
  33   2.0000      -0.464302       -12.6343 
  34   2.0000      -0.456207       -12.4140 
  35   2.0000      -0.452545       -12.3144 
  36   2.0000      -0.445057       -12.1106 
  37   2.0000      -0.432361       -11.7651 
  38   2.0000      -0.426897       -11.6165 
  39   2.0000      -0.402477       -10.9520 
  40   2.0000      -0.383581       -10.4378 
  41   2.0000      -0.377766       -10.2795 
  42   2.0000      -0.371322       -10.1042 
  43   2.0000      -0.365440        -9.9441 
  44   2.0000      -0.331780        -9.0282 
  45   0.0000       0.081967         2.2304 
  46   0.0000       0.088317         2.4032 
  47   0.0000       0.095272         2.5925 
  48   0.0000       0.098320         2.6754 
  49   0.0000       0.101789         2.7698 
  50   0.0000       0.113601         3.0912 
  51   0.0000       0.118474         3.2239 
  52   0.0000       0.125143         3.4053 
  53   0.0000       0.126422         3.4401 
  54   0.0000       0.132722         3.6115 
  55   0.0000       0.142687         3.8827 
*Only the first 10 virtual orbitals were printed.

                    ********************************
                    * MULLIKEN POPULATION ANALYSIS *
                    ********************************

-----------------------
MULLIKEN ATOMIC CHARGES
-----------------------
   0 C :   -0.045039
   1 C :   -0.168138
   2 C :    0.000509
   3 C :   -0.045670
   4 C :   -0.018501
   5 C :   -0.038445
   6 C :   -0.039669
   7 C :    0.033357
   8 C :    0.096165
   9 O :   -0.338584
  10 C :   -0.064700
  11 C :   -0.049243
  12 C :   -0.072115
  13 C :   -0.023919
  14 C :   -0.058114
  15 C :   -0.039933
  16 H :    0.030478
  17 H :    0.036780
  18 H :    0.029402
  19 H :    0.034283
  20 H :    0.034004
  21 H :    0.057993
  22 H :    0.028816
  23 H :    0.044997
  24 H :    0.038347
  25 H :    0.035626
  26 H :    0.034473
  27 H :    0.036269
  28 H :    0.045559
  29 H :    0.040727
  30 H :    0.052383
  31 H :    0.038410
  32 H :    0.003398
  33 H :    0.023413
  34 H :    0.044328
  35 H :    0.041174
  36 H :    0.045573
  37 H :    0.024257
  38 H :    0.037217
  39 H :    0.034133
Sum of atomic charges:    0.0000000

--------------------------------
MULLIKEN REDUCED ORBITAL CHARGES
--------------------------------
  0 C s       :     0.951903  s :     0.951903
      pz      :     0.993824  p :     3.018847
      px      :     1.014514
      py      :     1.010509
      dz2     :     0.023201  d :     0.074289
      dxz     :     0.011002
      dyz     :     0.008411
      dx2y2   :     0.021960
      dxy     :     0.009716

  1 C s       :     1.096288  s :     1.096288
      pz      :     0.990938  p :     2.926703
      px      :     0.952370
      py      :     0.983394
      dz2     :     0.030002  d :     0.145147
      dxz     :     0.028671
      dyz     :     0.026124
      dx2y2   :     0.033978
      dxy     :     0.026372

  2 C s       :     1.002804  s :     1.002804
      pz      :     1.016624  p :     2.903548
      px      :     0.933790
      py      :     0.953134
      dz2     :     0.013269  d :     0.093140
      dxz     :     0.017562
      dyz     :     0.020970
      dx2y2   :     0.022610
      dxy     :     0.018730

  3 C s       :     1.021464  s :     1.021464
      pz      :     1.052463  p :     2.906002
      px      :     0.919281
      py      :     0.934258
      dz2     :     0.027272  d :     0.118204
      dxz     :     0.018796
      dyz     :     0.016614
      dx2y2   :     0.027766
      dxy     :     0.027757

  4 C s       :     1.054375  s :     1.054375
      pz      :     1.009048  p :     2.845110
      px      :     0.941935
      py      :     0.894127
      dz2     :     0.025292  d :     0.119016
      dxz     :     0.018295
      dyz     :     0.020189
      dx2y2   :     0.030627
      dxy     :     0.024613

  5 C s       :     1.002175  s :     1.002175
      pz      :     1.030173  p :     2.940208
      px      :     0.926848
      py      :     0.983186
      dz2     :     0.024548  d :     0.096062
      dxz     :     0.014610
      dyz     :     0.012556
      dx2y2   :     0.020951
      dxy     :     0.023398

  6 C s       :     0.993022  s :     0.993022
      pz      :     0.993334  p :     2.954978
      px      :     0.920668
      py      :     1.040976
      dz2     :     0.021478  d :     0.091670
      dxz     :     0.023099
      dyz     :     0.008103
      dx2y2   :     0.023822
      dxy     :     0.015168

  7 C s       :     1.141520  s :     1.141520
      pz      :     0.924475  p :     2.640483
      px      :     0.925045
      py      :     0.790963
      dz2     :     0.033636  d :     0.184640
      dxz     :     0.026649
      dyz     :     0.048871
      dx2y2   :     0.029729
      dxy     :     0.045755

  8 C s       :     1.116744  s :     1.116744
      pz      :     0.909283  p :     2.630996
      px      :     0.789901
      py      :     0.931811
      dz2     :     0.029325  d :     0.156095
      dxz     :     0.042657
      dyz     :     0.023979
      dx2y2   :     0.036289
      dxy     :     0.023846

  9 O s       :     1.803662  s :     1.803662
      pz      :     1.696752  p :     4.488511
      px      :     1.424781
      py      :     1.366979
      dz2     :     0.005728  d :     0.046411
      dxz     :     0.009841
      dyz     :     0.008216
      dx2y2   :     0.012671
      dxy     :     0.009956

 10 C s       :     1.004285  s :     1.004285
      pz      :     0.993768  p :     2.967929
      px      :     1.021406
      py      :     0.952754
      dz2     :     0.020796  d :     0.092486
      dxz     :     0.009029
      dyz     :     0.024990
      dx2y2   :     0.020352
      dxy     :     0.017320

 11 C s       :     0.995061  s :     0.995061
      pz      :     1.048799  p :     2.956524
      px      :     0.927096
      py      :     0.980628
      dz2     :     0.023567  d :     0.097659
      dxz     :     0.015542
      dyz     :     0.013380
      dx2y2   :     0.020869
      dxy     :     0.024301

 12 C s       :     1.083218  s :     1.083218
      pz      :     1.011939  p :     2.868698
      px      :     0.919836
      py      :     0.936923
      dz2     :     0.029714  d :     0.120199
      dxz     :     0.032952
      dyz     :     0.022579
      dx2y2   :     0.017655
      dxy     :     0.017299

 13 C s       :     0.966513  s :     0.966513
      pz      :     0.981435  p :     2.993541
      px      :     0.986304
      py      :     1.025802
      dz2     :     0.012240  d :     0.063865
      dxz     :     0.026294
      dyz     :     0.013824
      dx2y2   :     0.005203
      dxy     :     0.006305

 14 C s       :     0.958910  s :     0.958910
      pz      :     0.991146  p :     3.028862
      px      :     1.032414
      py      :     1.005302
      dz2     :     0.009001  d :     0.070341
      dxz     :     0.016989
      dyz     :     0.019045
      dx2y2   :     0.004858
      dxy     :     0.020448

 15 C s       :     0.951521  s :     0.951521
      pz      :     0.960350  p :     3.014077
      px      :     1.021739
      py      :     1.031989
      dz2     :     0.016525  d :     0.074335
      dxz     :     0.014455
      dyz     :     0.017970
      dx2y2   :     0.016261
      dxy     :     0.009126

 16 H s       :     0.925696  s :     0.925696
      pz      :     0.022137  p :     0.043826
      px      :     0.011731
      py      :     0.009957

 17 H s       :     0.920168  s :     0.920168
      pz      :     0.009902  p :     0.043053
      px      :     0.021908
      py      :     0.011243

 18 H s       :     0.927187  s :     0.927187
      pz      :     0.010527  p :     0.043411
      px      :     0.010131
      py      :     0.022753

 19 H s       :     0.922084  s :     0.922084
      pz      :     0.020039  p :     0.043633
      px      :     0.013313
      py      :     0.010281

 20 H s       :     0.921239  s :     0.921239
      pz      :     0.016634  p :     0.044757
      px      :     0.010687
      py      :     0.017437

 21 H s       :     0.898747  s :     0.898747
      pz      :     0.024123  p :     0.043259
      px      :     0.010125
      py      :     0.009012

 22 H s       :     0.929435  s :     0.929435
      pz      :     0.021506  p :     0.041749
      px      :     0.011372
      py      :     0.008872

 23 H s       :     0.912382  s :     0.912382
      pz      :     0.023268  p :     0.042620
      px      :     0.009669
      py      :     0.009683

 24 H s       :     0.919623  s :     0.919623
      pz      :     0.010936  p :     0.042030
      px      :     0.012734
      py      :     0.018360

 25 H s       :     0.921241  s :     0.921241
      pz      :     0.009842  p :     0.043133
      px      :     0.010455
      py      :     0.022836

 26 H s       :     0.920441  s :     0.920441
      pz      :     0.021141  p :     0.045086
      px      :     0.011372
[...]
 86:   1518.64   0.002234   11.29  0.000459  (-0.001229  0.021351  0.001291)
 87:   1521.47   0.000348    1.76  0.000071  ( 0.005060  0.006462  0.002025)
 88:   1521.77   0.002469   12.48  0.000506  ( 0.013401  0.005787 -0.017125)
 89:   1527.85   0.001590    8.04  0.000325  (-0.007437  0.015990 -0.003713)
 90:   1528.92   0.002346   11.86  0.000479  ( 0.006375  0.016010 -0.013487)
 91:   1536.15   0.001424    7.19  0.000289  (-0.016746  0.001136  0.002732)
 92:   1538.11   0.000812    4.11  0.000165  (-0.007841  0.009976 -0.001951)
 93:   1538.99   0.003632   18.35  0.000736  ( 0.016945 -0.010765 -0.018260)
 94:   1562.63   0.001952    9.86  0.000390  ( 0.017592 -0.007339 -0.005145)
 95:   1759.03   0.005242   26.49  0.000930  (-0.003131 -0.015584  0.026025)
 96:   3083.87   0.004853   24.52  0.000491  (-0.015918 -0.006564 -0.013949)
 97:   3086.80   0.006749   34.11  0.000682  (-0.006713 -0.000712  0.025233)
 98:   3091.47   0.003760   19.00  0.000380  (-0.016087 -0.009664  0.005234)
 99:   3099.99   0.007359   37.19  0.000741  ( 0.016984  0.021141 -0.002317)
100:   3104.88   0.003748   18.94  0.000377  (-0.002588  0.016121 -0.010495)
101:   3109.76   0.002954   14.93  0.000296  ( 0.013779 -0.005167 -0.008938)
102:   3116.70   0.005547   28.03  0.000555  (-0.012655 -0.019281 -0.004848)
103:   3120.32   0.012011   60.70  0.001201  ( 0.021773 -0.026714 -0.003673)
104:   3121.18   0.001062    5.37  0.000106  ( 0.000816 -0.002679 -0.009915)
105:   3155.14   0.001908    9.64  0.000189  (-0.008907  0.010166 -0.002447)
106:   3159.89   0.003190   16.12  0.000315  (-0.001371  0.006340  0.016523)
107:   3169.98   0.005129   25.92  0.000505  ( 0.015489  0.013214  0.009507)
108:   3170.71   0.001230    6.22  0.000121  (-0.005018  0.009399  0.002745)
109:   3172.03   0.002136   10.79  0.000210  (-0.005704 -0.009586  0.009257)
110:   3172.39   0.006820   34.47  0.000671  (-0.018216  0.005600 -0.017543)
111:   3175.21   0.006718   33.95  0.000660  (-0.017889  0.018434 -0.000693)
112:   3176.76   0.001883    9.51  0.000185  (-0.004442 -0.012168  0.004141)
113:   3179.66   0.002831   14.31  0.000278  ( 0.010835  0.005937 -0.011189)
114:   3187.72   0.004123   20.83  0.000404  (-0.018113 -0.008389  0.002267)
115:   3193.09   0.005119   25.87  0.000500  (-0.001591  0.006568  0.021321)
116:   3194.17   0.002396   12.11  0.000234  ( 0.014812  0.000145 -0.003833)
117:   3203.25   0.002043   10.32  0.000199  (-0.001653 -0.005492  0.012889)
118:   3215.08   0.001953    9.87  0.000190  (-0.003189 -0.007134 -0.011337)
119:   3292.79   0.001760    8.89  0.000167  ( 0.011257  0.005941  0.002188)

* The epsilon (eps) is given for a Dirac delta lineshape.
** The dipole moment derivative (T) already includes vibrational overlap.

The first frequency considered to be a vibration is 6
The total number of vibrations considered is 114


--------------------------
THERMOCHEMISTRY AT 298.15K
--------------------------

Temperature         ...   298.15 K
Pressure            ...     1.00 atm
Total Mass          ...   220.36 AMU
Quasi RRHO          ...     True
Cut-Off Frequency   ...     1.00 cm^-1

Throughout the following assumptions are being made:
  (1) The electronic state is orbitally nondegenerate
  (2) There are no thermally accessible electronically excited states
  (3) Hindered rotations indicated by low frequency modes are not
      treated as such but are treated as vibrations and this may
      cause some error
  (4) All equations used are the standard statistical mechanics
      equations for an ideal gas
  (5) All vibrations are strictly harmonic

freq.      59.74  E(vib)   ...       0.51 
freq.      81.84  E(vib)   ...       0.48 
freq.      89.43  E(vib)   ...       0.47 
freq.     143.90  E(vib)   ...       0.41 
freq.     157.17  E(vib)   ...       0.40 
freq.     180.16  E(vib)   ...       0.37 
freq.     204.76  E(vib)   ...       0.35 
freq.     223.86  E(vib)   ...       0.33 
freq.     231.25  E(vib)   ...       0.32 
freq.     243.20  E(vib)   ...       0.31 
freq.     280.64  E(vib)   ...       0.28 
freq.     285.49  E(vib)   ...       0.28 
freq.     290.55  E(vib)   ...       0.27 
freq.     298.09  E(vib)   ...       0.27 
freq.     301.75  E(vib)   ...       0.26 
freq.     340.38  E(vib)   ...       0.23 
freq.     362.95  E(vib)   ...       0.22 
freq.     394.88  E(vib)   ...       0.20 
freq.     412.25  E(vib)   ...       0.19 
freq.     458.63  E(vib)   ...       0.16 
freq.     479.80  E(vib)   ...       0.15 
freq.     488.26  E(vib)   ...       0.15 
freq.     524.53  E(vib)   ...       0.13 
freq.     584.82  E(vib)   ...       0.11 
freq.     594.76  E(vib)   ...       0.10 
freq.     602.64  E(vib)   ...       0.10 
freq.     663.38  E(vib)   ...       0.08 
freq.     724.79  E(vib)   ...       0.06 
freq.     737.48  E(vib)   ...       0.06 
freq.     773.88  E(vib)   ...       0.05 
freq.     809.04  E(vib)   ...       0.05 
freq.     820.35  E(vib)   ...       0.05 
freq.     879.38  E(vib)   ...       0.04 
freq.     918.61  E(vib)   ...       0.03 
freq.     923.94  E(vib)   ...       0.03 
freq.     933.73  E(vib)   ...       0.03 
freq.     939.04  E(vib)   ...       0.03 
freq.     945.56  E(vib)   ...       0.03 
freq.     973.84  E(vib)   ...       0.03 
freq.     978.41  E(vib)   ...       0.03 
freq.     981.24  E(vib)   ...       0.02 
freq.    1003.87  E(vib)   ...       0.02 
freq.    1032.95  E(vib)   ...       0.02 
freq.    1037.20  E(vib)   ...       0.02 
freq.    1041.59  E(vib)   ...       0.02 
freq.    1060.73  E(vib)   ...       0.02 
freq.    1069.16  E(vib)   ...       0.02 
freq.    1084.77  E(vib)   ...       0.02 
freq.    1086.18  E(vib)   ...       0.02 
freq.    1119.15  E(vib)   ...       0.01 
freq.    1133.39  E(vib)   ...       0.01 
freq.    1145.68  E(vib)   ...       0.01 
freq.    1168.34  E(vib)   ...       0.01 
freq.    1180.17  E(vib)   ...       0.01 
freq.    1206.39  E(vib)   ...       0.01 
freq.    1230.22  E(vib)   ...       0.01 
freq.    1243.07  E(vib)   ...       0.01 
freq.    1255.92  E(vib)   ...       0.01 
freq.    1262.39  E(vib)   ...       0.01 
freq.    1270.54  E(vib)   ...       0.01 
freq.    1281.93  E(vib)   ...       0.01 
freq.    1313.19  E(vib)   ...       0.01 
freq.    1319.68  E(vib)   ...       0.01 
freq.    1326.72  E(vib)   ...       0.01 
freq.    1338.92  E(vib)   ...       0.01 
freq.    1359.35  E(vib)   ...       0.01 
freq.    1378.86  E(vib)   ...       0.01 
freq.    1384.75  E(vib)   ...       0.00 
freq.    1407.01  E(vib)   ...       0.00 
freq.    1408.16  E(vib)   ...       0.00 
freq.    1427.70  E(vib)   ...       0.00 
freq.    1437.99  E(vib)   ...       0.00 
freq.    1446.10  E(vib)   ...       0.00 
freq.    1450.24  E(vib)   ...       0.00 
freq.    1450.46  E(vib)   ...       0.00 
freq.    1470.83  E(vib)   ...       0.00 
freq.    1474.78  E(vib)   ...       0.00 
freq.    1505.70  E(vib)   ...       0.00 
freq.    1511.93  E(vib)   ...       0.00 
freq.    1513.07  E(vib)   ...       0.00 
freq.    1518.64  E(vib)   ...       0.00 
freq.    1521.47  E(vib)   ...       0.00 
freq.    1521.77  E(vib)   ...       0.00 
freq.    1527.85  E(vib)   ...       0.00 
freq.    1528.92  E(vib)   ...       0.00 
freq.    1536.15  E(vib)   ...       0.00 
freq.    1538.11  E(vib)   ...       0.00 
freq.    1538.99  E(vib)   ...       0.00 
freq.    1562.63  E(vib)   ...       0.00 
freq.    1759.03  E(vib)   ...       0.00 
freq.    3083.87  E(vib)   ...       0.00 
freq.    3086.80  E(vib)   ...       0.00 
freq.    3091.47  E(vib)   ...       0.00 
freq.    3099.99  E(vib)   ...       0.00 
freq.    3104.88  E(vib)   ...       0.00 
freq.    3109.76  E(vib)   ...       0.00 
freq.    3116.70  E(vib)   ...       0.00 
freq.    3120.32  E(vib)   ...       0.00 
freq.    3121.18  E(vib)   ...       0.00 
freq.    3155.14  E(vib)   ...       0.00 
freq.    3159.89  E(vib)   ...       0.00 
freq.    3169.98  E(vib)   ...       0.00 
freq.    3170.71  E(vib)   ...       0.00 
freq.    3172.03  E(vib)   ...       0.00 
freq.    3172.39  E(vib)   ...       0.00 
freq.    3175.21  E(vib)   ...       0.00 
freq.    3176.76  E(vib)   ...       0.00 
freq.    3179.66  E(vib)   ...       0.00 
freq.    3187.72  E(vib)   ...       0.00 
freq.    3193.09  E(vib)   ...       0.00 
freq.    3194.17  E(vib)   ...       0.00 
freq.    3203.25  E(vib)   ...       0.00 
freq.    3215.08  E(vib)   ...       0.00 
freq.    3292.79  E(vib)   ...       0.00 

------------
INNER ENERGY
------------

The inner energy is: U= E(el) + E(ZPE) + E(vib) + E(rot) + E(trans)
    E(el)   - is the total energy from the electronic structure calculation
              = E(kin-el) + E(nuc-el) + E(el-el) + E(nuc-nuc)
    E(ZPE)  - the the zero temperature vibrational energy from the frequency calculation
    E(vib)  - the the finite temperature correction to E(ZPE) due to population
              of excited vibrational states
    E(rot)  - is the rotational thermal energy
    E(trans)- is the translational thermal energy

Summary of contributions to the inner energy U:
Electronic energy                ...   -115.94220042 Eh
Zero point energy                ...      0.37011989 Eh     232.25 kcal/mol
Thermal vibrational correction   ...      0.01281796 Eh       8.04 kcal/mol
Thermal rotational correction    ...      0.00141627 Eh       0.89 kcal/mol
Thermal translational correction ...      0.00141627 Eh       0.89 kcal/mol
-----------------------------------------------------------------------
Total thermal energy                   -115.55643003 Eh


Summary of corrections to the electronic energy:
(perhaps to be used in another calculation)
Total thermal correction                  0.01565051 Eh       9.82 kcal/mol
Non-thermal (ZPE) correction              0.37011989 Eh     232.25 kcal/mol
-----------------------------------------------------------------------
Total correction                          0.38577039 Eh     242.07 kcal/mol


--------
ENTHALPY
--------

The enthalpy is H = U + kB*T
                kB is Boltzmann's constant
Total thermal energy              ...   -115.55643003 Eh 
Thermal Enthalpy correction       ...      0.00094421 Eh       0.59 kcal/mol
-----------------------------------------------------------------------
Total Enthalpy                    ...   -115.55548582 Eh


Note: Only C1 symmetry has been detected, increase convergence thresholds 
      if your molecule has a higher symmetry. Symmetry factor of 1.0 is   
      used for the rotational entropy correction. 
 

Note: Rotational entropy computed according to Herzberg 
Infrared and Raman Spectra, Chapter V,1, Van Nostrand Reinhold, 1945 
Point Group:  C1, Symmetry Number:   1  
Rotational constants in cm-1:     0.026075     0.014744     0.011129 

Vibrational entropy computed according to the QRRHO of S. Grimme
Chem.Eur.J. 2012 18 9955 using a reference frequency of 100.0 cm-1


-------
ENTROPY
-------

The entropy contributions are T*S = T*(S(el)+S(vib)+S(rot)+S(trans))
     S(el)   - electronic entropy
     S(vib)  - vibrational entropy
     S(rot)  - rotational entropy
     S(trans)- translational entropy
The entropies will be listed as multiplied by the temperature to get
units of energy

Electronic entropy                ...      0.00000000 Eh      0.00 kcal/mol
Vibrational entropy               ...      0.02145787 Eh     13.46 kcal/mol
Rotational entropy                ...      0.01534676 Eh      9.63 kcal/mol
Translational entropy             ...      0.01999020 Eh     12.54 kcal/mol
-----------------------------------------------------------------------
Final entropy term                ...      0.05679483 Eh     35.64 kcal/mol

In case the symmetry of your molecule has not been determined correctly
or in case you have a reason to use a different symmetry number we print 
out the resulting rotational entropy values for sn=1,12:

 non-linear molecules -----------------------------------
|  sn= 1 | S(rot)=       0.01534676 Eh      9.63 kcal/mol|
|  sn= 2 | S(rot)=       0.01469230 Eh      9.22 kcal/mol|
|  sn= 3 | S(rot)=       0.01430947 Eh      8.98 kcal/mol|
|  sn= 4 | S(rot)=       0.01403785 Eh      8.81 kcal/mol|
|  sn= 5 | S(rot)=       0.01382716 Eh      8.68 kcal/mol|
|  sn= 6 | S(rot)=       0.01365502 Eh      8.57 kcal/mol|
|  sn= 7 | S(rot)=       0.01350947 Eh      8.48 kcal/mol|
|  sn= 8 | S(rot)=       0.01338339 Eh      8.40 kcal/mol|
|  sn= 9 | S(rot)=       0.01327218 Eh      8.33 kcal/mol|
|  sn=10 | S(rot)=       0.01317270 Eh      8.27 kcal/mol|
|  sn=11 | S(rot)=       0.01308271 Eh      8.21 kcal/mol|
|  sn=12 | S(rot)=       0.01300056 Eh      8.16 kcal/mol|
 linear molecules ---------------------------------------
|  Dinfh | S(rot)=       0.00957292 Eh      6.01 kcal/mol|
|  Cinfv | S(rot)=       0.01022738 Eh      6.42 kcal/mol|
 --------------------------------------------------------


-------------------
GIBBS FREE ENERGY
-------------------

The Gibbs free energy is G = H - T*S

Total enthalpy                    ...   -115.55548582 Eh 
Total entropy correction          ...     -0.05679483 Eh    -35.64 kcal/mol
-----------------------------------------------------------------------
Final Gibbs free energy         ...   -115.61228065 Eh

For completeness - the Gibbs free energy minus the electronic energy
G-E(el)                           ...      0.32991977 Eh    207.03 kcal/mol


Maximum memory used throughout the entire PROP-calculation: 255.7 MB

--------------------------------
SUGGESTED CITATIONS FOR THIS RUN
--------------------------------

Below you find a list of papers that are relevant to this ORCA run
We neither can nor want to force you to cite these papers, but we appreciate if you do
You receive ORCA, which is the product of decades of hard work by many enthusiastic individuals, for free
The only thing we kindly ask in return is that you cite our papers,
We deeply appreciate it, if you show your appreciation for ORCA by not just citing the generic ORCA reference.

Please note that relegating all ORCA citations to the supporting information does *not* help us.
SI sections are not indexed - citations you put there will not count into any citation statistics
But we need these citations in order to attract the funding resources that allow us to do what we are doing

Therefore, if you are a happy ORCA user, please consider citing a few of the papers listed below in the main body of your paper

In addition to the list printed below, the program has created the file ./output/caryophyllene_oxide/caryophyllene_oxide.bibtex that contains the list in bibtex format
You can import this file easily into all common literature databanks and citation aid programs


List of essential papers. We consider these as the minimum necessary citations

  1. Neese,F.
     Software update: the ORCA program system, version 5.0
     WIRES Comput. Molec. Sci., 2022 12(1)e1606
     doi.org/10.1002/wcms.1606
  2. Mueller,M.; Hansen,A.; Grimme,S.
     wB97X-3c: A composite range-separated hybrid DFT method with a molecule-optimized polarized valence double-zeta basis set
     J. Chem. Phys., 2023 158 014103
     doi.org/10.1063/5.0133026

List of papers to cite with high priority. The work reported in these papers was absolutely
necessary for this run to complete.
Our perspective: the developers of density functionals and basis sets usually get cited in chemistry papers
Good! But without the algorithms to do something with them, the functionals or basis sets would not do anything.
Hence, in our opinion, the algorithm design and method developments papers are equally worthy of getting cited

  1. Neese,F.
     An improvement of the resolution of the identity approximation for the formation of the Coulomb matrix
     J. Comp. Chem., 2003 24(14)1740-1747
     doi.org/10.1002/jcc.10318
  2. Neese,F.; Wennmohs,F.; Hansen,A.; Becker,U.
     Efficient, approximate and parallel Hartree-Fock and hybrid DFT calculations. A 'chain-of-spheres' algorithm for the Hartree-Fock exchange
     Chem. Phys., 2009 356(1-3)98-109
     doi.org/10.1016/j.chemphys.2008.10.036
  3. Bykov,D.; Petrenko,T.; Izsak,R.; Kossmann,S.; Becker,U.; Valeev,E.; Neese,F.
     Efficient implementation of the analytic second derivatives of Hartree-Fock and hybrid DFT energies: a detailed analysis of different approximations
     Molec. Phys., 2015 113 1961-1977
     doi.org/10.1080/00268976.2015.1025114
  4. Helmich-Paris,B.; de Souza,B.; Neese,F.; Izsák,R.
     An improved chain of spheres for exchange algorithm
     J. Chem. Phys., 2021 155 104109
     doi.org/doi: 10.1063/5.0058766.
  5. Neese,F.
     The SHARK Integral Generation and Digestion System
     J. Comp. Chem., 2022  1-16
     doi.org/10.1002/jcc.26942
  6. Caldeweyher,E.; Bannwarth,C.; Grimme,S.
     Extension of the D3 dispersion coefficient model
     J. Chem. Phys., 2017 147 034112
     doi.org/10.1063/1.4993215
  7. Caldeweyher,E.; Ehlert,S.; Hansen,A.; Neugebauer,H.; Spicher,S.; Bannwarth,C.; Grimme,S.
     A generally applicable atomic-charge dependent London dispersion correction
     J. Chem. Phys., 2019 150 154122
     doi.org/10.1063/1.5090222
  8. Caldeweyher,E.; Mewes,J.; Ehlert,S.; Grimme,S.
     Extension and evaluation of the D4 London-dispersion model for periodic systems
     Phys. Chem. Chem. Phys., 2020 22(16)8499-8512
     doi.org/10.1039/D0CP00502A
  9. Wittmann,L.; Gordiy,I.; Friede,M.; Helmich-Paris,B.; Grimme,S.; Hansen,A.; Bursch,M.
     Extension of the D3 and D4 London Dispersion Corrections to the full Actinides Series
     Phys. Chem. Chem. Phys., 2024 26(32)21379-21394
     doi.org/https://doi.org/10.1039/D4CP01514B 

List of suggested additional citations. These are papers that are important in the 'surrounding' of 
of this run, or papers that preceded the highly important papers. If you like your results we are grateful for a citation.

  1. Izsak,R.; Neese,F.
     An overlap fitted chain of spheres exchange method
     J. Chem. Phys., 2011 135 144105
     doi.org/10.1063/1.3646921
  2. Izsak,R.; Hansen,A.; Neese,F.
     The resolution of identity and chain of spheres approximations for the LPNO-CCSD singles Fock term
     Molec. Phys., 2012 110 2413-2417
     doi.org/10.1080/00268976.2012.687466
  3. Neese,F.
     The ORCA program system
     WIRES Comput. Molec. Sci., 2012 2(1)73-78
     doi.org/10.1002/wcms.81
  4. Izsak,R.; Neese,F.; Klopper,W.
     Robust fitting techniques in the chain of spheres approximation to the Fock exchange: The role of the complementary space
     J. Chem. Phys., 2013 139 
     doi.org/10.1063/1.4819264
  5. Neese,F.
     Software update: the ORCA program system, version 4.0
     WIRES Comput. Molec. Sci., 2018 8(1)1-6
     doi.org/10.1002/wcms.1327
  6. Neese,F.; Wennmohs,F.; Becker,U.; Riplinger,C.
     The ORCA quantum chemistry program package
     J. Chem. Phys., 2020 152 Art. No. L224108
     doi.org/10.1063/5.0004608

List of optional additional citations

  1. Neese,F.
     Approximate second-order SCF convergence for spin unrestricted wavefunctions
     Chem. Phys. Lett., 2000 325(1-3)93-98
     doi.org/10.1016/s0009-2614(00)00662-x

Timings for individual modules:

Sum of individual times          ...     2206.776 sec (=  36.780 min)
Startup calculation              ...       90.930 sec (=   1.515 min)   4.1 %
SCF iterations                   ...     1353.834 sec (=  22.564 min)  61.3 %
Property integrals               ...      153.722 sec (=   2.562 min)   7.0 %
SCF Response                     ...      103.054 sec (=   1.718 min)   4.7 %
Property calculations            ...      224.598 sec (=   3.743 min)  10.2 %
SCF Gradient evaluation          ...      280.236 sec (=   4.671 min)  12.7 %
Geometry relaxation              ...        0.402 sec (=   0.007 min)   0.0 %
                             ****ORCA TERMINATED NORMALLY****
TOTAL RUN TIME: 0 days 0 hours 36 minutes 54 seconds 812 msec
