
                                 *****************
                                 * O   R   C   A *
                                 *****************

                                            #,                                       
                                            ###                                      
                                            ####                                     
                                            #####                                    
                                            ######                                   
                                           ########,                                 
                                     ,,################,,,,,                         
                               ,,#################################,,                 
                          ,,##########################################,,             
                       ,#########################################, ''#####,          
                    ,#############################################,,   '####,        
                  ,##################################################,,,,####,       
                ,###########''''           ''''###############################       
              ,#####''   ,,,,##########,,,,          '''####'''          '####       
            ,##' ,,,,###########################,,,                        '##       
           ' ,,###''''                  '''############,,,                           
         ,,##''                                '''############,,,,        ,,,,,,###''
      ,#''                                            '''#######################'''  
     '                                                          ''''####''''         
             ,#######,   #######,   ,#######,      ##                                
            ,#'     '#,  ##    ##  ,#'     '#,    #''#        ,####,   ,####,        
            ##       ##  ##   ,#'  ##            #'  '#       #'       #'  '#        
            ##       ##  #######   ##           ,######,      #####,   #    #        
            '#,     ,#'  ##    ##  '#,     ,#' ,#      #,     #,   #   #,  ,#        
             '#######'   ##     ##  '#######'  #'      '#     '####' # '####'        



                #########################################################
                #                        -***-                          #
                #          Department of theory and spectroscopy        #
                #                                                       #
                #                      Frank Neese                      #
                #                                                       #
                #     Directorship, Architecture, Infrastructure        #
                #                    SHARK, DRIVERS                     #
                #        Core code/Algorithms in most modules           #
                #                                                       #
                #        Max Planck Institute fuer Kohlenforschung      #
                #                Kaiser Wilhelm Platz 1                 #
                #                 D-45470 Muelheim/Ruhr                 #
                #                      Germany                          #
                #                                                       #
                #                  All rights reserved                  #
                #                        -***-                          #
                #########################################################


                         Program Version 6.0.1  -  RELEASE   -


 With contributions from (in alphabetic order):
[Max-Planck-Institut fuer Kohlenforschung]                               
  Daniel Aravena         : Magnetic Suceptibility                        
  Michael Atanasov       : Ab Initio Ligand Field Theory (pilot matlab implementation)
  Alexander A. Auer      : GIAO ZORA, VPT2 properties, NMR spectrum      
  Ute Becker             : All parallelization in ORCA, NUMFREQ, NUMCALC 
  Giovanni Bistoni       : ED, misc. LED, open-shell LED, HFLD           
  Martin Brehm           : Molecular dynamics                            
  Dmytro Bykov           : pre 5.0 version of the SCF Hessian            
  Marcos Casanova-Páez   : Triplet and SCS-CIS(D). UHF-(DLPNO)-IP/EA/STEOM-CCSD. UHF-CVS-IP/STEOM-CCSD   
  Vijay G. Chilkuri      : MRCI spin determinant printing, contributions to CSF-ICE 
  Pauline Colinet        : FMM embedding                                 
  Dipayan Datta          : RHF DLPNO-CCSD density                        
  Achintya Kumar Dutta   : EOM-CC, STEOM-CC                              
  Nicolas Foglia         : Exact transition moments, OPA infrastructure, MCD improvements    
  Dmitry Ganyushin       : Spin-Orbit,Spin-Spin,Magnetic field MRCI      
  Miquel Garcia-Rates    : C-PCM and meta-GGA Hessian, CCSD/C-PCM, Gaussian charge scheme 
  Tiago L. C. Gouveia    : GS-ROHF, GS-ROCIS                             
  Yang Guo               : DLPNO-NEVPT2, F12-NEVPT2, CIM, IAO-localization        
  Andreas Hansen         : Spin unrestricted coupled pair/coupled cluster methods 
  Ingolf Harden          : AUTO-CI MPn and infrastructure                
  Benjamin Helmich-Paris : MC-RPA, TRAH-(SCF,CASSCF), AVAS, COSX integrals, SCF dyn. polar. 
  Lee Huntington         : MR-EOM, pCC                                   
  Robert Izsak           : Overlap fitted RIJCOSX, COSX-SCS-MP3, EOM     
  Riya Kayal             : Wick's Theorem for AUTO-CI, AUTO-CI UHF-CCSDT 
  Emily Kempfer          : AUTO-CI, RHF CISDT and CCSDT                  
  Christian Kollmar      : KDIIS, OOCD, Brueckner-CCSD(T), CCSD density, CASPT2, CASPT2-K, improved NEVPT2 
  Axel Koslowski         : Symmetry handling                             
  Simone Kossmann        : meta-GGA functionals, TD-DFT gradient, OOMP2, (MP2 Hessian; deprecated post 5.0) 
  Lucas Lang             : DCDCAS                                        
  Marvin Lechner         : AUTO-CI (C++ implementation), FIC-MRCC        
  Spencer Leger          : CASSCF response                               
  Dagmar Lenk            : GEPOL surface, SMD, ORCA-2-JSON               
  Dimitrios Liakos       : Extrapolation schemes; Compound Job, initial MDCI parallelization 
  Dimitrios Manganas     : Further ROCIS development; embedding schemes. LFT, Crystal Embedding 
  Dimitrios Pantazis     : SARC Basis sets                               
  Anastasios Papadopoulos: AUTO-CI, single reference methods and gradients 
  Taras Petrenko         : pre 6.0 DFT Hessian and TD-DFT gradient, (ASA, deprecated), ECA, 1-Electron XAS/XES, NRVS 
  Peter Pinski           : DLPNO-MP2, DLPNO-MP2 Gradient                 
  Christoph Reimann      : Effective Core Potentials                     
  Marius Retegan         : Local ZFS, SOC                                
  Christoph Riplinger    : Optimizer, TS searches, QM/MM, DLPNO-CCSD(T), (RO)-DLPNO pert. Triples 
  Michael Roemelt        : Original ROCIS implementation                 
  Masaaki Saitow         : Open-shell DLPNO-CCSD energy and density      
  Barbara Sandhoefer     : DKH picture change effects                    
  Kantharuban Sivalingam : CASSCF convergence/infrastructure, NEVPT2 and variants, FIC-MRCI 
  Bernardo de Souza      : ESD, SOC TD-DFT                               
  Georgi L. Stoychev     : AutoAux, RI-MP2 NMR, DLPNO-MP2 response, X2C  
  Van Anh Tran           : RI-MP2 g-tensors                              
  Willem Van den Heuvel  : Paramagnetic NMR                              
  Zikuan Wang            : NOTCH, Electric field optimization            
  Frank Wennmohs         : Technical directorship and infrastructure     
  Hang Xu                : AUTO-CI-Response properties                   
                                                                         
[FACCTs GmbH]                                                            
  Markus Bursch, Miquel Garcia-Rates, Christoph Riplinger, Bernardo de Souza, Georgi L. Stoychev 
                                                                 
  APM, Basis sets (HGBS, AHGBS, def-TZVP (Ac-Lr), def2-XVPD (La-Lu)), CI-OPT, improved COSX, DLPNO-Multilevel,           
  DOCKER, DRACO, updates on ESD, GOAT, IRC, LR-CPCM, MBIS, meta-GGA TD-DFT gradient, ML-optimized integration grids, 
  MM, NACMEs, nearIR, NEB, NEB-TS, NL-DFT gradient (VV10), 2- and 3-layer-ONIOM, interface openCOSMO-RS, QMMM,   
  Crystal-QMMM, SF, symmetry and pop. for TD-DFT, r2SCAN hybrids, SOLVATOR                                   
                                                                         
[Other institutions]                                                     
  V. Asgeirsson          : NEB                                           
  Christoph Bannwarth    : sTDA-DFT, sTD-DFT, PBEh-3c, B97-3c, D3        
  Sebastian Ehlert       : rSCAN, r2SCAN, r2SCAN-3c, D4, dhf basis sets  
  Marvin Friede          : D4 for Fr, Ra, Ac-Lr                          
  Lars Goerigk           : TD-DFT with DH, B97 family of functionals     
  Stefan Grimme          : VdW corrections, initial TS optimization, DFT functionals, gCP, sTDA/sTD-DF 
  Waldemar Hujo          : DFT-NL                                        
  H. Jonsson             : NEB                                           
  Holger Kruse           : gCP                                           
  Marcel Mueller         : wB97X-3c, vDZP basis set                      
  Hagen Neugebauer       : wr2SCAN                                       
  Tobias Risthaus        : range-separated hybrid DFT                    
  Lukas Wittmann         : regularized MP2, r2SCAN double-hybrids, wr2SCAN        
                                                                         
We gratefully acknowledge several colleagues who have allowed us to      
interface, adapt or use parts of their codes:                            
  Ed Valeev, F. Pavosevic, A. Kumar             : LibInt (2-el integral package), F12 methods 
  Garnet Chan, S. Sharma, J. Yang, R. Olivares  : DMRG                   
  Ulf Ekstrom                                   : XCFun DFT Library      
  Mihaly Kallay                                 : mrcc  (arbitrary order and MRCC methods)
  Frank Weinhold                                : gennbo (NPA and NBO analysis)           
  Simon Mueller                                 : openCOSMO-RS                            
  Christopher J. Cramer and Donald G. Truhlar   : smd solvation model                     
  S Lehtola, MJT Oliveira, MAL Marques          : LibXC Library                           
  Liviu Ungur et al                             : ANISO software                          


 Your calculation uses the libint2 library for the computation of 2-el integrals
 For citations please refer to: http://libint.valeyev.net

 Your ORCA version has been built with support for libXC version: 6.2.2
 For citations please refer to: https://libxc.gitlab.io

 This ORCA versions uses:
   CBLAS   interface :  Fast vector & matrix operations
   LAPACKE interface :  Fast linear algebra routines
   SCALAPACK package :  Parallel linear algebra routines
   Shared memory     :  Shared parallel matrices
   BLAS/LAPACK       :  OpenBLAS 0.3.27  USE64BITINT DYNAMIC_ARCH NO_AFFINITY SkylakeX SINGLE_THREADED
        Core in use  :  SkylakeX
   Copyright (c) 2011-2014, The OpenBLAS Project


Your calculation utilizes the atom-pairwise dispersion correction
based on EEQ partial charges (D4)


================================================================================

cite the ECPs for C  [vDZP-ECP], O  [vDZP-ECP] as follows:
   B-Ne (ecp-2-mwb), Al-Ar (ecp-10-mwb), Ga-Kr (ecp-28-mwb), Y-Cd (ecp-28-mwb), In-Xe (ecp-46-mwb):
     A. Bergner, M. Dolg, W. Küchle, H. Stoll, and H. Preuß, Mol. Phys. 80, 1431 (1993)., T. Leininger, A. Berning, A. Nicklass, H. Stoll, H.-J. Werner, and H.-J.Flad, Chem. Phys. 217, 19 (1997).
   Na-Mg, K-Ca, Rb-Sr, Cs-Ba (CRENBL):
     L. Fernandez Pacios and P. A. Christiansen, J. Chem. Phys. 82, 2664 (1985)., M. M. Hurley, L. F. Pacios, P. A. Christiansen, R. B. Ross, and W. C. Ermler, J. Chem. Phys. 84, 6840 (1986)., L. A. LaJohn, P. A. Christiansen, R. B. Ross, T. Atashroo, and W. C. Ermler, J. Chem. Phys. 87, 2812 (1987)., R. B. Ross, J. M. Powers, T. Atashroo, W. C. Ermler, L. A. LaJohn, and P. A. Christiansen, J. Chem. Phys. 93, 6654 (1990). 
   Sc-Zn (ecp-10-mdf):
     M. Dolg, U. Wedig, H. Stoll, and H. Preuss, J. Chem. Phys. 86, 866 (1986). 
   Y-Cd (ecp-28-mwb), Hf-Hg (ecp-60-mwb):
     D. Andrae, U. Häußermann, M. Dolg, H. Stoll, and H. Preuß, Theor. Chim. Acta 77, 123 (1990). 
   La (ecp-46-mwb):
     M. Dolg, H. Stoll, and H. Preuss, J. Chem. Phys. 90, 1730 (1989)., M. Dolg, H. Stoll, and H. Preuss, Theor. Chim. Acta 85, 441 (1993).
   Ce-Lu (SBKJC-ecp):
     T. R. Cundari and W. J. Stevens, J. Chem. Phys. 98, 5555 (1993).
   Tl-Rn (ecp-78-mwb):
     W. Küchle, M. Dolg, H. Stoll, and H. Preuss, Mol. Phys. 74, 1245 (1991).

ECP parameters for C  [vDZP-ECP], O  [vDZP-ECP] have been obtained from:
MM, AH, SG, J. Chem. Phys. 158, 014103 (2023), 10.1063/5.0133026

----- Orbital basis set information -----
Your calculation utilizes the basis: vDZP
   Marcel Mueller, Andreas Hansen, Stefan Grimme 
   J. Chem. Phys. 158, 014103 (2023). DOI: 10.1063/5.0133026

----- AuxJ basis set information -----
Your calculation utilizes the auxiliary basis: def2/J
   F. Weigend, Phys. Chem. Chem. Phys. 8, 1057 (2006).

================================================================================
                                        WARNINGS
                       Please study these warnings very carefully!
================================================================================

WARNING: Frozen-Core approximation turned on, but there are no core electrons.
  ===> : Turning off frozen-core approximation


WARNING: Geometry Optimization
  ===> : Switching off AutoStart
         For restart on a previous wavefunction, please use MOREAD

================================================================================
                                       INPUT FILE
================================================================================
NAME = ./output/benzyl_benzoate/benzyl_benzoate.inp
|  1> ! wB97X-3c OPT FREQ TightSCF
|  2> %pal
|  3>   nprocs 40
|  4> end
|  5> * xyz 0 1
|  6> C      4.151762     0.295448     1.066812
|  7> C      3.898963     1.028030    -0.096341
|  8> C      2.926799     0.592092    -1.002266
|  9> C      2.202494    -0.585011    -0.749464
| 10> C      2.458685    -1.313152     0.423701
| 11> C      3.431699    -0.873846     1.326899
| 12> C      1.139966    -1.053088    -1.705974
| 13> O     -0.150114    -0.940777    -1.108954
| 14> C     -0.791376     0.284053    -0.883592
| 15> O     -0.252338     1.360000    -1.264056
| 16> C     -2.103183     0.312444    -0.200582
| 17> C     -2.769037     1.531771     0.027270
| 18> C     -4.008101     1.550580     0.675346
| 19> C     -4.594231     0.356858     1.102143
| 20> C     -3.942407    -0.858602     0.881897
| 21> C     -2.703190    -0.883539     0.234268
| 22> H      4.903996     0.634715     1.767163
| 23> H      4.455203     1.934957    -0.295242
| 24> H      2.738450     1.172813    -1.896673
| 25> H      1.903487    -2.218119     0.637991
| 26> H      3.626203    -1.438952     2.229278
| 27> H      1.167173    -0.483589    -2.660929
| 28> H      1.324374    -2.119681    -1.953937
| 29> H     -2.333800     2.469659    -0.294396
| 30> H     -4.514072     2.491944     0.846838
| 31> H     -5.553239     0.373707     1.603648
| 32> H     -4.397500    -1.782996     1.213513
| 33> H     -2.216663    -1.837717     0.075638
| 34> *
| 35> 
| 36>                          ****END OF INPUT****
================================================================================

                       *****************************
                       * Geometry Optimization Run *
                       *****************************

Geometry optimization settings:
Update method            Update   .... BFGS
Choice of coordinates    CoordSys .... (2022) Redundant Internals
Initial Hessian          InHess   .... Almloef's Model
Max. no of cycles        MaxIter  .... 84

Convergence Tolerances:
Energy Change            TolE     ....  5.0000e-06 Eh
Max. Gradient            TolMAXG  ....  3.0000e-04 Eh/bohr
RMS Gradient             TolRMSG  ....  1.0000e-04 Eh/bohr
Max. Displacement        TolMAXD  ....  4.0000e-03 bohr
RMS Displacement         TolRMSD  ....  2.0000e-03 bohr
Strict Convergence                .... False

------------------------------------------------------------------------------
                        ORCA OPTIMIZATION COORDINATE SETUP
------------------------------------------------------------------------------

The optimization will be done in redundant internal coordinates (2022)
Making redundant internal coordinates   ...  (2022 redundants) done
Evaluating the initial hessian          ...  (Almloef) done
Evaluating the coordinates              ...  done
Calculating the B-matrix                .... done
Calculating the G-matrix                .... done
Diagonalizing the G-matrix              .... done
Small eigenvalue found = 4.182e-03
Small eigenvalue found = 6.074e-03
Small eigenvalue found = 1.247e-02
The first mode is                       ....   59
The number of degrees of freedom        ....   78

    -----------------------------------------------------------------
                    Redundant Internal Coordinates


    -----------------------------------------------------------------
         Definition                    Initial Value    Approx d2E/dq
    -----------------------------------------------------------------
      1. B(C   1,C   0)                  1.3977         0.607416   
      2. B(C   2,C   1)                  1.3985         0.605554   
      3. B(C   3,C   2)                  1.4050         0.591242   
      4. B(C   4,C   3)                  1.4043         0.592759   
      5. B(C   5,C   4)                  1.3984         0.605819   
      6. B(C   5,C   0)                  1.3976         0.607515   
      7. B(C   6,C   3)                  1.5043         0.410536   
      8. B(O   7,C   6)                  1.4260         0.490353   
      9. B(C   8,O   7)                  1.4008         0.537849   
     10. B(O   9,C   8)                  1.2621         0.895119   
     11. B(C  10,C   8)                  1.4792         0.450157   
     12. B(C  11,C  10)                  1.4078         0.585144   
     13. B(C  12,C  11)                  1.3984         0.605720   
     14. B(C  13,C  12)                  1.3967         0.609682   
     15. B(C  14,C  13)                  1.3967         0.609642   
     16. B(C  15,C  14)                  1.3985         0.605666   
     17. B(C  15,C  10)                  1.4069         0.587101   
     18. B(H  16,C   0)                  1.0823         0.370384   
     19. B(H  17,C   1)                  1.0823         0.370364   
     20. B(H  18,C   2)                  1.0829         0.369614   
     21. B(H  19,C   4)                  1.0831         0.369329   
     22. B(H  20,C   5)                  1.0823         0.370374   
     23. B(H  21,C   6)                  1.1122         0.331887   
     24. B(H  22,C   6)                  1.1105         0.334031   
     25. B(H  23,C  11)                  1.0828         0.369703   
     26. B(H  24,C  12)                  1.0824         0.370300   
     27. B(H  25,C  13)                  1.0824         0.370360   
     28. B(H  26,C  14)                  1.0824         0.370300   
     29. B(H  27,C  15)                  1.0827         0.369832   
     30. A(C   1,C   0,C   5)          120.0125         0.430890   
     31. A(C   5,C   0,H  16)          119.9935         0.353376   
     32. A(C   1,C   0,H  16)          119.9939         0.353366   
     33. A(C   2,C   1,H  17)          119.9602         0.353180   
     34. A(C   0,C   1,C   2)          120.0946         0.430640   
     35. A(C   0,C   1,H  17)          119.9451         0.353363   
     36. A(C   3,C   2,H  18)          120.5451         0.351633   
     37. A(C   1,C   2,C   3)          120.1952         0.428560   
     38. A(C   1,C   2,H  18)          119.2595         0.353058   
     39. A(C   2,C   3,C   6)          120.6898         0.399964   
     40. A(C   2,C   3,C   4)          119.3835         0.426922   
     41. A(C   4,C   3,C   6)          119.9139         0.400144   
     42. A(C   3,C   4,H  19)          120.3303         0.351739   
     43. A(C   3,C   4,C   5)          120.2394         0.428790   
     44. A(C   5,C   4,H  19)          119.4302         0.353038   
     45. A(C   4,C   5,H  20)          119.9675         0.353207   
     46. A(C   0,C   5,H  20)          119.9588         0.353375   
     47. A(C   0,C   5,C   4)          120.0737         0.430687   
     48. A(C   3,C   6,O   7)          110.3829         0.384618   
     49. A(H  21,C   6,H  22)          107.2192         0.283805   
     50. A(O   7,C   6,H  22)          108.6256         0.333016   
     51. A(C   3,C   6,H  22)          108.8779         0.325344   
     52. A(O   7,C   6,H  21)          109.9552         0.332661   
     53. A(C   3,C   6,H  21)          111.6748         0.324999   
     54. A(C   6,O   7,C   8)          123.3938         0.400669   
     55. A(O   9,C   8,C  10)          120.1039         0.434896   
     56. A(O   7,C   8,C  10)          119.8041         0.397230   
     57. A(O   7,C   8,O   9)          120.0919         0.446151   
     58. A(C   8,C  10,C  11)          120.7156         0.405773   
     59. A(C   8,C  10,C  15)          120.3039         0.406012   
     60. A(C  11,C  10,C  15)          118.9804         0.425399   
     61. A(C  10,C  11,C  12)          120.3784         0.427785   
     62. A(C  12,C  11,H  23)          118.8259         0.353089   
     63. A(C  10,C  11,H  23)          120.7957         0.351031   
     64. A(C  13,C  12,H  24)          119.9167         0.353576   
     65. A(C  11,C  12,H  24)          119.9538         0.353186   
     66. A(C  11,C  12,C  13)          120.1295         0.430950   
     67. A(C  14,C  13,H  25)          120.0081         0.353582   
     68. A(C  12,C  13,H  25)          120.0082         0.353585   
     69. A(C  12,C  13,C  14)          119.9836         0.431449   
     70. A(C  15,C  14,H  26)          119.9486         0.353180   
     71. A(C  13,C  14,H  26)          119.9126         0.353572   
     72. A(C  13,C  14,C  15)          120.1387         0.430938   
     73. A(C  14,C  15,H  27)          118.7992         0.353105   
     74. A(C  10,C  15,H  27)          120.8114         0.351250   
     75. A(C  10,C  15,C  14)          120.3894         0.428034   
     76. D(H  17,C   1,C   0,C   5)    179.8207         0.025469   
     77. D(C   2,C   1,C   0,C   5)     -0.0692         0.025469   
     78. D(C   2,C   1,C   0,H  16)   -179.9551         0.025469   
     79. D(H  17,C   1,C   0,H  16)     -0.0653         0.025469   
     80. D(H  18,C   2,C   1,C   0)    179.6909         0.025305   
     81. D(C   3,C   2,C   1,H  17)    179.9540         0.025305   
     82. D(H  18,C   2,C   1,H  17)     -0.1990         0.025305   
     83. D(C   3,C   2,C   1,C   0)     -0.1561         0.025305   
     84. D(C   6,C   3,C   2,H  18)     -0.7687         0.024061   
     85. D(C   6,C   3,C   2,C   1)    179.0763         0.024061   
     86. D(C   4,C   3,C   2,H  18)   -179.4616         0.024061   
     87. D(C   4,C   3,C   2,C   1)      0.3834         0.024061   
     88. D(H  19,C   4,C   3,C   2)    179.4815         0.024191   
     89. D(C   5,C   4,C   3,C   6)   -179.0922         0.024191   
     90. D(C   5,C   4,C   3,C   2)     -0.3891         0.024191   
     91. D(H  19,C   4,C   3,C   6)      0.7783         0.024191   
     92. D(H  20,C   5,C   4,H  19)      0.1853         0.025328   
     93. D(C   0,C   5,C   4,H  19)   -179.7044         0.025328   
     94. D(C   0,C   5,C   4,C   3)      0.1673         0.025328   
     95. D(H  20,C   5,C   0,H  16)      0.0599         0.025478   
     96. D(H  20,C   5,C   0,C   1)   -179.8261         0.025478   
     97. D(H  20,C   5,C   4,C   3)   -179.9429         0.025328   
     98. D(C   4,C   5,C   0,H  16)    179.9496         0.025478   
     99. D(C   4,C   5,C   0,C   1)      0.0637         0.025478   
    100. D(H  22,C   6,C   3,C   2)    129.1537         0.012481   
    101. D(H  21,C   6,C   3,C   4)   -170.3612         0.012481   
    102. D(H  21,C   6,C   3,C   2)     10.9528         0.012481   
    103. D(O   7,C   6,C   3,C   4)     66.9923         0.012481   
    104. D(O   7,C   6,C   3,C   2)   -111.6937         0.012481   
    105. D(C   8,O   7,C   6,C   3)     71.9327         0.018987   
    106. D(C   8,O   7,C   6,H  21)    -51.7149         0.018987   
    107. D(C   8,O   7,C   6,H  22)   -168.7616         0.018987   
    108. D(C  10,C   8,O   7,C   6)   -177.1452         0.020882   
    109. D(O   9,C   8,O   7,C   6)      2.9633         0.020882   
    110. D(C  15,C  10,C   8,O   9)   -179.5206         0.013813   
    111. D(C  15,C  10,C   8,O   7)      0.5879         0.013813   
    112. D(C  11,C  10,C   8,O   9)      0.3455         0.013813   
    113. D(C  11,C  10,C   8,O   7)   -179.5460         0.013813   
    114. D(H  23,C  11,C  10,C  15)    179.9563         0.023543   
    115. D(H  23,C  11,C  10,C   8)      0.0885         0.023543   
    116. D(C  12,C  11,C  10,C  15)     -0.0419         0.023543   
    117. D(C  12,C  11,C  10,C   8)   -179.9098         0.023543   
    118. D(H  24,C  12,C  11,H  23)      0.0110         0.025319   
    119. D(H  24,C  12,C  11,C  10)   -179.9907         0.025319   
    120. D(C  13,C  12,C  11,H  23)   -179.9785         0.025319   
    121. D(C  13,C  12,C  11,C  10)      0.0198         0.025319   
    122. D(H  25,C  13,C  12,H  24)      0.0030         0.025671   
    123. D(H  25,C  13,C  12,C  11)    179.9926         0.025671   
    124. D(C  14,C  13,C  12,H  24)   -179.9830         0.025671   
    125. D(C  14,C  13,C  12,C  11)      0.0066         0.025671   
    126. D(H  26,C  14,C  13,H  25)     -0.0119         0.025667   
    127. D(H  26,C  14,C  13,C  12)    179.9741         0.025667   
    128. D(C  15,C  14,C  13,H  25)   -179.9962         0.025667   
    129. D(C  15,C  14,C  13,C  12)     -0.0102         0.025667   
    130. D(H  27,C  15,C  14,H  26)     -0.0408         0.025315   
    131. D(H  27,C  15,C  14,C  13)    179.9434         0.025315   
    132. D(C  10,C  15,C  14,H  26)   -179.9969         0.025315   
    133. D(C  10,C  15,C  14,C  13)     -0.0126         0.025315   
    134. D(H  27,C  15,C  10,C  11)   -179.9168         0.023709   
    135. D(H  27,C  15,C  10,C   8)     -0.0483         0.023709   
    136. D(C  14,C  15,C  10,C  11)      0.0384         0.023709   
    137. D(C  14,C  15,C  10,C   8)    179.9068         0.023709   
    -----------------------------------------------------------------

Number of atoms                         .... 28
Number of degrees of freedom            .... 137


         *************************************************************
         *                GEOMETRY OPTIMIZATION CYCLE   1            *
         *************************************************************
---------------------------------
CARTESIAN COORDINATES (ANGSTROEM)
---------------------------------
  C      4.151762    0.295448    1.066812
  C      3.898963    1.028030   -0.096341
  C      2.926799    0.592092   -1.002266
  C      2.202494   -0.585011   -0.749464
  C      2.458685   -1.313152    0.423701
  C      3.431699   -0.873846    1.326899
  C      1.139966   -1.053088   -1.705974
  O     -0.150114   -0.940777   -1.108954
  C     -0.791376    0.284053   -0.883592
  O     -0.252338    1.360000   -1.264056
  C     -2.103183    0.312444   -0.200582
  C     -2.769037    1.531771    0.027270
  C     -4.008101    1.550580    0.675346
  C     -4.594231    0.356858    1.102143
  C     -3.942407   -0.858602    0.881897
  C     -2.703190   -0.883539    0.234268
  H      4.903996    0.634715    1.767163
  H      4.455203    1.934957   -0.295242
  H      2.738450    1.172813   -1.896673
  H      1.903487   -2.218119    0.637991
  H      3.626203   -1.438952    2.229278
  H      1.167173   -0.483589   -2.660929
  H      1.324374   -2.119681   -1.953937
  H     -2.333800    2.469659   -0.294396
  H     -4.514072    2.491944    0.846838
  H     -5.553239    0.373707    1.603648
  H     -4.397500   -1.782996    1.213513
  H     -2.216663   -1.837717    0.075638

----------------------------
CARTESIAN COORDINATES (A.U.)
----------------------------
  NO LB      ZA    FRAG     MASS         X           Y           Z
   0 C     4.0000*   0    12.011    7.845693    0.558316    2.015983
   1 C     4.0000*   0    12.011    7.367972    1.942695   -0.182058
   2 C     4.0000*   0    12.011    5.530849    1.118892   -1.894008
   3 C     4.0000*   0    12.011    4.162110   -1.105511   -1.416282
   4 C     4.0000*   0    12.011    4.646241   -2.481498    0.800679
   5 C     4.0000*   0    12.011    6.484971   -1.651330    2.507476
   6 C     4.0000*   0    12.011    2.154224   -1.990048   -3.223824
   7 O     6.0000*   0    15.999   -0.283674   -1.777811   -2.095619
   8 C     4.0000*   0    12.011   -1.495484    0.536782   -1.669747
   9 O     6.0000*   0    15.999   -0.476850    2.570028   -2.388720
  10 C     4.0000*   0    12.011   -3.974440    0.590434   -0.379045
  11 C     4.0000*   0    12.011   -5.232722    2.894628    0.051533
  12 C     4.0000*   0    12.011   -7.574213    2.930172    1.276219
  13 C     4.0000*   0    12.011   -8.681838    0.674364    2.082748
  14 C     4.0000*   0    12.011   -7.450070   -1.622523    1.666544
  15 C     4.0000*   0    12.011   -5.108289   -1.669647    0.442702
  16 H     1.0000    0     1.008    9.267209    1.199438    3.339454
  17 H     1.0000    0     1.008    8.419114    3.656539   -0.557927
  18 H     1.0000    0     1.008    5.174921    2.216295   -3.584193
  19 H     1.0000    0     1.008    3.597069   -4.191637    1.205628
  20 H     1.0000    0     1.008    6.852531   -2.719225    4.212725
  21 H     1.0000    0     1.008    2.205637   -0.913851   -5.028427
  22 H     1.0000    0     1.008    2.502704   -4.005617   -3.692406
  23 H     1.0000    0     1.008   -4.410243    4.666979   -0.556328
  24 H     1.0000    0     1.008   -8.530360    4.709092    1.600292
  25 H     1.0000    0     1.008  -10.494101    0.706204    3.030456
  26 H     1.0000    0     1.008   -8.310071   -3.369374    2.293207
  27 H     1.0000    0     1.008   -4.188886   -3.472782    0.142935
* core charge reduced due to ECP

--------------------------------
INTERNAL COORDINATES (ANGSTROEM)
--------------------------------
 C      0   0   0     0.000000000000     0.00000000     0.00000000
 C      1   0   0     1.397679728169     0.00000000     0.00000000
 C      2   1   0     1.398515244238   120.09457686     0.00000000
 C      3   2   1     1.405025998634   120.19522072   359.84387313
 C      4   3   2     1.404328758371   119.38346113     0.38340686
 C      1   2   3     1.397635299345   120.01254019   359.93084314
 C      4   3   2     1.504318187357   120.68975083   179.07628074
 O      7   4   3     1.425956888381   110.38292836   248.30631524
 C      8   7   4     1.400790317138   123.39381192    71.93272730
 O      9   8   7     1.262131834457   120.09188931     2.96327526
 C      9   8   7     1.479238423727   119.80412535   182.85481180
 C     11   9   8     1.407848150956   120.71559724   180.45399250
 C     12  11   9     1.398440515844   120.37841771   180.09018025
 C     13  12  11     1.396666126672   120.12946329     0.00000000
 C     14  13  12     1.396683872282   119.98361604     0.00000000
 C     15  14  13     1.398464854295   120.13871365     0.00000000
 H      1   2   3     1.082335258248   119.99385322   180.04485738
 H      2   1   3     1.082349818095   119.94511073   179.88986143
 H      3   2   1     1.082901707124   119.25948649   179.69088091
 H      5   4   3     1.083111395191   120.33034469   179.48151842
 H      6   1   2     1.082342116381   119.95877454   180.17390373
 H      7   4   3     1.112208786099   111.67483792    10.95284745
 H      7   4   3     1.110456026812   108.87791462   129.15369801
 H     12  11   9     1.082836165941   120.79572094     0.08845326
 H     13  12  11     1.082396572150   119.95380283   180.00933441
 H     14  13  12     1.082352760374   120.00824783   179.99257781
 H     15  14  13     1.082396913032   119.91264969   179.97410314
 H     16  15  14     1.082740806617   118.79917534   179.94343163

---------------------------
INTERNAL COORDINATES (A.U.)
---------------------------
 C      0   0   0     0.000000000000     0.00000000     0.00000000
 C      1   0   0     2.641231909173     0.00000000     0.00000000
 C      2   1   0     2.642810805723   120.09457686     0.00000000
 C      3   2   1     2.655114348458   120.19522072   359.84387313
 C      4   3   2     2.653796755310   119.38346113     0.38340686
 C      1   2   3     2.641147950862   120.01254019   359.93084314
 C      4   3   2     2.842749392382   120.68975083   179.07628074
 O      7   4   3     2.694667997818   110.38292836   248.30631524
 C      8   7   4     2.647110070440   123.39381192    71.93272730
 O      9   8   7     2.385083512027   120.09188931     2.96327526
 C      9   8   7     2.795355507617   119.80412535   182.85481180
 C     11   9   8     2.660447443453   120.71559724   180.45399250
 C     12  11   9     2.642669589524   120.37841771   180.09018025
 C     13  12  11     2.639316479935   120.12946329     0.00000000
 C     14  13  12     2.639350014277   119.98361604     0.00000000
 C     15  14  13     2.642715582532   120.13871365     0.00000000
 H      1   2   3     2.045317223175   119.99385322   180.04485738
 H      2   1   3     2.045344737299   119.94511073   179.88986143
 H      3   2   1     2.046387656419   119.25948649   179.69088091
 H      5   4   3     2.046783909441   120.33034469   179.48151842
 H      6   1   2     2.045330183170   119.95877454   180.17390373
 H      7   4   3     2.101770009467   111.67483792    10.95284745
 H      7   4   3     2.098457774436   108.87791462   129.15369801
 H     12  11   9     2.046263801533   120.79572094     0.08845326
 H     13  12  11     2.045433089658   119.95380283   180.00933441
 H     14  13  12     2.045350297401   120.00824783   179.99257781
 H     15  14  13     2.045433733832   119.91264969   179.97410314
 H     16  15  14     2.046083598527   118.79917534   179.94343163

---------------------
BASIS SET INFORMATION
---------------------
There are 3 groups of distinct atoms

 Group   1 Type C   : 6s6p2d contracted to 2s2p1d pattern {42/42/2}
 Group   2 Type O   : 6s6p2d contracted to 2s2p1d pattern {42/42/2}
 Group   3 Type H   : 8s2p contracted to 2s1p pattern {53/2}

Atom   0C    basis set group =>   1
Atom   1C    basis set group =>   1
Atom   2C    basis set group =>   1
Atom   3C    basis set group =>   1
Atom   4C    basis set group =>   1
Atom   5C    basis set group =>   1
Atom   6C    basis set group =>   1
Atom   7O    basis set group =>   2
Atom   8C    basis set group =>   1
Atom   9O    basis set group =>   2
Atom  10C    basis set group =>   1
Atom  11C    basis set group =>   1
Atom  12C    basis set group =>   1
Atom  13C    basis set group =>   1
Atom  14C    basis set group =>   1
Atom  15C    basis set group =>   1
Atom  16H    basis set group =>   3
Atom  17H    basis set group =>   3
Atom  18H    basis set group =>   3
Atom  19H    basis set group =>   3
Atom  20H    basis set group =>   3
Atom  21H    basis set group =>   3
Atom  22H    basis set group =>   3
Atom  23H    basis set group =>   3
Atom  24H    basis set group =>   3
Atom  25H    basis set group =>   3
Atom  26H    basis set group =>   3
Atom  27H    basis set group =>   3
---------------------------------
AUXILIARY/J BASIS SET INFORMATION
---------------------------------
There are 3 groups of distinct atoms

 Group   1 Type C   : 12s5p4d2f1g contracted to 6s4p3d1f1g pattern {711111/2111/211/2/1}
 Group   2 Type O   : 12s5p4d2f1g contracted to 6s4p3d1f1g pattern {711111/2111/211/2/1}
 Group   3 Type H   : 5s2p1d contracted to 3s1p1d pattern {311/2/1}

Atom   0C    basis set group =>   1
Atom   1C    basis set group =>   1
Atom   2C    basis set group =>   1
Atom   3C    basis set group =>   1
Atom   4C    basis set group =>   1
Atom   5C    basis set group =>   1
Atom   6C    basis set group =>   1
Atom   7O    basis set group =>   2
Atom   8C    basis set group =>   1
Atom   9O    basis set group =>   2
Atom  10C    basis set group =>   1
Atom  11C    basis set group =>   1
Atom  12C    basis set group =>   1
Atom  13C    basis set group =>   1
Atom  14C    basis set group =>   1
Atom  15C    basis set group =>   1
Atom  16H    basis set group =>   3
Atom  17H    basis set group =>   3
Atom  18H    basis set group =>   3
Atom  19H    basis set group =>   3
Atom  20H    basis set group =>   3
Atom  21H    basis set group =>   3
Atom  22H    basis set group =>   3
Atom  23H    basis set group =>   3
Atom  24H    basis set group =>   3
Atom  25H    basis set group =>   3
Atom  26H    basis set group =>   3
Atom  27H    basis set group =>   3
-------------------------
ECP PARAMETER INFORMATION
-------------------------

 Group 1, Type C  ECP vDZP-ECP (replacing 2 core electrons, lmax=3)
 Group 2, Type O  ECP vDZP-ECP (replacing 2 core electrons, lmax=3)

Atom   0C    ECP group =>   1
Atom   1C    ECP group =>   1
Atom   2C    ECP group =>   1
Atom   3C    ECP group =>   1
Atom   4C    ECP group =>   1
Atom   5C    ECP group =>   1
Atom   6C    ECP group =>   1
Atom   7O    ECP group =>   2
Atom   8C    ECP group =>   1
Atom   9O    ECP group =>   2
Atom  10C    ECP group =>   1
Atom  11C    ECP group =>   1
Atom  12C    ECP group =>   1
Atom  13C    ECP group =>   1
Atom  14C    ECP group =>   1
Atom  15C    ECP group =>   1



           ************************************************************
           *        Program running with 40 parallel MPI-processes    *
           *              working on a common directory               *
           ************************************************************
------------------------------------------------------------------------------
                             ORCA STARTUP CALCULATIONS
                           -- RI-GTO INTEGRALS CHOSEN --
------------------------------------------------------------------------------
------------------------------------------------------------------------------
                   ___                                                        
                  /   \      - P O W E R E D   B Y -                         
                 /     \                                                     
                 |  |  |   _    _      __       _____    __    __             
                 |  |  |  | |  | |    /  \     |  _  \  |  |  /  |          
                  \  \/   | |  | |   /    \    | | | |  |  | /  /          
                 / \  \   | |__| |  /  /\  \   | |_| |  |  |/  /          
                |  |  |   |  __  | /  /__\  \  |    /   |      \           
                |  |  |   | |  | | |   __   |  |    \   |  |\   \          
                \     /   | |  | | |  |  |  |  | |\  \  |  | \   \       
                 \___/    |_|  |_| |__|  |__|  |_| \__\ |__|  \__/        
                                                                              
                      - O R C A' S   B I G   F R I E N D -                    
                                      &                                       
                       - I N T E G R A L  F E E D E R -                       
                                                                              
 v1 FN, 2020, v2 2021, v3 2022-2024                                           
------------------------------------------------------------------------------


----------------------
SHARK INTEGRAL PACKAGE
----------------------

Number of atoms                             ...     28
Number of basis functions                   ...    268
Number of shells                            ...    116
Maximum angular momentum                    ...      2
Integral batch strategy                     ... SHARK/LIBINT Hybrid
RI-J (if used) integral strategy            ... SPLIT-RIJ (Revised 2003 algorithm where possible)
Printlevel                                  ...      1
Contraction scheme used                     ... SEGMENTED contraction
Prescreening option                         ... SCHWARTZ
   Thresh                                   ... 2.500e-11
   Tcut                                     ... 2.500e-12
   Tpresel                                  ... 2.500e-12 
Coulomb Range Separation                    ... NOT USED
Exchange Range Separation                   ... Long Range
   Mu parameter                             ... 3.000e-01
   Scaling (regular/separated)              ... 1.670e-01 8.330e-01
Multipole approximations                    ... NOT USED
Finite Nucleus Model                        ... NOT USED
CABS basis                                  ... NOT available
Auxiliary Coulomb fitting basis             ... AVAILABLE
   # of basis functions in Aux-J            ...    916
   # of shells in Aux-J                     ...    300
   Maximum angular momentum in Aux-J        ...      4
Auxiliary J/K fitting basis                 ... NOT available
Auxiliary Correlation fitting basis         ... NOT available
Auxiliary 'external' fitting basis          ... NOT available

Checking pre-screening integrals            ... done (  0.0 sec) Dimension = 116
Check shell pair data                       ... done (  0.0 sec)
Shell pair information
Shell pair cut-off parameter TPreSel        ...   2.5e-12
Total number of shell pairs                 ...      6786
Shell pairs after pre-screening             ...      6529
Total number of primitive shell pairs       ...     59748
Primitive shell pairs kept                  ...     42729
          la=0 lb=0:   1564 shell pairs
          la=1 lb=0:   2371 shell pairs
          la=1 lb=1:    916 shell pairs
          la=2 lb=0:    878 shell pairs
          la=2 lb=1:    666 shell pairs
          la=2 lb=2:    134 shell pairs

Calculating one electron integrals          ... done (  0.0 sec)
Calculating ECP integrals                   ... done (  0.1 sec)
Calculating RI/J V-Matrix + Cholesky decomp.... done (  0.0 sec)
Calculating Nuclear repulsion               ... done (  0.0 sec) ENN=    494.724753038334 Eh

Diagonalization of the overlap matrix:
Smallest eigenvalue                        ... 4.444e-04
Time for diagonalization                   ...    0.010 sec
Threshold for overlap eigenvalues          ... 1.000e-07
Number of eigenvalues below threshold      ... 0
Time for construction of square roots      ...    0.005 sec
Total time needed                          ...    0.020 sec

-------------------
DFT GRID GENERATION
-------------------

General Integration Accuracy     IntAcc      ... 4.388
Radial Grid Type                 RadialGrid  ... OptM3 with GC (2021)
Angular Grid (max. ang.)         AngularGrid ... 4 (Lebedev-302)
Angular grid pruning method      GridPruning ... 4 (adaptive)
Weight generation scheme         WeightScheme... mBecke (2022)
Basis function cutoff            BFCut       ... 1.0000e-11
Integration weight cutoff        WCut        ... 1.0000e-14
Partially contracted basis set               ... off
Rotationally invariant grid construction     ... off
Angular grids for H and He will be reduced by one unit

Total number of grid points                  ...   134667
Total number of batches                      ...     2118
Average number of points per batch           ...       63
Average number of grid points per atom       ...     4810

--------------------
COSX GRID GENERATION
--------------------

GRIDX 1
-------
General Integration Accuracy     IntAcc      ... 3.816
Radial Grid Type                 RadialGrid  ... OptM3 with GC (2021)
Angular Grid (max. ang.)         AngularGrid ... 1 (Lebedev-50)
Angular grid pruning method      GridPruning ... 4 (adaptive)
Weight generation scheme         WeightScheme... mBecke (2022)
Basis function cutoff            BFCut       ... 1.0000e-11
Integration weight cutoff        WCut        ... 1.0000e-14
Partially contracted basis set               ... on
Rotationally invariant grid construction     ... off
Angular grids for H and He will be reduced by one unit

Total number of grid points                  ...    17169
Total number of batches                      ...      148
Average number of points per batch           ...      116
Average number of grid points per atom       ...      613
UseSFitting                                  ... on

GRIDX 2
-------
General Integration Accuracy     IntAcc      ... 4.020
Radial Grid Type                 RadialGrid  ... OptM3 with GC (2021)
Angular Grid (max. ang.)         AngularGrid ... 2 (Lebedev-110)
Angular grid pruning method      GridPruning ... 4 (adaptive)
Weight generation scheme         WeightScheme... mBecke (2022)
Basis function cutoff            BFCut       ... 1.0000e-11
Integration weight cutoff        WCut        ... 1.0000e-14
Partially contracted basis set               ... on
Rotationally invariant grid construction     ... off
Angular grids for H and He will be reduced by one unit

Total number of grid points                  ...    37522
Total number of batches                      ...      307
Average number of points per batch           ...      122
Average number of grid points per atom       ...     1340
UseSFitting                                  ... on

GRIDX 3
-------
General Integration Accuracy     IntAcc      ... 4.338
Radial Grid Type                 RadialGrid  ... OptM3 with GC (2021)
Angular Grid (max. ang.)         AngularGrid ... 3 (Lebedev-194)
Angular grid pruning method      GridPruning ... 4 (adaptive)
Weight generation scheme         WeightScheme... mBecke (2022)
Basis function cutoff            BFCut       ... 1.0000e-11
Integration weight cutoff        WCut        ... 1.0000e-14
Partially contracted basis set               ... on
Rotationally invariant grid construction     ... off
Angular grids for H and He will be reduced by one unit

Total number of grid points                  ...    82215
Total number of batches                      ...      656
Average number of points per batch           ...      125
Average number of grid points per atom       ...     2936
UseSFitting                                  ... on
Initializing property integral containers    ... done (  0.0 sec)

SHARK setup successfully completed in   4.3 seconds

Maximum memory used throughout the entire STARTUP-calculation: 39.3 MB


           ************************************************************
           *        Program running with 40 parallel MPI-processes    *
           *              working on a common directory               *
           ************************************************************
-------------------------------------------------------------------------------
                                 ORCA GUESS
                   Start orbitals & Density for SCF / CASSCF
-------------------------------------------------------------------------------

------------
SCF SETTINGS
------------
Hamiltonian:
 Density Functional     Method          .... DFT(GTOs)
 Exchange Functional    Exchange        .... WB97X-V
 Correlation Functional Correlation     .... WB97X-V
 Gradients option       PostSCFGGA      .... off
 Hybrid DFT is turned on
   Fraction HF Exchange ScalHFX         ....  0.167000
   Scaling of DF-GGA-X  ScalDFX         ....  0.000000
   Scaling of DF-GGA-C  ScalDFC         ....  1.000000
   Scaling of DF-LDA-C  ScalLDAC        ....  1.000000
   Perturbative correction              ....  0.000000
 Long-range corrected/Screened/Range-Separated Hybrid DFT is turned on
   Amount of maximum screened exact exchange              ....  0.833000
   Range separation parameter mu (erf(mu*r12)/r12)        ....  0.300000
   NL short-range parameter             ....  6.000000
   NL long-range parameter              ....  0.010000
 RI-approximation to the Coulomb term is turned on
   Number of AuxJ basis functions       .... 916
   RIJ-COSX (HFX calculated with COS-X)).... on


General Settings:
 Integral files         IntName         .... ./output/benzyl_benzoate/benzyl_benzoate
 Hartree-Fock type      HFTyp           .... RHF
 Total Charge           Charge          ....    0
 Multiplicity           Mult            ....    1
 Number of Electrons    NEL             ....   80
 Basis Dimension        Dim             ....  268
 Nuclear Repulsion      ENuc            ....    494.7247530383 Eh

Convergence Acceleration:
 AO-DIIS                CNVDIIS         .... on
   Start iteration      DIISMaxIt       ....    12
   Startup error        DIISStart       ....  0.200000
   # of expansion vecs  DIISMaxEq       ....     5
   Bias factor          DIISBfac        ....   1.050
   Max. coefficient     DIISMaxC        ....  10.000
 MO-DIIS                CNVKDIIS        .... off
 Trust-Rad. Augm. Hess. CNVTRAH         .... auto
   Auto Start mean grad. ratio tolernc. ....  1.125000
   Auto Start start iteration           ....    50
   Auto Start num. interpolation iter.  ....    10
   Max. Number of Micro iterations      ....    24
   Max. Number of Macro iterations      .... Maxiter - #DIIS iter
   Number of Davidson start vectors     ....     2
   Converg. threshold    (grad. norm)   ....   1.000e-05
   Grad. Scal. Fac. for Micro threshold ....   0.100
   Minimum threshold for Micro iter.    ....   1.000e-02
   NR start threshold (gradient norm)   ....   1.000e-04
   Initial trust radius                 ....   0.400
   Minimum AH scaling param. (alpha)    ....   1.000
   Maximum AH scaling param. (alpha)    .... 1000.000
   Quad. conv. algorithm                .... NR
   White noise on init. David. guess    .... on
   Maximum white noise                  ....   0.010
   Pseudo random numbers                .... off
   Inactive MOs                         .... canonical
   Orbital update algorithm             .... Taylor
   Preconditioner                       .... Diag
   Full preconditioner red. dimension   ....   250
 SOSCF                  CNVSOSCF        .... on
   Start iteration      SOSCFMaxIt      ....   150
   Startup grad/error   SOSCFStart      ....  0.003300
   Hessian update       SOSCFHessUp     .... L-BFGS
 Level Shifting         CNVShift        .... on
   Level shift para.    LevelShift      ....    0.2500
   Turn off err/grad.   ShiftErr        ....    0.0010
 Zerner damping         CNVZerner       .... off
 Static damping         CNVDamp         .... on
   Fraction old density DampFac         ....    0.7000
   Max. Damping (<1)    DampMax         ....    0.9800
   Min. Damping (>=0)   DampMin         ....    0.0000
   Turn off err/grad.   DampErr         ....    0.1000

SCF Procedure:
 Maximum # iterations   MaxIter         ....   125
 SCF integral mode      SCFMode         .... Direct
   Integral package                     .... SHARK and LIBINT hybrid scheme
 Reset frequency        DirectResetFreq ....    20
 Integral Threshold     Thresh          ....  2.500e-11 Eh
 Primitive CutOff       TCut            ....  2.500e-12 Eh

Convergence Tolerance:
 Convergence Check Mode ConvCheckMode   .... Total+1el-Energy
 Convergence forced     ConvForced      .... 0
 Energy Change          TolE            ....  1.000e-08 Eh
 1-El. energy change                    ....  1.000e-05 Eh
 Orbital Gradient       TolG            ....  1.000e-05
 Orbital Rotation angle TolX            ....  1.000e-05
 DIIS Error             TolErr          ....  5.000e-07

------------------------------
INITIAL GUESS: MODEL POTENTIAL
------------------------------
Loading Hartree-Fock densities                     ... done
Atomic calculation to generate a density for atom 0 (C  with ECP)
  Multiplicity assumed   :    1
  Atomic configuration   : 1s2 2s2 2p2 
  Number of open shells  : 1
  Command: /home/aspe232/Project/Software/ORCA/6_0_1/build/orca ./output/benzyl_benzoate/benzyl_benzoate_atom6.inp "" > ./output/benzyl_benzoate/benzyl_benzoate_atom6.out
Returned from the atomic calculation with res=0
Atomic calculation to generate a density for atom 7 (O  with ECP)
  Multiplicity assumed   :    3
  Atomic configuration   : 1s2 2s2 2p4 
  Number of open shells  : 1
  Command: /home/aspe232/Project/Software/ORCA/6_0_1/build/orca ./output/benzyl_benzoate/benzyl_benzoate_atom8.inp "" > ./output/benzyl_benzoate/benzyl_benzoate_atom8.out
Returned from the atomic calculation with res=0
Calculating cut-offs                               ... done
Initializing the effective Hamiltonian             ... done
Setting up the integral package (SHARK)            ... done
Starting the Coulomb interaction                   ... done (   0.1 sec)
Making the grid                                    ... done (   1.0 sec)
Mapping shells                                     ... done
Starting the XC term evaluation                    ... done (   0.0 sec)
  promolecular density results
     # of electrons  =    111.992641191
     EX              =    -61.750213583
     EC              =     -4.631277553
     EX+EC           =    -66.381491135
Transforming the Hamiltonian                       ... done (   0.0 sec)
Diagonalizing the Hamiltonian                      ... done (   0.0 sec)
Back transforming the eigenvectors                 ... done (   0.0 sec)
Now organizing SCF variables                       ... done
                      ------------------
                      INITIAL GUESS DONE (   2.2 sec)
                      ------------------
             **** ENERGY FILE WAS UPDATED (./output/benzyl_benzoate/benzyl_benzoate.en.tmp) ****
Finished Guess after   2.8 sec
Maximum memory used throughout the entire GUESS-calculation: 24.7 MB


           ************************************************************
           *        Program running with 40 parallel MPI-processes    *
           *              working on a common directory               *
           ************************************************************

-------------------------------------------------------------------------------------------
                                      ORCA LEAN-SCF
                              memory conserving SCF solver
-------------------------------------------------------------------------------------------

----------------------------------------D-I-I-S--------------------------------------------
Iteration    Energy (Eh)           Delta-E    RMSDP     MaxDP     DIISErr   Damp  Time(sec)
-------------------------------------------------------------------------------------------
               ***  Starting incremental Fock matrix formation  ***
    1    -118.5761819644527577     0.00e+00  3.64e-03  8.47e-02  1.91e-01  0.700   5.1
    2    -118.7554309406863240    -1.79e-01  2.72e-03  5.76e-02  9.51e-02  0.700   4.3
                               ***Turning on AO-DIIS***
    3    -118.8490130491871923    -9.36e-02  1.59e-03  3.18e-02  5.06e-02  0.700   3.6
    4    -118.9052537998824164    -5.62e-02  3.43e-03  7.08e-02  3.21e-02  0.000   4.0
    5    -119.0255368778530283    -1.20e-01  2.27e-04  8.64e-03  7.06e-03  0.000   4.5
    6    -119.0258656111882374    -3.29e-04  9.71e-05  5.35e-03  4.30e-03  0.000   4.2
                              *** Initializing SOSCF ***
---------------------------------------S-O-S-C-F--------------------------------------
Iteration    Energy (Eh)           Delta-E    RMSDP     MaxDP     MaxGrad    Time(sec)
--------------------------------------------------------------------------------------
    7    -119.0259349120159413    -6.93e-05  5.22e-05  2.15e-03  1.54e-03     3.9
               *** Restarting incremental Fock matrix formation ***
    8    -119.0258925837886181     4.23e-05  3.16e-05  8.51e-04  3.01e-04     5.6
    9    -119.0258970968619678    -4.51e-06  2.77e-05  1.26e-03  2.81e-04     4.4
   10    -119.0258979574798559    -8.61e-07  1.13e-05  4.60e-04  1.79e-04     5.1
   11    -119.0258985035353589    -5.46e-07  3.35e-06  1.04e-04  2.02e-05     4.5
   12    -119.0258985192843966    -1.57e-08  1.38e-06  5.91e-05  1.35e-05     4.2
   13    -119.0258985321630689    -1.29e-08  3.88e-07  1.56e-05  2.49e-06     4.3
                  *** Gradient check signals convergence ***

               *****************************************************
               *                     SUCCESS                       *
               *           SCF CONVERGED AFTER  13 CYCLES          *
               *****************************************************

Recomputing exchange energy using gridx3       ... done (    5.145 sec)
Old exchange energy                            :    -15.514242980 Eh
New exchange energy                            :    -15.514264916 Eh
Exchange energy change after final integration :     -0.000021936 Eh
Total energy after final integration           :   -119.025920468 Eh
             **** ENERGY FILE WAS UPDATED (./output/benzyl_benzoate/benzyl_benzoate.en.tmp) ****

----------------
TOTAL SCF ENERGY
----------------

Total Energy       :       -119.02592046803491 Eh           -3238.85996 eV

Components:
Nuclear Repulsion  :        494.72475303833414 Eh           13462.14493 eV
Electronic Energy  :       -613.75065157049721 Eh          -16701.00429 eV
One Electron Energy:      -1164.71255400455357 Eh          -31693.43986 eV
Two Electron Energy:        550.96190243405636 Eh           14992.43557 eV

Virial components:
Potential Energy   :       -210.09486618937876 Eh           -5716.97195 eV
Kinetic Energy     :         91.06894572134384 Eh            2478.11200 eV
Virial Ratio       :          2.30698691552041

DFT components:
N(Alpha)           :       40.000122072026 electrons
N(Beta)            :       40.000122072026 electrons
N(Total)           :       80.000244144051 electrons
E(X)               :      -17.140549102099 Eh       
E(C)               :       -3.082163563782 Eh       
E(XC)              :      -20.222712665881 Eh       

---------------
SCF CONVERGENCE
---------------

  Last Energy change         ...    1.2879e-08  Tolerance :   1.0000e-08
  Last MAX-Density change    ...    1.5594e-05  Tolerance :   1.0000e-07
  Last RMS-Density change    ...    3.8796e-07  Tolerance :   5.0000e-09
  Last DIIS Error            ...    1.5390e-03  Tolerance :   5.0000e-07
  Last Orbital Gradient      ...    2.4879e-06  Tolerance :   1.0000e-05
  Last Orbital Rotation      ...    7.8547e-06  Tolerance :   1.0000e-05


----------------
ORBITAL ENERGIES
----------------

  NO   OCC          E(Eh)            E(eV) 
   0   2.0000      -1.214219       -33.0406 
   1   2.0000      -1.122305       -30.5395 
   2   2.0000      -1.015669       -27.6378 
   3   2.0000      -1.001029       -27.2394 
   4   2.0000      -0.927493       -25.2384 
   5   2.0000      -0.906692       -24.6723 
   6   2.0000      -0.899708       -24.4823 
   7   2.0000      -0.885797       -24.1038 
   8   2.0000      -0.840780       -22.8788 
   9   2.0000      -0.775121       -21.0921 
  10   2.0000      -0.748750       -20.3745 
  11   2.0000      -0.738266       -20.0892 
  12   2.0000      -0.726303       -19.7637 
  13   2.0000      -0.690366       -18.7858 
  14   2.0000      -0.663397       -18.0520 
  15   2.0000      -0.637632       -17.3508 
  16   2.0000      -0.618580       -16.8324 
  17   2.0000      -0.601119       -16.3573 
  18   2.0000      -0.594776       -16.1847 
  19   2.0000      -0.580468       -15.7953 
  20   2.0000      -0.567967       -15.4552 
  21   2.0000      -0.564052       -15.3486 
  22   2.0000      -0.559871       -15.2349 
  23   2.0000      -0.547919       -14.9096 
  24   2.0000      -0.538484       -14.6529 
  25   2.0000      -0.531771       -14.4702 
  26   2.0000      -0.522737       -14.2244 
  27   2.0000      -0.491430       -13.3725 
  28   2.0000      -0.481438       -13.1006 
  29   2.0000      -0.477450       -12.9921 
  30   2.0000      -0.473195       -12.8763 
  31   2.0000      -0.463194       -12.6041 
  32   2.0000      -0.454975       -12.3805 
  33   2.0000      -0.442000       -12.0274 
  34   2.0000      -0.410478       -11.1697 
  35   2.0000      -0.388806       -10.5800 
  36   2.0000      -0.364053        -9.9064 
  37   2.0000      -0.361755        -9.8438 
  38   2.0000      -0.348289        -9.4774 
  39   2.0000      -0.344019        -9.3612 
  40   0.0000       0.009194         0.2502 
  41   0.0000       0.053442         1.4542 
  42   0.0000       0.057059         1.5527 
  43   0.0000       0.066105         1.7988 
  44   0.0000       0.081112         2.2072 
  45   0.0000       0.089783         2.4431 
  46   0.0000       0.098413         2.6780 
  47   0.0000       0.105499         2.8708 
  48   0.0000       0.108819         2.9611 
  49   0.0000       0.118077         3.2130 
  50   0.0000       0.126675         3.4470 
*Only the first 10 virtual orbitals were printed.

                    ********************************
                    * MULLIKEN POPULATION ANALYSIS *
                    ********************************

-----------------------
MULLIKEN ATOMIC CHARGES
-----------------------
   0 C :   -0.014316
   1 C :   -0.008640
   2 C :    0.027272
   3 C :   -0.080623
   4 C :    0.017921
   5 C :   -0.010102
   6 C :    0.099102
   7 O :   -0.337655
   8 C :    0.292372
   9 O :   -0.365975
  10 C :   -0.050405
  11 C :    0.041655
  12 C :   -0.005719
  13 C :   -0.000716
  14 C :   -0.008537
  15 C :    0.037941
  16 H :    0.019335
  17 H :    0.019033
  18 H :    0.023862
  19 H :    0.016772
  20 H :    0.018385
  21 H :    0.053386
  22 H :    0.067158
  23 H :    0.039978
  24 H :    0.026240
  25 H :    0.023816
  26 H :    0.024420
  27 H :    0.034041
Sum of atomic charges:    0.0000000

--------------------------------
MULLIKEN REDUCED ORBITAL CHARGES
--------------------------------
  0 C s       :     1.010831  s :     1.010831
      pz      :     0.973107  p :     2.909651
      px      :     0.967947
      py      :     0.968597
      dz2     :     0.018022  d :     0.093834
      dxz     :     0.020831
      dyz     :     0.021236
      dx2y2   :     0.018494
      dxy     :     0.015251

  1 C s       :     1.010120  s :     1.010120
      pz      :     0.967205  p :     2.905147
      px      :     0.963320
      py      :     0.974622
      dz2     :     0.026478  d :     0.093373
      dxz     :     0.018014
      dyz     :     0.018126
      dx2y2   :     0.013524
      dxy     :     0.017231

  2 C s       :     1.015202  s :     1.015202
      pz      :     0.975604  p :     2.864597
      px      :     0.941036
      py      :     0.947957
      dz2     :     0.018772  d :     0.092928
      dxz     :     0.013268
      dyz     :     0.023191
      dx2y2   :     0.021476
      dxy     :     0.016222

  3 C s       :     1.049073  s :     1.049073
      pz      :     0.969425  p :     2.916832
      px      :     0.956791
      py      :     0.990616
      dz2     :     0.023761  d :     0.114718
      dxz     :     0.023539
      dyz     :     0.025223
      dx2y2   :     0.022541
      dxy     :     0.019653

  4 C s       :     1.008639  s :     1.008639
      pz      :     0.956409  p :     2.880660
      px      :     0.949425
      py      :     0.974826
      dz2     :     0.026439  d :     0.092781
      dxz     :     0.018103
      dyz     :     0.017912
      dx2y2   :     0.013345
      dxy     :     0.016982

  5 C s       :     1.009076  s :     1.009076
      pz      :     0.972574  p :     2.907349
      px      :     0.963048
      py      :     0.971726
      dz2     :     0.018623  d :     0.093677
      dxz     :     0.013243
      dyz     :     0.023813
      dx2y2   :     0.021881
      dxy     :     0.016118

  6 C s       :     1.025717  s :     1.025717
      pz      :     0.964002  p :     2.735459
      px      :     0.698802
      py      :     1.072655
      dz2     :     0.027805  d :     0.139723
      dxz     :     0.032908
      dyz     :     0.019761
      dx2y2   :     0.037335
      dxy     :     0.021914

  7 O s       :     1.699852  s :     1.699852
      pz      :     1.717008  p :     4.602043
      px      :     1.388662
      py      :     1.496373
      dz2     :     0.004726  d :     0.035759
      dxz     :     0.006065
      dyz     :     0.005189
      dx2y2   :     0.011491
      dxy     :     0.008288

  8 C s       :     1.131638  s :     1.131638
      pz      :     0.752393  p :     2.331383
      px      :     0.849878
      py      :     0.729113
      dz2     :     0.025117  d :     0.244608
      dxz     :     0.025664
      dyz     :     0.054460
      dx2y2   :     0.076351
      dxy     :     0.063016

  9 O s       :     1.795955  s :     1.795955
      pz      :     1.467613  p :     4.536358
      px      :     1.644192
      py      :     1.424553
      dz2     :     0.004670  d :     0.033662
      dxz     :     0.002411
      dyz     :     0.009558
      dx2y2   :     0.007736
      dxy     :     0.009287

 10 C s       :     1.019567  s :     1.019567
      pz      :     1.003831  p :     2.920321
      px      :     0.888891
      py      :     1.027599
      dz2     :     0.010333  d :     0.110517
      dxz     :     0.014663
      dyz     :     0.023730
      dx2y2   :     0.034289
      dxy     :     0.027501

 11 C s       :     1.024388  s :     1.024388
      pz      :     0.906262  p :     2.841069
      px      :     0.944561
      py      :     0.990246
      dz2     :     0.011427  d :     0.092888
      dxz     :     0.013133
      dyz     :     0.016447
      dx2y2   :     0.024456
      dxy     :     0.027424

 12 C s       :     1.008984  s :     1.008984
      pz      :     0.963682  p :     2.904124
      px      :     0.964417
      py      :     0.976025
      dz2     :     0.012886  d :     0.092612
      dxz     :     0.012376
      dyz     :     0.014401
      dx2y2   :     0.023960
      dxy     :     0.028988

 13 C s       :     1.019377  s :     1.019377
      pz      :     0.937735  p :     2.886348
      px      :     0.971671
      py      :     0.976942
      dz2     :     0.007228  d :     0.094991
      dxz     :     0.011094
      dyz     :     0.022491
      dx2y2   :     0.030668
      dxy     :     0.023509

 14 C s       :     1.008225  s :     1.008225
      pz      :     0.965410  p :     2.907877
      px      :     0.966211
      py      :     0.976256
      dz2     :     0.010406  d :     0.092435
      dxz     :     0.012597
      dyz     :     0.016372
      dx2y2   :     0.025074
      dxy     :     0.027985

 15 C s       :     1.017631  s :     1.017631
      pz      :     0.914976  p :     2.850687
      px      :     0.947530
      py      :     0.988180
      dz2     :     0.014241  d :     0.093741
      dxz     :     0.012964
      dyz     :     0.014409
      dx2y2   :     0.023714
      dxy     :     0.028413

 16 H s       :     0.931226  s :     0.931226
      pz      :     0.017408  p :     0.049439
      px      :     0.019647
      py      :     0.012384

 17 H s       :     0.931341  s :     0.931341
      pz      :     0.011090  p :     0.049625
      px      :     0.016116
      py      :     0.022420

 18 H s       :     0.926549  s :     0.926549
      pz      :     0.021798  p :     0.049589
      px      :     0.012062
      py      :     0.015730

 19 H s       :     0.933406  s :     0.933406
      pz      :     0.011233  p :     0.049822
      px      :     0.016440
      py      :     0.022149

 20 H s       :     0.931928  s :     0.931928
      pz      :     0.021995  p :     0.049687
      px      :     0.012371
      py      :     0.015321

 21 H s       :     0.905443  s :     0.905443
      pz      :     0.020069  p :     0.041171
      px      :     0.006711
      py      :     0.014391

 22 H s       :     0.892362  s :     0.892362
      pz      :     0.009758  p :     0.040480
      px      :     0.006849
      py      :     0.023873

 23 H s       :     0.909202  s :     0.909202
      pz      :     0.014088  p :     0.050821
      px      :     0.014500
      py      :     0.022233

 24 H s       :     0.924319  s :     0.924319
      pz      :     0.013450  p :     0.049442
      px      :     0.013871
      py      :     0.022121

 25 H s       :     0.927107  s :     0.927107
      pz      :     0.016172  p :     0.049078
      px      :     0.023434
      py      :     0.009472

 26 H s       :     0.926016  s :     0.926016
      pz      :     0.014732  p :     0.049564
      px      :     0.013278
      py      :     0.021554

 27 H s       :     0.915341  s :     0.915341
      pz      :     0.013120  p :     0.050618
      px      :     0.014706
      py      :     0.022792



                     *******************************
                     * LOEWDIN POPULATION ANALYSIS *
                     *******************************

----------------------
LOEWDIN ATOMIC CHARGES
----------------------
   0 C :   -0.043176
   1 C :   -0.040998
   2 C :   -0.020670
   3 C :   -0.045514
   4 C :   -0.030491
   5 C :   -0.044539
   6 C :   -0.029398
   7 O :   -0.053596
   8 C :    0.036877
   9 O :   -0.190251
  10 C :   -0.046503
  11 C :    0.007046
  12 C :   -0.039695
  13 C :   -0.027064
  14 C :   -0.042336
  15 C :   -0.007610
  16 H :    0.045017
  17 H :    0.045885
  18 H :    0.048891
  19 H :    0.045543
  20 H :    0.044859
  21 H :    0.061015
  22 H :    0.068510
  23 H :    0.058735
  24 H :    0.049346
  25 H :    0.049591
  26 H :    0.047782
  27 H :    0.052745

-------------------------------
LOEWDIN REDUCED ORBITAL CHARGES
-------------------------------
  0 C s       :     0.802654  s :     0.802654
      pz      :     0.995397  p :     2.939594
      px      :     0.961748
      py      :     0.982448
      dz2     :     0.054049  d :     0.300929
      dxz     :     0.067338
      dyz     :     0.073979
      dx2y2   :     0.055772
      dxy     :     0.049792

  1 C s       :     0.802199  s :     0.802199
      pz      :     0.988904  p :     2.939389
      px      :     0.957295
      py      :     0.993190
      dz2     :     0.083954  d :     0.299410
      dxz     :     0.062545
      dyz     :     0.058061
      dx2y2   :     0.038827
      dxy     :     0.056024

  2 C s       :     0.800491  s :     0.800491
      pz      :     0.999024  p :     2.921309
      px      :     0.947567
      py      :     0.974718
      dz2     :     0.058863  d :     0.298870
      dxz     :     0.043224
      dyz     :     0.075272
      dx2y2   :     0.062678
      dxy     :     0.058833

  3 C s       :     0.786074  s :     0.786074
      pz      :     0.971939  p :     2.894036
      px      :     0.935268
      py      :     0.986829
      dz2     :     0.074475  d :     0.365404
      dxz     :     0.073571
      dyz     :     0.083926
      dx2y2   :     0.069232
      dxy     :     0.064200

  4 C s       :     0.799348  s :     0.799348
      pz      :     0.984940  p :     2.931979
      px      :     0.955658
      py      :     0.991381
      dz2     :     0.084879  d :     0.299165
      dxz     :     0.062438
      dyz     :     0.057779
      dx2y2   :     0.037854
      dxy     :     0.056215

  5 C s       :     0.801813  s :     0.801813
      pz      :     0.999299  p :     2.942036
      px      :     0.955879
      py      :     0.986859
      dz2     :     0.058470  d :     0.300690
      dxz     :     0.043159
      dyz     :     0.077629
      dx2y2   :     0.063364
      dxy     :     0.058068

  6 C s       :     0.764981  s :     0.764981
      pz      :     0.993694  p :     2.851242
      px      :     0.782884
      py      :     1.074664
      dz2     :     0.081201  d :     0.413174
      dxz     :     0.097543
      dyz     :     0.060273
      dx2y2   :     0.114096
      dxy     :     0.060062

  7 O s       :     1.397021  s :     1.397021
      pz      :     1.629678  p :     4.559338
      px      :     1.406937
      py      :     1.522723
      dz2     :     0.013186  d :     0.097237
      dxz     :     0.016620
      dyz     :     0.011554
      dx2y2   :     0.028244
      dxy     :     0.027633

  8 C s       :     0.780018  s :     0.780018
      pz      :     0.766835  p :     2.518661
      px      :     0.896457
      py      :     0.855369
      dz2     :     0.074604  d :     0.664444
      dxz     :     0.069260
      dyz     :     0.137623
      dx2y2   :     0.207648
      dxy     :     0.175310

  9 O s       :     1.559082  s :     1.559082
      pz      :     1.437051  p :     4.563978
      px      :     1.605752
      py      :     1.521175
      dz2     :     0.008637  d :     0.067190
      dxz     :     0.005196
      dyz     :     0.016074
      dx2y2   :     0.017051
      dxy     :     0.020233

 10 C s       :     0.785261  s :     0.785261
      pz      :     0.934900  p :     2.911093
      px      :     0.946295
      py      :     1.029898
      dz2     :     0.033243  d :     0.350150
      dxz     :     0.048268
      dyz     :     0.067281
      dx2y2   :     0.110928
      dxy     :     0.090429

 11 C s       :     0.803336  s :     0.803336
      pz      :     0.882048  p :     2.894549
      px      :     0.981741
      py      :     1.030760
      dz2     :     0.033224  d :     0.295070
      dxz     :     0.041941
      dyz     :     0.048083
      dx2y2   :     0.079971
      dxy     :     0.091851

 12 C s       :     0.801965  s :     0.801965
      pz      :     0.915592  p :     2.941643
      px      :     0.993378
      py      :     1.032673
      dz2     :     0.037949  d :     0.296087
      dxz     :     0.041232
      dyz     :     0.041263
      dx2y2   :     0.078532
      dxy     :     0.097112

 13 C s       :     0.804478  s :     0.804478
      pz      :     0.895426  p :     2.919872
      px      :     1.000667
      py      :     1.023780
      dz2     :     0.022251  d :     0.302714
      dxz     :     0.035586
      dyz     :     0.064163
      dx2y2   :     0.105644
      dxy     :     0.075069

 14 C s       :     0.801858  s :     0.801858
      pz      :     0.918365  p :     2.943877
      px      :     0.993401
      py      :     1.032112
      dz2     :     0.031123  d :     0.296601
      dxz     :     0.041240
      dyz     :     0.047343
      dx2y2   :     0.082226
      dxy     :     0.094669

 15 C s       :     0.802966  s :     0.802966
      pz      :     0.885937  p :     2.906233
      px      :     0.987582
      py      :     1.032714
      dz2     :     0.041718  d :     0.298412
      dxz     :     0.042425
      dyz     :     0.042100
      dx2y2   :     0.077056
      dxy     :     0.095112

 16 H s       :     0.805170  s :     0.805170
      pz      :     0.052192  p :     0.149813
      px      :     0.056602
      py      :     0.041019

 17 H s       :     0.804607  s :     0.804607
      pz      :     0.038229  p :     0.149508
      px      :     0.048549
      py      :     0.062729

 18 H s       :     0.802814  s :     0.802814
      pz      :     0.062320  p :     0.148295
      px      :     0.039149
      py      :     0.046826

 19 H s       :     0.805234  s :     0.805234
      pz      :     0.037510  p :     0.149223
      px      :     0.049086
      py      :     0.062627

 20 H s       :     0.805318  s :     0.805318
      pz      :     0.061955  p :     0.149823
      px      :     0.040484
      py      :     0.047384

 21 H s       :     0.803221  s :     0.803221
      pz      :     0.061127  p :     0.135764
      px      :     0.025671
      py      :     0.048966

 22 H s       :     0.796788  s :     0.796788
      pz      :     0.037966  p :     0.134702
      px      :     0.026975
      py      :     0.069760

 23 H s       :     0.791120  s :     0.791120
      pz      :     0.042766  p :     0.150145
      px      :     0.045048
      py      :     0.062332

 24 H s       :     0.801546  s :     0.801546
      pz      :     0.042563  p :     0.149108
      px      :     0.044080
      py      :     0.062466

 25 H s       :     0.802260  s :     0.802260
      pz      :     0.047990  p :     0.148149
      px      :     0.065143
      py      :     0.035016

 26 H s       :     0.802682  s :     0.802682
      pz      :     0.045329  p :     0.149537
      px      :     0.042854
      py      :     0.061353

 27 H s       :     0.796395  s :     0.796395
      pz      :     0.041014  p :     0.150860
      px      :     0.046337
      py      :     0.063509



                      *****************************
                      * MAYER POPULATION ANALYSIS *
                      *****************************

  NA   - Mulliken gross atomic population
  ZA   - Total nuclear charge
  QA   - Mulliken gross atomic charge
  VA   - Mayer's total valence
  BVA  - Mayer's bonded valence
  FA   - Mayer's free valence

  ATOM       NA         ZA         QA         VA         BVA        FA
  0 C      4.0143     4.0000    -0.0143     4.0715     4.0715     0.0000
  1 C      4.0086     4.0000    -0.0086     4.0766     4.0766     0.0000
  2 C      3.9727     4.0000     0.0273     4.0645     4.0645     0.0000
  3 C      4.0806     4.0000    -0.0806     4.1116     4.1116     0.0000
  4 C      3.9821     4.0000     0.0179     4.0557     4.0557     0.0000
  5 C      4.0101     4.0000    -0.0101     4.0769     4.0769     0.0000
  6 C      3.9009     4.0000     0.0991     3.9333     3.9333     0.0000
  7 O      6.3377     6.0000    -0.3377     2.0018     2.0018    -0.0000
  8 C      3.7076     4.0000     0.2924     4.0684     4.0684     0.0000
  9 O      6.3660     6.0000    -0.3660     2.0018     2.0018     0.0000
 10 C      4.0504     4.0000    -0.0504     4.1288     4.1288    -0.0000
 11 C      3.9583     4.0000     0.0417     4.0814     4.0814    -0.0000
 12 C      4.0057     4.0000    -0.0057     4.0495     4.0495    -0.0000
 13 C      4.0007     4.0000    -0.0007     4.0743     4.0743    -0.0000
 14 C      4.0085     4.0000    -0.0085     4.0581     4.0581    -0.0000
 15 C      3.9621     4.0000     0.0379     4.0520     4.0520     0.0000
 16 H      0.9807     1.0000     0.0193     1.0457     1.0457    -0.0000
 17 H      0.9810     1.0000     0.0190     1.0458     1.0458     0.0000
 18 H      0.9761     1.0000     0.0239     1.0430     1.0430     0.0000
 19 H      0.9832     1.0000     0.0168     1.0448     1.0448     0.0000
 20 H      0.9816     1.0000     0.0184     1.0458     1.0458     0.0000
 21 H      0.9466     1.0000     0.0534     1.0268     1.0268    -0.0000
 22 H      0.9328     1.0000     0.0672     1.0133     1.0133     0.0000
 23 H      0.9600     1.0000     0.0400     1.0522     1.0522    -0.0000
 24 H      0.9738     1.0000     0.0262     1.0438     1.0438    -0.0000
 25 H      0.9762     1.0000     0.0238     1.0455     1.0455     0.0000
 26 H      0.9756     1.0000     0.0244     1.0440     1.0440    -0.0000
 27 H      0.9660     1.0000     0.0340     1.0479     1.0479     0.0000

  Mayer bond orders larger than 0.100000
B(  0-C ,  1-C ) :   1.4468 B(  0-C ,  5-C ) :   1.4432 B(  0-C , 16-H ) :   0.9952 
[...]
 29:    788.83   0.006253   31.60  0.002474  (-0.039783  0.010316  0.028010)
 30:    841.09   0.000300    1.52  0.000111  ( 0.008119  0.005471  0.003931)
 31:    847.47   0.000825    4.17  0.000304  (-0.009371 -0.009842  0.010915)
 32:    863.73   0.001719    8.69  0.000621  ( 0.020357  0.007582  0.012219)
 33:    880.35   0.000048    0.24  0.000017  (-0.000967 -0.002932  0.002761)
 34:    885.38   0.000014    0.07  0.000005  (-0.001134  0.001014 -0.001640)
 35:    963.93   0.001937    9.79  0.000627  (-0.024798 -0.000934  0.003381)
 36:    984.74   0.000240    1.21  0.000076  (-0.004037 -0.003018 -0.007118)
 37:   1016.56   0.000588    2.97  0.000181  (-0.012874 -0.000843  0.003749)
 38:   1017.54   0.001081    5.46  0.000332  (-0.017367  0.005080  0.002044)
 39:   1026.52   0.000040    0.20  0.000012  (-0.003425 -0.000569 -0.000094)
 40:   1028.37   0.003971   20.07  0.001205  ( 0.031009  0.009919 -0.012038)
 41:   1034.52   0.000034    0.17  0.000010  (-0.003119  0.000063  0.000711)
 42:   1040.04   0.000006    0.03  0.000002  ( 0.000406  0.000496  0.001119)
 43:   1043.53   0.000438    2.22  0.000131  ( 0.010201 -0.005197  0.000243)
 44:   1044.03   0.000096    0.48  0.000029  (-0.004475  0.001857  0.002257)
 45:   1078.44   0.005982   30.23  0.001731  ( 0.040063 -0.006370 -0.009234)
 46:   1081.36   0.000597    3.02  0.000172  (-0.004961 -0.001986 -0.011991)
 47:   1128.03   0.004969   25.11  0.001375  ( 0.023623 -0.028485  0.002295)
 48:   1136.63   0.001355    6.85  0.000372  ( 0.005258 -0.017949  0.004720)
 49:   1176.89   0.032047  161.95  0.008498  ( 0.083584 -0.037632 -0.009760)
 50:   1195.80   0.000286    1.45  0.000075  ( 0.008322 -0.001881 -0.001405)
 51:   1196.73   0.000241    1.22  0.000063  ( 0.003680  0.006388 -0.002907)
 52:   1220.51   0.007514   37.97  0.001921  ( 0.041373 -0.011450 -0.008850)
 53:   1226.65   0.000017    0.08  0.000004  ( 0.001866  0.000227  0.000862)
 54:   1274.52   0.002339   11.82  0.000573  ( 0.017800  0.009686  0.012724)
 55:   1313.55   0.000465    2.35  0.000111  (-0.007215 -0.003106  0.006988)
 56:   1345.45   0.078238  395.38  0.018147  ( 0.123302 -0.051808 -0.016098)
 57:   1360.09   0.019726   99.69  0.004526  (-0.065209  0.008506  0.014192)
 58:   1364.97   0.021243  107.36  0.004857  ( 0.063706 -0.027094 -0.008012)
 59:   1374.44   0.004536   22.92  0.001030  ( 0.025599 -0.019325 -0.001100)
 60:   1392.13   0.003769   19.05  0.000845  ( 0.027552 -0.008573 -0.003510)
 61:   1446.44   0.010726   54.20  0.002314  ( 0.033288 -0.020763 -0.027836)
 62:   1522.63   0.001041    5.26  0.000213  (-0.003342  0.010412 -0.009681)
 63:   1523.62   0.006969   35.22  0.001427  ( 0.027870 -0.019053 -0.016963)
 64:   1528.20   0.001712    8.65  0.000350  ( 0.010030  0.009646 -0.012485)
 65:   1570.60   0.000931    4.71  0.000185  (-0.007550  0.011309 -0.000290)
 66:   1575.65   0.000930    4.70  0.000184  (-0.012596 -0.000999 -0.004956)
 67:   1699.33   0.001153    5.82  0.000212  ( 0.010341  0.007482 -0.006982)
 68:   1701.06   0.000100    0.51  0.000018  (-0.001139 -0.003919  0.001329)
 69:   1719.95   0.002913   14.72  0.000528  (-0.020791  0.004504  0.008713)
 70:   1723.26   0.000034    0.17  0.000006  ( 0.001464 -0.000570 -0.001901)
 71:   1854.47   0.051698  261.26  0.008700  (-0.038717 -0.069144  0.049191)
 72:   3155.90   0.005114   25.84  0.000506  ( 0.006918 -0.013266 -0.016787)
 73:   3225.80   0.000217    1.10  0.000021  ( 0.000089 -0.004335  0.001481)
 74:   3242.51   0.000581    2.94  0.000056  ( 0.004318  0.005701  0.002190)
 75:   3251.34   0.000187    0.94  0.000018  ( 0.003062  0.001613  0.002434)
 76:   3251.49   0.000035    0.18  0.000003  ( 0.001122 -0.000158 -0.001438)
 77:   3261.94   0.001720    8.69  0.000165  (-0.003857 -0.012233 -0.000167)
 78:   3263.71   0.001225    6.19  0.000117  ( 0.000447 -0.010284  0.003347)
 79:   3271.17   0.001593    8.05  0.000152  ( 0.004658 -0.007233  0.008832)
 80:   3273.50   0.001289    6.51  0.000123  (-0.009862 -0.000068  0.005056)
 81:   3278.00   0.001318    6.66  0.000126  (-0.009839 -0.003685 -0.003889)
 82:   3285.31   0.000835    4.22  0.000079  (-0.007848  0.003620  0.002153)
 83:   3292.81   0.000431    2.18  0.000041  (-0.004248 -0.003596  0.003147)

* The epsilon (eps) is given for a Dirac delta lineshape.
** The dipole moment derivative (T) already includes vibrational overlap.

The first frequency considered to be a vibration is 6
The total number of vibrations considered is 78


--------------------------
THERMOCHEMISTRY AT 298.15K
--------------------------

Temperature         ...   298.15 K
Pressure            ...     1.00 atm
Total Mass          ...   212.25 AMU
Quasi RRHO          ...     True
Cut-Off Frequency   ...     1.00 cm^-1

Throughout the following assumptions are being made:
  (1) The electronic state is orbitally nondegenerate
  (2) There are no thermally accessible electronically excited states
  (3) Hindered rotations indicated by low frequency modes are not
      treated as such but are treated as vibrations and this may
      cause some error
  (4) All equations used are the standard statistical mechanics
      equations for an ideal gas
  (5) All vibrations are strictly harmonic

freq.      17.29  E(vib)   ...       0.57 
freq.      29.36  E(vib)   ...       0.55 
freq.      38.04  E(vib)   ...       0.54 
freq.      75.97  E(vib)   ...       0.49 
freq.     138.90  E(vib)   ...       0.42 
freq.     154.18  E(vib)   ...       0.40 
freq.     191.75  E(vib)   ...       0.36 
freq.     258.90  E(vib)   ...       0.30 
freq.     313.48  E(vib)   ...       0.25 
freq.     386.70  E(vib)   ...       0.20 
freq.     401.97  E(vib)   ...       0.19 
freq.     419.91  E(vib)   ...       0.18 
freq.     420.28  E(vib)   ...       0.18 
freq.     458.71  E(vib)   ...       0.16 
freq.     482.60  E(vib)   ...       0.15 
freq.     528.54  E(vib)   ...       0.13 
freq.     627.36  E(vib)   ...       0.09 
freq.     642.39  E(vib)   ...       0.09 
freq.     646.11  E(vib)   ...       0.09 
freq.     704.63  E(vib)   ...       0.07 
freq.     715.65  E(vib)   ...       0.07 
freq.     724.88  E(vib)   ...       0.06 
freq.     739.27  E(vib)   ...       0.06 
freq.     788.83  E(vib)   ...       0.05 
freq.     841.09  E(vib)   ...       0.04 
freq.     847.47  E(vib)   ...       0.04 
freq.     863.73  E(vib)   ...       0.04 
freq.     880.35  E(vib)   ...       0.04 
freq.     885.38  E(vib)   ...       0.04 
freq.     963.93  E(vib)   ...       0.03 
freq.     984.74  E(vib)   ...       0.02 
freq.    1016.56  E(vib)   ...       0.02 
freq.    1017.54  E(vib)   ...       0.02 
freq.    1026.52  E(vib)   ...       0.02 
freq.    1028.37  E(vib)   ...       0.02 
freq.    1034.52  E(vib)   ...       0.02 
freq.    1040.04  E(vib)   ...       0.02 
freq.    1043.53  E(vib)   ...       0.02 
freq.    1044.03  E(vib)   ...       0.02 
freq.    1078.44  E(vib)   ...       0.02 
freq.    1081.36  E(vib)   ...       0.02 
freq.    1128.03  E(vib)   ...       0.01 
freq.    1136.63  E(vib)   ...       0.01 
freq.    1176.89  E(vib)   ...       0.01 
freq.    1195.80  E(vib)   ...       0.01 
freq.    1196.73  E(vib)   ...       0.01 
freq.    1220.51  E(vib)   ...       0.01 
freq.    1226.65  E(vib)   ...       0.01 
freq.    1274.52  E(vib)   ...       0.01 
freq.    1313.55  E(vib)   ...       0.01 
freq.    1345.45  E(vib)   ...       0.01 
freq.    1360.09  E(vib)   ...       0.01 
freq.    1364.97  E(vib)   ...       0.01 
freq.    1374.44  E(vib)   ...       0.01 
freq.    1392.13  E(vib)   ...       0.00 
freq.    1446.44  E(vib)   ...       0.00 
freq.    1522.63  E(vib)   ...       0.00 
freq.    1523.62  E(vib)   ...       0.00 
freq.    1528.20  E(vib)   ...       0.00 
freq.    1570.60  E(vib)   ...       0.00 
freq.    1575.65  E(vib)   ...       0.00 
freq.    1699.33  E(vib)   ...       0.00 
freq.    1701.06  E(vib)   ...       0.00 
freq.    1719.95  E(vib)   ...       0.00 
freq.    1723.26  E(vib)   ...       0.00 
freq.    1854.47  E(vib)   ...       0.00 
freq.    3155.90  E(vib)   ...       0.00 
freq.    3225.80  E(vib)   ...       0.00 
freq.    3242.51  E(vib)   ...       0.00 
freq.    3251.34  E(vib)   ...       0.00 
freq.    3251.49  E(vib)   ...       0.00 
freq.    3261.94  E(vib)   ...       0.00 
freq.    3263.71  E(vib)   ...       0.00 
freq.    3271.17  E(vib)   ...       0.00 
freq.    3273.50  E(vib)   ...       0.00 
freq.    3278.00  E(vib)   ...       0.00 
freq.    3285.31  E(vib)   ...       0.00 
freq.    3292.81  E(vib)   ...       0.00 

------------
INNER ENERGY
------------

The inner energy is: U= E(el) + E(ZPE) + E(vib) + E(rot) + E(trans)
    E(el)   - is the total energy from the electronic structure calculation
              = E(kin-el) + E(nuc-el) + E(el-el) + E(nuc-nuc)
    E(ZPE)  - the the zero temperature vibrational energy from the frequency calculation
    E(vib)  - the the finite temperature correction to E(ZPE) due to population
              of excited vibrational states
    E(rot)  - is the rotational thermal energy
    E(trans)- is the translational thermal energy

Summary of contributions to the inner energy U:
Electronic energy                ...   -119.08548589 Eh
Zero point energy                ...      0.23056968 Eh     144.68 kcal/mol
Thermal vibrational correction   ...      0.00993998 Eh       6.24 kcal/mol
Thermal rotational correction    ...      0.00141627 Eh       0.89 kcal/mol
Thermal translational correction ...      0.00141627 Eh       0.89 kcal/mol
-----------------------------------------------------------------------
Total thermal energy                   -118.84214369 Eh


Summary of corrections to the electronic energy:
(perhaps to be used in another calculation)
Total thermal correction                  0.01277252 Eh       8.01 kcal/mol
Non-thermal (ZPE) correction              0.23056968 Eh     144.68 kcal/mol
-----------------------------------------------------------------------
Total correction                          0.24334220 Eh     152.70 kcal/mol


--------
ENTHALPY
--------

The enthalpy is H = U + kB*T
                kB is Boltzmann's constant
Total thermal energy              ...   -118.84214369 Eh 
Thermal Enthalpy correction       ...      0.00094421 Eh       0.59 kcal/mol
-----------------------------------------------------------------------
Total Enthalpy                    ...   -118.84119948 Eh


Note: Only C1 symmetry has been detected, increase convergence thresholds 
      if your molecule has a higher symmetry. Symmetry factor of 1.0 is   
      used for the rotational entropy correction. 
 

Note: Rotational entropy computed according to Herzberg 
Infrared and Raman Spectra, Chapter V,1, Van Nostrand Reinhold, 1945 
Point Group:  C1, Symmetry Number:   1  
Rotational constants in cm-1:     0.042234     0.008497     0.008197 

Vibrational entropy computed according to the QRRHO of S. Grimme
Chem.Eur.J. 2012 18 9955 using a reference frequency of 100.0 cm-1


-------
ENTROPY
-------

The entropy contributions are T*S = T*(S(el)+S(vib)+S(rot)+S(trans))
     S(el)   - electronic entropy
     S(vib)  - vibrational entropy
     S(rot)  - rotational entropy
     S(trans)- translational entropy
The entropies will be listed as multiplied by the temperature to get
units of energy

Electronic entropy                ...      0.00000000 Eh      0.00 kcal/mol
Vibrational entropy               ...      0.01765966 Eh     11.08 kcal/mol
Rotational entropy                ...      0.01552364 Eh      9.74 kcal/mol
Translational entropy             ...      0.01993711 Eh     12.51 kcal/mol
-----------------------------------------------------------------------
Final entropy term                ...      0.05312041 Eh     33.33 kcal/mol

In case the symmetry of your molecule has not been determined correctly
or in case you have a reason to use a different symmetry number we print 
out the resulting rotational entropy values for sn=1,12:

 non-linear molecules -----------------------------------
|  sn= 1 | S(rot)=       0.01552364 Eh      9.74 kcal/mol|
|  sn= 2 | S(rot)=       0.01486919 Eh      9.33 kcal/mol|
|  sn= 3 | S(rot)=       0.01448635 Eh      9.09 kcal/mol|
|  sn= 4 | S(rot)=       0.01421473 Eh      8.92 kcal/mol|
|  sn= 5 | S(rot)=       0.01400404 Eh      8.79 kcal/mol|
|  sn= 6 | S(rot)=       0.01383190 Eh      8.68 kcal/mol|
|  sn= 7 | S(rot)=       0.01368635 Eh      8.59 kcal/mol|
|  sn= 8 | S(rot)=       0.01356027 Eh      8.51 kcal/mol|
|  sn= 9 | S(rot)=       0.01344906 Eh      8.44 kcal/mol|
|  sn=10 | S(rot)=       0.01334958 Eh      8.38 kcal/mol|
|  sn=11 | S(rot)=       0.01325959 Eh      8.32 kcal/mol|
|  sn=12 | S(rot)=       0.01317744 Eh      8.27 kcal/mol|
 linear molecules ---------------------------------------
|  Dinfh | S(rot)=       0.00986169 Eh      6.19 kcal/mol|
|  Cinfv | S(rot)=       0.01051615 Eh      6.60 kcal/mol|
 --------------------------------------------------------


-------------------
GIBBS FREE ENERGY
-------------------

The Gibbs free energy is G = H - T*S

Total enthalpy                    ...   -118.84119948 Eh 
Total entropy correction          ...     -0.05312041 Eh    -33.33 kcal/mol
-----------------------------------------------------------------------
Final Gibbs free energy         ...   -118.89431989 Eh

For completeness - the Gibbs free energy minus the electronic energy
G-E(el)                           ...      0.19116600 Eh    119.96 kcal/mol


Maximum memory used throughout the entire PROP-calculation: 156.2 MB

--------------------------------
SUGGESTED CITATIONS FOR THIS RUN
--------------------------------

Below you find a list of papers that are relevant to this ORCA run
We neither can nor want to force you to cite these papers, but we appreciate if you do
You receive ORCA, which is the product of decades of hard work by many enthusiastic individuals, for free
The only thing we kindly ask in return is that you cite our papers,
We deeply appreciate it, if you show your appreciation for ORCA by not just citing the generic ORCA reference.

Please note that relegating all ORCA citations to the supporting information does *not* help us.
SI sections are not indexed - citations you put there will not count into any citation statistics
But we need these citations in order to attract the funding resources that allow us to do what we are doing

Therefore, if you are a happy ORCA user, please consider citing a few of the papers listed below in the main body of your paper

In addition to the list printed below, the program has created the file ./output/benzyl_benzoate/benzyl_benzoate.bibtex that contains the list in bibtex format
You can import this file easily into all common literature databanks and citation aid programs


List of essential papers. We consider these as the minimum necessary citations

  1. Neese,F.
     Software update: the ORCA program system, version 5.0
     WIRES Comput. Molec. Sci., 2022 12(1)e1606
     doi.org/10.1002/wcms.1606
  2. Mueller,M.; Hansen,A.; Grimme,S.
     wB97X-3c: A composite range-separated hybrid DFT method with a molecule-optimized polarized valence double-zeta basis set
     J. Chem. Phys., 2023 158 014103
     doi.org/10.1063/5.0133026

List of papers to cite with high priority. The work reported in these papers was absolutely
necessary for this run to complete.
Our perspective: the developers of density functionals and basis sets usually get cited in chemistry papers
Good! But without the algorithms to do something with them, the functionals or basis sets would not do anything.
Hence, in our opinion, the algorithm design and method developments papers are equally worthy of getting cited

  1. Neese,F.
     An improvement of the resolution of the identity approximation for the formation of the Coulomb matrix
     J. Comp. Chem., 2003 24(14)1740-1747
     doi.org/10.1002/jcc.10318
  2. Neese,F.; Wennmohs,F.; Hansen,A.; Becker,U.
     Efficient, approximate and parallel Hartree-Fock and hybrid DFT calculations. A 'chain-of-spheres' algorithm for the Hartree-Fock exchange
     Chem. Phys., 2009 356(1-3)98-109
     doi.org/10.1016/j.chemphys.2008.10.036
  3. Bykov,D.; Petrenko,T.; Izsak,R.; Kossmann,S.; Becker,U.; Valeev,E.; Neese,F.
     Efficient implementation of the analytic second derivatives of Hartree-Fock and hybrid DFT energies: a detailed analysis of different approximations
     Molec. Phys., 2015 113 1961-1977
     doi.org/10.1080/00268976.2015.1025114
  4. Helmich-Paris,B.; de Souza,B.; Neese,F.; Izsák,R.
     An improved chain of spheres for exchange algorithm
     J. Chem. Phys., 2021 155 104109
     doi.org/doi: 10.1063/5.0058766.
  5. Neese,F.
     The SHARK Integral Generation and Digestion System
     J. Comp. Chem., 2022  1-16
     doi.org/10.1002/jcc.26942
  6. Caldeweyher,E.; Bannwarth,C.; Grimme,S.
     Extension of the D3 dispersion coefficient model
     J. Chem. Phys., 2017 147 034112
     doi.org/10.1063/1.4993215
  7. Caldeweyher,E.; Ehlert,S.; Hansen,A.; Neugebauer,H.; Spicher,S.; Bannwarth,C.; Grimme,S.
     A generally applicable atomic-charge dependent London dispersion correction
     J. Chem. Phys., 2019 150 154122
     doi.org/10.1063/1.5090222
  8. Caldeweyher,E.; Mewes,J.; Ehlert,S.; Grimme,S.
     Extension and evaluation of the D4 London-dispersion model for periodic systems
     Phys. Chem. Chem. Phys., 2020 22(16)8499-8512
     doi.org/10.1039/D0CP00502A
  9. Wittmann,L.; Gordiy,I.; Friede,M.; Helmich-Paris,B.; Grimme,S.; Hansen,A.; Bursch,M.
     Extension of the D3 and D4 London Dispersion Corrections to the full Actinides Series
     Phys. Chem. Chem. Phys., 2024 26(32)21379-21394
     doi.org/https://doi.org/10.1039/D4CP01514B 

List of suggested additional citations. These are papers that are important in the 'surrounding' of 
of this run, or papers that preceded the highly important papers. If you like your results we are grateful for a citation.

  1. Izsak,R.; Neese,F.
     An overlap fitted chain of spheres exchange method
     J. Chem. Phys., 2011 135 144105
     doi.org/10.1063/1.3646921
  2. Izsak,R.; Hansen,A.; Neese,F.
     The resolution of identity and chain of spheres approximations for the LPNO-CCSD singles Fock term
     Molec. Phys., 2012 110 2413-2417
     doi.org/10.1080/00268976.2012.687466
  3. Neese,F.
     The ORCA program system
     WIRES Comput. Molec. Sci., 2012 2(1)73-78
     doi.org/10.1002/wcms.81
  4. Izsak,R.; Neese,F.; Klopper,W.
     Robust fitting techniques in the chain of spheres approximation to the Fock exchange: The role of the complementary space
     J. Chem. Phys., 2013 139 
     doi.org/10.1063/1.4819264
  5. Neese,F.
     Software update: the ORCA program system, version 4.0
     WIRES Comput. Molec. Sci., 2018 8(1)1-6
     doi.org/10.1002/wcms.1327
  6. Neese,F.; Wennmohs,F.; Becker,U.; Riplinger,C.
     The ORCA quantum chemistry program package
     J. Chem. Phys., 2020 152 Art. No. L224108
     doi.org/10.1063/5.0004608

List of optional additional citations

  1. Neese,F.
     Approximate second-order SCF convergence for spin unrestricted wavefunctions
     Chem. Phys. Lett., 2000 325(1-3)93-98
     doi.org/10.1016/s0009-2614(00)00662-x

Timings for individual modules:

Sum of individual times          ...     1125.361 sec (=  18.756 min)
Startup calculation              ...       59.381 sec (=   0.990 min)   5.3 %
SCF iterations                   ...      688.456 sec (=  11.474 min)  61.2 %
Property integrals               ...       68.583 sec (=   1.143 min)   6.1 %
SCF Response                     ...       57.419 sec (=   0.957 min)   5.1 %
Property calculations            ...      122.260 sec (=   2.038 min)  10.9 %
SCF Gradient evaluation          ...      128.892 sec (=   2.148 min)  11.5 %
Geometry relaxation              ...        0.369 sec (=   0.006 min)   0.0 %
                             ****ORCA TERMINATED NORMALLY****
TOTAL RUN TIME: 0 days 0 hours 18 minutes 51 seconds 862 msec
