
                                 *****************
                                 * O   R   C   A *
                                 *****************

                                            #,                                       
                                            ###                                      
                                            ####                                     
                                            #####                                    
                                            ######                                   
                                           ########,                                 
                                     ,,################,,,,,                         
                               ,,#################################,,                 
                          ,,##########################################,,             
                       ,#########################################, ''#####,          
                    ,#############################################,,   '####,        
                  ,##################################################,,,,####,       
                ,###########''''           ''''###############################       
              ,#####''   ,,,,##########,,,,          '''####'''          '####       
            ,##' ,,,,###########################,,,                        '##       
           ' ,,###''''                  '''############,,,                           
         ,,##''                                '''############,,,,        ,,,,,,###''
      ,#''                                            '''#######################'''  
     '                                                          ''''####''''         
             ,#######,   #######,   ,#######,      ##                                
            ,#'     '#,  ##    ##  ,#'     '#,    #''#        ,####,   ,####,        
            ##       ##  ##   ,#'  ##            #'  '#       #'       #'  '#        
            ##       ##  #######   ##           ,######,      #####,   #    #        
            '#,     ,#'  ##    ##  '#,     ,#' ,#      #,     #,   #   #,  ,#        
             '#######'   ##     ##  '#######'  #'      '#     '####' # '####'        



                #########################################################
                #                        -***-                          #
                #          Department of theory and spectroscopy        #
                #                                                       #
                #                      Frank Neese                      #
                #                                                       #
                #     Directorship, Architecture, Infrastructure        #
                #                    SHARK, DRIVERS                     #
                #        Core code/Algorithms in most modules           #
                #                                                       #
                #        Max Planck Institute fuer Kohlenforschung      #
                #                Kaiser Wilhelm Platz 1                 #
                #                 D-45470 Muelheim/Ruhr                 #
                #                      Germany                          #
                #                                                       #
                #                  All rights reserved                  #
                #                        -***-                          #
                #########################################################


                         Program Version 6.0.1  -  RELEASE   -


 With contributions from (in alphabetic order):
[Max-Planck-Institut fuer Kohlenforschung]                               
  Daniel Aravena         : Magnetic Suceptibility                        
  Michael Atanasov       : Ab Initio Ligand Field Theory (pilot matlab implementation)
  Alexander A. Auer      : GIAO ZORA, VPT2 properties, NMR spectrum      
  Ute Becker             : All parallelization in ORCA, NUMFREQ, NUMCALC 
  Giovanni Bistoni       : ED, misc. LED, open-shell LED, HFLD           
  Martin Brehm           : Molecular dynamics                            
  Dmytro Bykov           : pre 5.0 version of the SCF Hessian            
  Marcos Casanova-Páez   : Triplet and SCS-CIS(D). UHF-(DLPNO)-IP/EA/STEOM-CCSD. UHF-CVS-IP/STEOM-CCSD   
  Vijay G. Chilkuri      : MRCI spin determinant printing, contributions to CSF-ICE 
  Pauline Colinet        : FMM embedding                                 
  Dipayan Datta          : RHF DLPNO-CCSD density                        
  Achintya Kumar Dutta   : EOM-CC, STEOM-CC                              
  Nicolas Foglia         : Exact transition moments, OPA infrastructure, MCD improvements    
  Dmitry Ganyushin       : Spin-Orbit,Spin-Spin,Magnetic field MRCI      
  Miquel Garcia-Rates    : C-PCM and meta-GGA Hessian, CCSD/C-PCM, Gaussian charge scheme 
  Tiago L. C. Gouveia    : GS-ROHF, GS-ROCIS                             
  Yang Guo               : DLPNO-NEVPT2, F12-NEVPT2, CIM, IAO-localization        
  Andreas Hansen         : Spin unrestricted coupled pair/coupled cluster methods 
  Ingolf Harden          : AUTO-CI MPn and infrastructure                
  Benjamin Helmich-Paris : MC-RPA, TRAH-(SCF,CASSCF), AVAS, COSX integrals, SCF dyn. polar. 
  Lee Huntington         : MR-EOM, pCC                                   
  Robert Izsak           : Overlap fitted RIJCOSX, COSX-SCS-MP3, EOM     
  Riya Kayal             : Wick's Theorem for AUTO-CI, AUTO-CI UHF-CCSDT 
  Emily Kempfer          : AUTO-CI, RHF CISDT and CCSDT                  
  Christian Kollmar      : KDIIS, OOCD, Brueckner-CCSD(T), CCSD density, CASPT2, CASPT2-K, improved NEVPT2 
  Axel Koslowski         : Symmetry handling                             
  Simone Kossmann        : meta-GGA functionals, TD-DFT gradient, OOMP2, (MP2 Hessian; deprecated post 5.0) 
  Lucas Lang             : DCDCAS                                        
  Marvin Lechner         : AUTO-CI (C++ implementation), FIC-MRCC        
  Spencer Leger          : CASSCF response                               
  Dagmar Lenk            : GEPOL surface, SMD, ORCA-2-JSON               
  Dimitrios Liakos       : Extrapolation schemes; Compound Job, initial MDCI parallelization 
  Dimitrios Manganas     : Further ROCIS development; embedding schemes. LFT, Crystal Embedding 
  Dimitrios Pantazis     : SARC Basis sets                               
  Anastasios Papadopoulos: AUTO-CI, single reference methods and gradients 
  Taras Petrenko         : pre 6.0 DFT Hessian and TD-DFT gradient, (ASA, deprecated), ECA, 1-Electron XAS/XES, NRVS 
  Peter Pinski           : DLPNO-MP2, DLPNO-MP2 Gradient                 
  Christoph Reimann      : Effective Core Potentials                     
  Marius Retegan         : Local ZFS, SOC                                
  Christoph Riplinger    : Optimizer, TS searches, QM/MM, DLPNO-CCSD(T), (RO)-DLPNO pert. Triples 
  Michael Roemelt        : Original ROCIS implementation                 
  Masaaki Saitow         : Open-shell DLPNO-CCSD energy and density      
  Barbara Sandhoefer     : DKH picture change effects                    
  Kantharuban Sivalingam : CASSCF convergence/infrastructure, NEVPT2 and variants, FIC-MRCI 
  Bernardo de Souza      : ESD, SOC TD-DFT                               
  Georgi L. Stoychev     : AutoAux, RI-MP2 NMR, DLPNO-MP2 response, X2C  
  Van Anh Tran           : RI-MP2 g-tensors                              
  Willem Van den Heuvel  : Paramagnetic NMR                              
  Zikuan Wang            : NOTCH, Electric field optimization            
  Frank Wennmohs         : Technical directorship and infrastructure     
  Hang Xu                : AUTO-CI-Response properties                   
                                                                         
[FACCTs GmbH]                                                            
  Markus Bursch, Miquel Garcia-Rates, Christoph Riplinger, Bernardo de Souza, Georgi L. Stoychev 
                                                                 
  APM, Basis sets (HGBS, AHGBS, def-TZVP (Ac-Lr), def2-XVPD (La-Lu)), CI-OPT, improved COSX, DLPNO-Multilevel,           
  DOCKER, DRACO, updates on ESD, GOAT, IRC, LR-CPCM, MBIS, meta-GGA TD-DFT gradient, ML-optimized integration grids, 
  MM, NACMEs, nearIR, NEB, NEB-TS, NL-DFT gradient (VV10), 2- and 3-layer-ONIOM, interface openCOSMO-RS, QMMM,   
  Crystal-QMMM, SF, symmetry and pop. for TD-DFT, r2SCAN hybrids, SOLVATOR                                   
                                                                         
[Other institutions]                                                     
  V. Asgeirsson          : NEB                                           
  Christoph Bannwarth    : sTDA-DFT, sTD-DFT, PBEh-3c, B97-3c, D3        
  Sebastian Ehlert       : rSCAN, r2SCAN, r2SCAN-3c, D4, dhf basis sets  
  Marvin Friede          : D4 for Fr, Ra, Ac-Lr                          
  Lars Goerigk           : TD-DFT with DH, B97 family of functionals     
  Stefan Grimme          : VdW corrections, initial TS optimization, DFT functionals, gCP, sTDA/sTD-DF 
  Waldemar Hujo          : DFT-NL                                        
  H. Jonsson             : NEB                                           
  Holger Kruse           : gCP                                           
  Marcel Mueller         : wB97X-3c, vDZP basis set                      
  Hagen Neugebauer       : wr2SCAN                                       
  Tobias Risthaus        : range-separated hybrid DFT                    
  Lukas Wittmann         : regularized MP2, r2SCAN double-hybrids, wr2SCAN        
                                                                         
We gratefully acknowledge several colleagues who have allowed us to      
interface, adapt or use parts of their codes:                            
  Ed Valeev, F. Pavosevic, A. Kumar             : LibInt (2-el integral package), F12 methods 
  Garnet Chan, S. Sharma, J. Yang, R. Olivares  : DMRG                   
  Ulf Ekstrom                                   : XCFun DFT Library      
  Mihaly Kallay                                 : mrcc  (arbitrary order and MRCC methods)
  Frank Weinhold                                : gennbo (NPA and NBO analysis)           
  Simon Mueller                                 : openCOSMO-RS                            
  Christopher J. Cramer and Donald G. Truhlar   : smd solvation model                     
  S Lehtola, MJT Oliveira, MAL Marques          : LibXC Library                           
  Liviu Ungur et al                             : ANISO software                          


 Your calculation uses the libint2 library for the computation of 2-el integrals
 For citations please refer to: http://libint.valeyev.net

 Your ORCA version has been built with support for libXC version: 6.2.2
 For citations please refer to: https://libxc.gitlab.io

 This ORCA versions uses:
   CBLAS   interface :  Fast vector & matrix operations
   LAPACKE interface :  Fast linear algebra routines
   SCALAPACK package :  Parallel linear algebra routines
   Shared memory     :  Shared parallel matrices
   BLAS/LAPACK       :  OpenBLAS 0.3.27  USE64BITINT DYNAMIC_ARCH NO_AFFINITY SkylakeX SINGLE_THREADED
        Core in use  :  SkylakeX
   Copyright (c) 2011-2014, The OpenBLAS Project


Your calculation utilizes the atom-pairwise dispersion correction
based on EEQ partial charges (D4)


================================================================================

cite the ECPs for C  [vDZP-ECP], O  [vDZP-ECP] as follows:
   B-Ne (ecp-2-mwb), Al-Ar (ecp-10-mwb), Ga-Kr (ecp-28-mwb), Y-Cd (ecp-28-mwb), In-Xe (ecp-46-mwb):
     A. Bergner, M. Dolg, W. Küchle, H. Stoll, and H. Preuß, Mol. Phys. 80, 1431 (1993)., T. Leininger, A. Berning, A. Nicklass, H. Stoll, H.-J. Werner, and H.-J.Flad, Chem. Phys. 217, 19 (1997).
   Na-Mg, K-Ca, Rb-Sr, Cs-Ba (CRENBL):
     L. Fernandez Pacios and P. A. Christiansen, J. Chem. Phys. 82, 2664 (1985)., M. M. Hurley, L. F. Pacios, P. A. Christiansen, R. B. Ross, and W. C. Ermler, J. Chem. Phys. 84, 6840 (1986)., L. A. LaJohn, P. A. Christiansen, R. B. Ross, T. Atashroo, and W. C. Ermler, J. Chem. Phys. 87, 2812 (1987)., R. B. Ross, J. M. Powers, T. Atashroo, W. C. Ermler, L. A. LaJohn, and P. A. Christiansen, J. Chem. Phys. 93, 6654 (1990). 
   Sc-Zn (ecp-10-mdf):
     M. Dolg, U. Wedig, H. Stoll, and H. Preuss, J. Chem. Phys. 86, 866 (1986). 
   Y-Cd (ecp-28-mwb), Hf-Hg (ecp-60-mwb):
     D. Andrae, U. Häußermann, M. Dolg, H. Stoll, and H. Preuß, Theor. Chim. Acta 77, 123 (1990). 
   La (ecp-46-mwb):
     M. Dolg, H. Stoll, and H. Preuss, J. Chem. Phys. 90, 1730 (1989)., M. Dolg, H. Stoll, and H. Preuss, Theor. Chim. Acta 85, 441 (1993).
   Ce-Lu (SBKJC-ecp):
     T. R. Cundari and W. J. Stevens, J. Chem. Phys. 98, 5555 (1993).
   Tl-Rn (ecp-78-mwb):
     W. Küchle, M. Dolg, H. Stoll, and H. Preuss, Mol. Phys. 74, 1245 (1991).

ECP parameters for C  [vDZP-ECP], O  [vDZP-ECP] have been obtained from:
MM, AH, SG, J. Chem. Phys. 158, 014103 (2023), 10.1063/5.0133026

----- Orbital basis set information -----
Your calculation utilizes the basis: vDZP
   Marcel Mueller, Andreas Hansen, Stefan Grimme 
   J. Chem. Phys. 158, 014103 (2023). DOI: 10.1063/5.0133026

----- AuxJ basis set information -----
Your calculation utilizes the auxiliary basis: def2/J
   F. Weigend, Phys. Chem. Chem. Phys. 8, 1057 (2006).

================================================================================
                                        WARNINGS
                       Please study these warnings very carefully!
================================================================================

WARNING: Frozen-Core approximation turned on, but there are no core electrons.
  ===> : Turning off frozen-core approximation


WARNING: Geometry Optimization
  ===> : Switching off AutoStart
         For restart on a previous wavefunction, please use MOREAD

================================================================================
                                       INPUT FILE
================================================================================
NAME = ./output/butyric_acid/butyric_acid.inp
|  1> ! wB97X-3c OPT FREQ TightSCF
|  2> %pal
|  3>   nprocs 40
|  4> end
|  5> * xyz 0 1
|  6> C     -1.486177     0.764071     0.414085
|  7> C     -0.817620    -0.056422    -0.688579
|  8> C      0.255261    -1.005644    -0.140458
|  9> C      1.444265    -0.256638     0.378201
| 10> O      1.596262    -0.091438     1.618182
| 11> O      2.366174     0.282397    -0.513570
| 12> H     -1.936764     0.093180     1.176150
| 13> H     -0.748559     1.434154     0.903758
| 14> H     -2.290314     1.390336    -0.026420
| 15> H     -1.597946    -0.660640    -1.199910
| 16> H     -0.371641     0.628028    -1.443088
| 17> H      0.592443    -1.676740    -0.959212
| 18> H     -0.174687    -1.646312     0.660533
| 19> H      3.169303     0.801668    -0.179671
| 20> *
| 21> 
| 22>                          ****END OF INPUT****
================================================================================

                       *****************************
                       * Geometry Optimization Run *
                       *****************************

Geometry optimization settings:
Update method            Update   .... BFGS
Choice of coordinates    CoordSys .... (2022) Redundant Internals
Initial Hessian          InHess   .... Almloef's Model
Max. no of cycles        MaxIter  .... 50

Convergence Tolerances:
Energy Change            TolE     ....  5.0000e-06 Eh
Max. Gradient            TolMAXG  ....  3.0000e-04 Eh/bohr
RMS Gradient             TolRMSG  ....  1.0000e-04 Eh/bohr
Max. Displacement        TolMAXD  ....  4.0000e-03 bohr
RMS Displacement         TolRMSD  ....  2.0000e-03 bohr
Strict Convergence                .... False

------------------------------------------------------------------------------
                        ORCA OPTIMIZATION COORDINATE SETUP
------------------------------------------------------------------------------

The optimization will be done in redundant internal coordinates (2022)
Making redundant internal coordinates   ...  (2022 redundants) done
Evaluating the initial hessian          ...  (Almloef) done
Evaluating the coordinates              ...  done
Calculating the B-matrix                .... done
Calculating the G-matrix                .... done
Diagonalizing the G-matrix              .... done
The first mode is                       ....   18
The number of degrees of freedom        ....   36

    -----------------------------------------------------------------
                    Redundant Internal Coordinates


    -----------------------------------------------------------------
         Definition                    Initial Value    Approx d2E/dq
    -----------------------------------------------------------------
      1. B(C   1,C   0)                  1.5284         0.375760   
      2. B(C   2,C   1)                  1.5338         0.368400   
      3. B(C   3,C   2)                  1.4979         0.420308   
      4. B(O   4,C   3)                  1.2601         0.901701   
      5. B(O   5,C   3)                  1.3913         0.556920   
      6. B(H   6,C   0)                  1.1108         0.333615   
      7. B(H   7,C   0)                  1.1103         0.334164   
      8. B(H   8,C   0)                  1.1104         0.334155   
      9. B(H   9,C   1)                  1.1115         0.332744   
     10. B(H  10,C   1)                  1.1120         0.332082   
     11. B(H  11,C   2)                  1.1110         0.333310   
     12. B(H  12,C   2)                  1.1122         0.331948   
     13. B(H  13,O   5)                  1.0130         0.427982   
     14. A(C   1,C   0,H   8)          109.4725         0.320675   
     15. A(C   1,C   0,H   7)          110.5821         0.320677   
     16. A(H   6,C   0,H   8)          108.6058         0.284050   
     17. A(C   1,C   0,H   6)          110.3746         0.320590   
     18. A(H   6,C   0,H   7)          109.3544         0.284051   
     19. A(H   7,C   0,H   8)          108.4021         0.284123   
     20. A(C   0,C   1,H  10)          109.5424         0.320349   
     21. A(C   2,C   1,H   9)          108.6057         0.319420   
     22. A(C   0,C   1,H   9)          108.4588         0.320453   
     23. A(C   2,C   1,H  10)          110.0503         0.319316   
     24. A(H   9,C   1,H  10)          107.6982         0.283660   
     25. A(C   0,C   1,C   2)          112.3573         0.362848   
     26. A(C   1,C   2,C   3)          111.6861         0.369881   
     27. A(H  11,C   2,H  12)          107.4643         0.283718   
     28. A(C   3,C   2,H  12)          110.2144         0.326269   
     29. A(C   1,C   2,H  12)          110.0882         0.319295   
     30. A(C   3,C   2,H  11)          108.4392         0.326489   
     31. A(C   1,C   2,H  11)          108.8292         0.319508   
     32. A(C   2,C   3,O   4)          120.1332         0.430131   
     33. A(O   4,C   3,O   5)          119.9994         0.449576   
     34. A(C   2,C   3,O   5)          119.8522         0.394883   
     35. A(C   3,O   5,H  13)          120.8423         0.351545   
     36. D(H   9,C   1,C   0,H   7)   -176.1544         0.011267   
     37. D(C   2,C   1,C   0,H   7)     63.7802         0.011267   
     38. D(H   9,C   1,C   0,H   8)    -56.7849         0.011267   
     39. D(C   2,C   1,C   0,H   8)   -176.8503         0.011267   
     40. D(H   9,C   1,C   0,H   6)     62.7078         0.011267   
     41. D(C   2,C   1,C   0,H   6)    -57.3576         0.011267   
     42. D(C   3,C   2,C   1,C   0)    -68.7420         0.010855   
     43. D(H  11,C   2,C   1,H  10)    -66.0742         0.010855   
     44. D(H  11,C   2,C   1,H   9)     51.5924         0.010855   
     45. D(H  11,C   2,C   1,C   0)    171.5726         0.010855   
     46. D(C   3,C   2,C   1,H  10)     53.6113         0.010855   
     47. D(C   3,C   2,C   1,H   9)    171.2779         0.010855   
     48. D(O   4,C   3,C   2,H  12)    -20.5379         0.013062   
     49. D(O   4,C   3,C   2,H  11)   -137.9176         0.013062   
     50. D(O   4,C   3,C   2,C   1)    102.1673         0.013062   
     51. D(O   5,C   3,C   2,H  11)     43.4970         0.013062   
     52. D(O   5,C   3,C   2,C   1)    -76.4181         0.013062   
     53. D(H  13,O   5,C   3,O   4)      0.6347         0.022459   
     54. D(H  13,O   5,C   3,C   2)    179.2220         0.022459   
    -----------------------------------------------------------------

Number of atoms                         .... 14
Number of degrees of freedom            .... 54


         *************************************************************
         *                GEOMETRY OPTIMIZATION CYCLE   1            *
         *************************************************************
---------------------------------
CARTESIAN COORDINATES (ANGSTROEM)
---------------------------------
  C     -1.486177    0.764071    0.414085
  C     -0.817620   -0.056422   -0.688579
  C      0.255261   -1.005644   -0.140458
  C      1.444265   -0.256638    0.378201
  O      1.596262   -0.091438    1.618182
  O      2.366174    0.282397   -0.513570
  H     -1.936764    0.093180    1.176150
  H     -0.748559    1.434154    0.903758
  H     -2.290314    1.390336   -0.026420
  H     -1.597946   -0.660640   -1.199910
  H     -0.371641    0.628028   -1.443088
  H      0.592443   -1.676740   -0.959212
  H     -0.174687   -1.646312    0.660533
  H      3.169303    0.801668   -0.179671

----------------------------
CARTESIAN COORDINATES (A.U.)
----------------------------
  NO LB      ZA    FRAG     MASS         X           Y           Z
   0 C     4.0000*   0    12.011   -2.808468    1.443885    0.782507
   1 C     4.0000*   0    12.011   -1.545078   -0.106622   -1.301226
   2 C     4.0000*   0    12.011    0.482373   -1.900392   -0.265427
   3 C     4.0000*   0    12.011    2.729265   -0.484976    0.714696
   4 O     6.0000*   0    15.999    3.016498   -0.172793    3.057921
   5 O     6.0000*   0    15.999    4.471421    0.533653   -0.970507
   6 H     1.0000    0     1.008   -3.659954    0.176085    2.222601
   7 H     1.0000    0     1.008   -1.414572    2.710158    1.707855
   8 H     1.0000    0     1.008   -4.328066    2.627354   -0.049927
   9 H     1.0000    0     1.008   -3.019680   -1.248429   -2.267501
  10 H     1.0000    0     1.008   -0.702300    1.186801   -2.727041
  11 H     1.0000    0     1.008    1.119555   -3.168579   -1.812648
  12 H     1.0000    0     1.008   -0.330111   -3.111079    1.248226
  13 H     1.0000    0     1.008    5.989115    1.514933   -0.339529
* core charge reduced due to ECP

--------------------------------
INTERNAL COORDINATES (ANGSTROEM)
--------------------------------
 C      0   0   0     0.000000000000     0.00000000     0.00000000
 C      1   0   0     1.528412615165     0.00000000     0.00000000
 C      2   1   0     1.533796817080   112.35732094     0.00000000
 C      3   2   1     1.497914436252   111.68612080   291.25804082
 O      4   3   2     1.260137694210   120.13324125   102.16727455
 O      4   3   2     1.391305305081   119.85219897   283.58191282
 H      1   2   3     1.110795409909   110.37457722   302.64241818
 H      1   2   3     1.110347327525   110.58211201    63.78017065
 H      1   2   3     1.110355267479   109.47246672   183.14971956
 H      2   1   3     1.111506837298   108.45876231   120.06538079
 H      2   1   3     1.112048965658   109.54236346   237.35977457
 H      3   2   1     1.111044398238   108.82915274   171.57255480
 H      3   2   1     1.112158869501   110.08818160    54.03523135
 H      6   4   3     1.012989192580   120.84232539   179.22200843

---------------------------
INTERNAL COORDINATES (A.U.)
---------------------------
 C      0   0   0     0.000000000000     0.00000000     0.00000000
 C      1   0   0     2.888281262291     0.00000000     0.00000000
 C      2   1   0     2.898455929362   112.35732094     0.00000000
 C      3   2   1     2.830648056564   111.68612080   291.25804082
 O      4   3   2     2.381315133089   120.13324125   102.16727455
 O      4   3   2     2.629185995275   119.85219897   283.58191282
 H      1   2   3     2.099099115545   110.37457722   302.64241818
 H      1   2   3     2.098252362554   110.58211201    63.78017065
 H      1   2   3     2.098267366893   109.47246672   183.14971956
 H      2   1   3     2.100443518475   108.45876231   120.06538079
 H      2   1   3     2.101467992605   109.54236346   237.35977457
 H      3   2   1     2.099569635297   108.82915274   171.57255480
 H      3   2   1     2.101675680768   110.08818160    54.03523135
 H      6   4   3     1.914272150597   120.84232539   179.22200843

---------------------
BASIS SET INFORMATION
---------------------
There are 3 groups of distinct atoms

 Group   1 Type C   : 6s6p2d contracted to 2s2p1d pattern {42/42/2}
 Group   2 Type O   : 6s6p2d contracted to 2s2p1d pattern {42/42/2}
 Group   3 Type H   : 8s2p contracted to 2s1p pattern {53/2}

Atom   0C    basis set group =>   1
Atom   1C    basis set group =>   1
Atom   2C    basis set group =>   1
Atom   3C    basis set group =>   1
Atom   4O    basis set group =>   2
Atom   5O    basis set group =>   2
Atom   6H    basis set group =>   3
Atom   7H    basis set group =>   3
Atom   8H    basis set group =>   3
Atom   9H    basis set group =>   3
Atom  10H    basis set group =>   3
Atom  11H    basis set group =>   3
Atom  12H    basis set group =>   3
Atom  13H    basis set group =>   3
---------------------------------
AUXILIARY/J BASIS SET INFORMATION
---------------------------------
There are 3 groups of distinct atoms

 Group   1 Type C   : 12s5p4d2f1g contracted to 6s4p3d1f1g pattern {711111/2111/211/2/1}
 Group   2 Type O   : 12s5p4d2f1g contracted to 6s4p3d1f1g pattern {711111/2111/211/2/1}
 Group   3 Type H   : 5s2p1d contracted to 3s1p1d pattern {311/2/1}

Atom   0C    basis set group =>   1
Atom   1C    basis set group =>   1
Atom   2C    basis set group =>   1
Atom   3C    basis set group =>   1
Atom   4O    basis set group =>   2
Atom   5O    basis set group =>   2
Atom   6H    basis set group =>   3
Atom   7H    basis set group =>   3
Atom   8H    basis set group =>   3
Atom   9H    basis set group =>   3
Atom  10H    basis set group =>   3
Atom  11H    basis set group =>   3
Atom  12H    basis set group =>   3
Atom  13H    basis set group =>   3
-------------------------
ECP PARAMETER INFORMATION
-------------------------

 Group 1, Type C  ECP vDZP-ECP (replacing 2 core electrons, lmax=3)
 Group 2, Type O  ECP vDZP-ECP (replacing 2 core electrons, lmax=3)

Atom   0C    ECP group =>   1
Atom   1C    ECP group =>   1
Atom   2C    ECP group =>   1
Atom   3C    ECP group =>   1
Atom   4O    ECP group =>   2
Atom   5O    ECP group =>   2



           ************************************************************
           *        Program running with 40 parallel MPI-processes    *
           *              working on a common directory               *
           ************************************************************
------------------------------------------------------------------------------
                             ORCA STARTUP CALCULATIONS
                           -- RI-GTO INTEGRALS CHOSEN --
------------------------------------------------------------------------------
------------------------------------------------------------------------------
                   ___                                                        
                  /   \      - P O W E R E D   B Y -                         
                 /     \                                                     
                 |  |  |   _    _      __       _____    __    __             
                 |  |  |  | |  | |    /  \     |  _  \  |  |  /  |          
                  \  \/   | |  | |   /    \    | | | |  |  | /  /          
                 / \  \   | |__| |  /  /\  \   | |_| |  |  |/  /          
                |  |  |   |  __  | /  /__\  \  |    /   |      \           
                |  |  |   | |  | | |   __   |  |    \   |  |\   \          
                \     /   | |  | | |  |  |  |  | |\  \  |  | \   \       
                 \___/    |_|  |_| |__|  |__|  |_| \__\ |__|  \__/        
                                                                              
                      - O R C A' S   B I G   F R I E N D -                    
                                      &                                       
                       - I N T E G R A L  F E E D E R -                       
                                                                              
 v1 FN, 2020, v2 2021, v3 2022-2024                                           
------------------------------------------------------------------------------


----------------------
SHARK INTEGRAL PACKAGE
----------------------

Number of atoms                             ...     14
Number of basis functions                   ...    118
Number of shells                            ...     54
Maximum angular momentum                    ...      2
Integral batch strategy                     ... SHARK/LIBINT Hybrid
RI-J (if used) integral strategy            ... SPLIT-RIJ (Revised 2003 algorithm where possible)
Printlevel                                  ...      1
Contraction scheme used                     ... SEGMENTED contraction
Prescreening option                         ... SCHWARTZ
   Thresh                                   ... 2.500e-11
   Tcut                                     ... 2.500e-12
   Tpresel                                  ... 2.500e-12 
Coulomb Range Separation                    ... NOT USED
Exchange Range Separation                   ... Long Range
   Mu parameter                             ... 3.000e-01
   Scaling (regular/separated)              ... 1.670e-01 8.330e-01
Multipole approximations                    ... NOT USED
Finite Nucleus Model                        ... NOT USED
CABS basis                                  ... NOT available
Auxiliary Coulomb fitting basis             ... AVAILABLE
   # of basis functions in Aux-J            ...    382
   # of shells in Aux-J                     ...    130
   Maximum angular momentum in Aux-J        ...      4
Auxiliary J/K fitting basis                 ... NOT available
Auxiliary Correlation fitting basis         ... NOT available
Auxiliary 'external' fitting basis          ... NOT available

Checking pre-screening integrals            ... done (  0.0 sec) Dimension = 54
Check shell pair data                       ... done (  0.0 sec)
Shell pair information
Shell pair cut-off parameter TPreSel        ...   2.5e-12
Total number of shell pairs                 ...      1485
Shell pairs after pre-screening             ...      1485
Total number of primitive shell pairs       ...     13732
Primitive shell pairs kept                  ...     12163
          la=0 lb=0:    406 shell pairs
          la=1 lb=0:    560 shell pairs
          la=1 lb=1:    210 shell pairs
          la=2 lb=0:    168 shell pairs
          la=2 lb=1:    120 shell pairs
          la=2 lb=2:     21 shell pairs

Calculating one electron integrals          ... done (  0.0 sec)
Calculating ECP integrals                   ... done (  0.0 sec)
Calculating RI/J V-Matrix + Cholesky decomp.... done (  0.0 sec)
Calculating Nuclear repulsion               ... done (  0.0 sec) ENN=    134.459828618047 Eh

Diagonalization of the overlap matrix:
Smallest eigenvalue                        ... 2.220e-03
Time for diagonalization                   ...    0.002 sec
Threshold for overlap eigenvalues          ... 1.000e-07
Number of eigenvalues below threshold      ... 0
Time for construction of square roots      ...    0.003 sec
Total time needed                          ...    0.010 sec

-------------------
DFT GRID GENERATION
-------------------

General Integration Accuracy     IntAcc      ... 4.388
Radial Grid Type                 RadialGrid  ... OptM3 with GC (2021)
Angular Grid (max. ang.)         AngularGrid ... 4 (Lebedev-302)
Angular grid pruning method      GridPruning ... 4 (adaptive)
Weight generation scheme         WeightScheme... mBecke (2022)
Basis function cutoff            BFCut       ... 1.0000e-11
Integration weight cutoff        WCut        ... 1.0000e-14
Partially contracted basis set               ... off
Rotationally invariant grid construction     ... off
Angular grids for H and He will be reduced by one unit

Total number of grid points                  ...    62178
Total number of batches                      ...      977
Average number of points per batch           ...       63
Average number of grid points per atom       ...     4441

--------------------
COSX GRID GENERATION
--------------------

GRIDX 1
-------
General Integration Accuracy     IntAcc      ... 3.816
Radial Grid Type                 RadialGrid  ... OptM3 with GC (2021)
Angular Grid (max. ang.)         AngularGrid ... 1 (Lebedev-50)
Angular grid pruning method      GridPruning ... 4 (adaptive)
Weight generation scheme         WeightScheme... mBecke (2022)
Basis function cutoff            BFCut       ... 1.0000e-11
Integration weight cutoff        WCut        ... 1.0000e-14
Partially contracted basis set               ... on
Rotationally invariant grid construction     ... off
Angular grids for H and He will be reduced by one unit

Total number of grid points                  ...     7971
Total number of batches                      ...       72
Average number of points per batch           ...      110
Average number of grid points per atom       ...      569
UseSFitting                                  ... on

GRIDX 2
-------
General Integration Accuracy     IntAcc      ... 4.020
Radial Grid Type                 RadialGrid  ... OptM3 with GC (2021)
Angular Grid (max. ang.)         AngularGrid ... 2 (Lebedev-110)
Angular grid pruning method      GridPruning ... 4 (adaptive)
Weight generation scheme         WeightScheme... mBecke (2022)
Basis function cutoff            BFCut       ... 1.0000e-11
Integration weight cutoff        WCut        ... 1.0000e-14
Partially contracted basis set               ... on
Rotationally invariant grid construction     ... off
Angular grids for H and He will be reduced by one unit

Total number of grid points                  ...    17084
Total number of batches                      ...      141
Average number of points per batch           ...      121
Average number of grid points per atom       ...     1220
UseSFitting                                  ... on

GRIDX 3
-------
General Integration Accuracy     IntAcc      ... 4.338
Radial Grid Type                 RadialGrid  ... OptM3 with GC (2021)
Angular Grid (max. ang.)         AngularGrid ... 3 (Lebedev-194)
Angular grid pruning method      GridPruning ... 4 (adaptive)
Weight generation scheme         WeightScheme... mBecke (2022)
Basis function cutoff            BFCut       ... 1.0000e-11
Integration weight cutoff        WCut        ... 1.0000e-14
Partially contracted basis set               ... on
Rotationally invariant grid construction     ... off
Angular grids for H and He will be reduced by one unit

Total number of grid points                  ...    37433
Total number of batches                      ...      299
Average number of points per batch           ...      125
Average number of grid points per atom       ...     2674
UseSFitting                                  ... on
Initializing property integral containers    ... done (  0.0 sec)

SHARK setup successfully completed in   2.3 seconds

Maximum memory used throughout the entire STARTUP-calculation: 17.9 MB


           ************************************************************
           *        Program running with 40 parallel MPI-processes    *
           *              working on a common directory               *
           ************************************************************
-------------------------------------------------------------------------------
                                 ORCA GUESS
                   Start orbitals & Density for SCF / CASSCF
-------------------------------------------------------------------------------

------------
SCF SETTINGS
------------
Hamiltonian:
 Density Functional     Method          .... DFT(GTOs)
 Exchange Functional    Exchange        .... WB97X-V
 Correlation Functional Correlation     .... WB97X-V
 Gradients option       PostSCFGGA      .... off
 Hybrid DFT is turned on
   Fraction HF Exchange ScalHFX         ....  0.167000
   Scaling of DF-GGA-X  ScalDFX         ....  0.000000
   Scaling of DF-GGA-C  ScalDFC         ....  1.000000
   Scaling of DF-LDA-C  ScalLDAC        ....  1.000000
   Perturbative correction              ....  0.000000
 Long-range corrected/Screened/Range-Separated Hybrid DFT is turned on
   Amount of maximum screened exact exchange              ....  0.833000
   Range separation parameter mu (erf(mu*r12)/r12)        ....  0.300000
   NL short-range parameter             ....  6.000000
   NL long-range parameter              ....  0.010000
 RI-approximation to the Coulomb term is turned on
   Number of AuxJ basis functions       .... 382
   RIJ-COSX (HFX calculated with COS-X)).... on


General Settings:
 Integral files         IntName         .... ./output/butyric_acid/butyric_acid
 Hartree-Fock type      HFTyp           .... RHF
 Total Charge           Charge          ....    0
 Multiplicity           Mult            ....    1
 Number of Electrons    NEL             ....   36
 Basis Dimension        Dim             ....  118
 Nuclear Repulsion      ENuc            ....    134.4598286180 Eh

Convergence Acceleration:
 AO-DIIS                CNVDIIS         .... on
   Start iteration      DIISMaxIt       ....    12
   Startup error        DIISStart       ....  0.200000
   # of expansion vecs  DIISMaxEq       ....     5
   Bias factor          DIISBfac        ....   1.050
   Max. coefficient     DIISMaxC        ....  10.000
 MO-DIIS                CNVKDIIS        .... off
 Trust-Rad. Augm. Hess. CNVTRAH         .... auto
   Auto Start mean grad. ratio tolernc. ....  1.125000
   Auto Start start iteration           ....    50
   Auto Start num. interpolation iter.  ....    10
   Max. Number of Micro iterations      ....    24
   Max. Number of Macro iterations      .... Maxiter - #DIIS iter
   Number of Davidson start vectors     ....     2
   Converg. threshold    (grad. norm)   ....   1.000e-05
   Grad. Scal. Fac. for Micro threshold ....   0.100
   Minimum threshold for Micro iter.    ....   1.000e-02
   NR start threshold (gradient norm)   ....   1.000e-04
   Initial trust radius                 ....   0.400
   Minimum AH scaling param. (alpha)    ....   1.000
   Maximum AH scaling param. (alpha)    .... 1000.000
   Quad. conv. algorithm                .... NR
   White noise on init. David. guess    .... on
   Maximum white noise                  ....   0.010
   Pseudo random numbers                .... off
   Inactive MOs                         .... canonical
   Orbital update algorithm             .... Taylor
   Preconditioner                       .... Diag
   Full preconditioner red. dimension   ....   250
 SOSCF                  CNVSOSCF        .... on
   Start iteration      SOSCFMaxIt      ....   150
   Startup grad/error   SOSCFStart      ....  0.003300
   Hessian update       SOSCFHessUp     .... L-BFGS
 Level Shifting         CNVShift        .... on
   Level shift para.    LevelShift      ....    0.2500
   Turn off err/grad.   ShiftErr        ....    0.0010
 Zerner damping         CNVZerner       .... off
 Static damping         CNVDamp         .... on
   Fraction old density DampFac         ....    0.7000
   Max. Damping (<1)    DampMax         ....    0.9800
   Min. Damping (>=0)   DampMin         ....    0.0000
   Turn off err/grad.   DampErr         ....    0.1000

SCF Procedure:
 Maximum # iterations   MaxIter         ....   125
 SCF integral mode      SCFMode         .... Direct
   Integral package                     .... SHARK and LIBINT hybrid scheme
 Reset frequency        DirectResetFreq ....    20
 Integral Threshold     Thresh          ....  2.500e-11 Eh
 Primitive CutOff       TCut            ....  2.500e-12 Eh

Convergence Tolerance:
 Convergence Check Mode ConvCheckMode   .... Total+1el-Energy
 Convergence forced     ConvForced      .... 0
 Energy Change          TolE            ....  1.000e-08 Eh
 1-El. energy change                    ....  1.000e-05 Eh
 Orbital Gradient       TolG            ....  1.000e-05
 Orbital Rotation angle TolX            ....  1.000e-05
 DIIS Error             TolErr          ....  5.000e-07

------------------------------
INITIAL GUESS: MODEL POTENTIAL
------------------------------
Loading Hartree-Fock densities                     ... done
Atomic calculation to generate a density for atom 0 (C  with ECP)
  Multiplicity assumed   :    1
  Atomic configuration   : 1s2 2s2 2p2 
  Number of open shells  : 1
  Command: /home/aspe232/Project/Software/ORCA/6_0_1/build/orca ./output/butyric_acid/butyric_acid_atom6.inp "" > ./output/butyric_acid/butyric_acid_atom6.out
Returned from the atomic calculation with res=0
Atomic calculation to generate a density for atom 4 (O  with ECP)
  Multiplicity assumed   :    3
  Atomic configuration   : 1s2 2s2 2p4 
  Number of open shells  : 1
  Command: /home/aspe232/Project/Software/ORCA/6_0_1/build/orca ./output/butyric_acid/butyric_acid_atom8.inp "" > ./output/butyric_acid/butyric_acid_atom8.out
Returned from the atomic calculation with res=0
Calculating cut-offs                               ... done
Initializing the effective Hamiltonian             ... done
Setting up the integral package (SHARK)            ... done
Starting the Coulomb interaction                   ... done (   0.0 sec)
Making the grid                                    ... done (   0.5 sec)
Mapping shells                                     ... done
Starting the XC term evaluation                    ... done (   0.0 sec)
  promolecular density results
     # of electrons  =     47.996597883
     EX              =    -26.360785814
     EC              =     -1.965068146
     EX+EC           =    -28.325853960
Transforming the Hamiltonian                       ... done (   0.0 sec)
Diagonalizing the Hamiltonian                      ... done (   0.0 sec)
Back transforming the eigenvectors                 ... done (   0.0 sec)
Now organizing SCF variables                       ... done
                      ------------------
                      INITIAL GUESS DONE (   1.5 sec)
                      ------------------
             **** ENERGY FILE WAS UPDATED (./output/butyric_acid/butyric_acid.en.tmp) ****
Finished Guess after   1.8 sec
Maximum memory used throughout the entire GUESS-calculation: 10.6 MB


           ************************************************************
           *        Program running with 40 parallel MPI-processes    *
           *              working on a common directory               *
           ************************************************************

-------------------------------------------------------------------------------------------
                                      ORCA LEAN-SCF
                              memory conserving SCF solver
-------------------------------------------------------------------------------------------

----------------------------------------D-I-I-S--------------------------------------------
Iteration    Energy (Eh)           Delta-E    RMSDP     MaxDP     DIISErr   Damp  Time(sec)
-------------------------------------------------------------------------------------------
               ***  Starting incremental Fock matrix formation  ***
    1    -59.4743249172440471     0.00e+00  4.36e-03  8.82e-02  2.07e-01  0.700   2.3
    2    -59.5812117797729854    -1.07e-01  3.04e-03  5.72e-02  1.03e-01  0.700   1.3
                               ***Turning on AO-DIIS***
    3    -59.6329713266402450    -5.18e-02  1.47e-03  2.19e-02  4.96e-02  0.700   1.5
    4    -59.6635637998504649    -3.06e-02  2.99e-03  4.22e-02  3.24e-02  0.000   1.6
    5    -59.7291287985876522    -6.56e-02  3.57e-04  7.16e-03  6.03e-03  0.000   1.7
    6    -59.7293362537288886    -2.07e-04  1.65e-04  4.88e-03  4.47e-03  0.000   1.4
                              *** Initializing SOSCF ***
---------------------------------------S-O-S-C-F--------------------------------------
Iteration    Energy (Eh)           Delta-E    RMSDP     MaxDP     MaxGrad    Time(sec)
--------------------------------------------------------------------------------------
    7    -59.7293962906177001    -6.00e-05  9.45e-05  1.56e-03  1.09e-03     1.8
               *** Restarting incremental Fock matrix formation ***
    8    -59.7294011913686518    -4.90e-06  5.38e-05  1.06e-03  2.87e-04     1.8
    9    -59.7294045765586077    -3.39e-06  5.14e-05  9.96e-04  3.19e-04     1.9
   10    -59.7294056054581688    -1.03e-06  1.64e-05  3.64e-04  1.59e-04     1.7
   11    -59.7294058789532301    -2.73e-07  5.40e-06  1.01e-04  2.62e-05     1.9
   12    -59.7294058807941042    -1.84e-09  2.65e-06  6.65e-05  1.66e-05     1.6
                 **** Energy Check signals convergence ****

               *****************************************************
               *                     SUCCESS                       *
               *           SCF CONVERGED AFTER  12 CYCLES          *
               *****************************************************

Recomputing exchange energy using gridx3       ... done (    0.928 sec)
Old exchange energy                            :     -7.167993655 Eh
New exchange energy                            :     -7.167997896 Eh
Exchange energy change after final integration :     -0.000004242 Eh
Total energy after final integration           :    -59.729410123 Eh
             **** ENERGY FILE WAS UPDATED (./output/butyric_acid/butyric_acid.en.tmp) ****

----------------
TOTAL SCF ENERGY
----------------

Total Energy       :        -59.72941012270035 Eh           -1625.31988 eV

Components:
Nuclear Repulsion  :        134.45982861804663 Eh            3658.83795 eV
Electronic Energy  :       -194.18923449884073 Eh           -5284.15771 eV
One Electron Energy:       -359.26222664149742 Eh           -9776.02219 eV
Two Electron Energy:        165.07299214265669 Eh            4491.86448 eV

Virial components:
Potential Energy   :       -106.11257939308817 Eh           -2887.47008 eV
Kinetic Energy     :         46.38316927038782 Eh            1262.15020 eV
Virial Ratio       :          2.28773887300610

DFT components:
N(Alpha)           :       18.000018773831 electrons
N(Beta)            :       18.000018773831 electrons
N(Total)           :       36.000037547661 electrons
E(X)               :       -8.357634731403 Eh       
E(C)               :       -1.378316721448 Eh       
E(XC)              :       -9.735951452851 Eh       

---------------
SCF CONVERGENCE
---------------

  Last Energy change         ...    1.8409e-09  Tolerance :   1.0000e-08
  Last MAX-Density change    ...    6.6472e-05  Tolerance :   1.0000e-07
  Last RMS-Density change    ...    2.6522e-06  Tolerance :   5.0000e-09
  Last DIIS Error            ...    1.0892e-03  Tolerance :   5.0000e-07
  Last Orbital Gradient      ...    1.6589e-05  Tolerance :   1.0000e-05
  Last Orbital Rotation      ...    2.9898e-05  Tolerance :   1.0000e-05


----------------
ORBITAL ENERGIES
----------------

  NO   OCC          E(Eh)            E(eV) 
   0   2.0000      -1.208730       -32.8912 
   1   2.0000      -1.116367       -30.3779 
   2   2.0000      -0.950876       -25.8747 
   3   2.0000      -0.855446       -23.2779 
   4   2.0000      -0.760789       -20.7021 
   5   2.0000      -0.721733       -19.6393 
   6   2.0000      -0.620624       -16.8880 
   7   2.0000      -0.593976       -16.1629 
   8   2.0000      -0.582422       -15.8485 
   9   2.0000      -0.562085       -15.2951 
  10   2.0000      -0.530791       -14.4436 
  11   2.0000      -0.515504       -14.0276 
  12   2.0000      -0.496652       -13.5146 
  13   2.0000      -0.460393       -12.5279 
  14   2.0000      -0.457246       -12.4423 
  15   2.0000      -0.454307       -12.3623 
  16   2.0000      -0.425700       -11.5839 
  17   2.0000      -0.382725       -10.4145 
  18   0.0000       0.061530         1.6743 
  19   0.0000       0.068809         1.8724 
  20   0.0000       0.099834         2.7166 
  21   0.0000       0.112996         3.0748 
  22   0.0000       0.114400         3.1130 
  23   0.0000       0.139923         3.8075 
  24   0.0000       0.151433         4.1207 
  25   0.0000       0.168281         4.5792 
  26   0.0000       0.180120         4.9013 
  27   0.0000       0.253746         6.9048 
  28   0.0000       0.285061         7.7569 
*Only the first 10 virtual orbitals were printed.

                    ********************************
                    * MULLIKEN POPULATION ANALYSIS *
                    ********************************

-----------------------
MULLIKEN ATOMIC CHARGES
-----------------------
   0 C :   -0.088776
   1 C :   -0.093706
   2 C :   -0.057956
   3 C :    0.254511
   4 O :   -0.348778
   5 O :   -0.265882
   6 H :    0.041088
   7 H :    0.054171
   8 H :    0.042440
   9 H :    0.046966
  10 H :    0.056822
  11 H :    0.068275
  12 H :    0.076776
  13 H :    0.214049
Sum of atomic charges:   -0.0000000

--------------------------------
MULLIKEN REDUCED ORBITAL CHARGES
--------------------------------
  0 C s       :     0.974765  s :     0.974765
      pz      :     0.992959  p :     3.041074
      px      :     1.027189
      py      :     1.020926
      dz2     :     0.009277  d :     0.072937
      dxz     :     0.017698
      dyz     :     0.020984
      dx2y2   :     0.004082
      dxy     :     0.020896

  1 C s       :     1.022355  s :     1.022355
      pz      :     0.999083  p :     2.969781
      px      :     0.972563
      py      :     0.998134
      dz2     :     0.013137  d :     0.101570
      dxz     :     0.023102
      dyz     :     0.026671
      dx2y2   :     0.012059
      dxy     :     0.026601

  2 C s       :     0.996977  s :     0.996977
      pz      :     1.060245  p :     2.969586
      px      :     0.910386
      py      :     0.998954
      dz2     :     0.011133  d :     0.091393
      dxz     :     0.018187
      dyz     :     0.024716
      dx2y2   :     0.015897
      dxy     :     0.021459

  3 C s       :     1.153461  s :     1.153461
      pz      :     0.769863  p :     2.345256
      px      :     0.811340
      py      :     0.764052
      dz2     :     0.052961  d :     0.246772
      dxz     :     0.083103
      dyz     :     0.065643
      dx2y2   :     0.024621
      dxy     :     0.020444

  4 O s       :     1.792879  s :     1.792879
      pz      :     1.290574  p :     4.522358
      px      :     1.704464
      py      :     1.527321
      dz2     :     0.013322  d :     0.033542
      dxz     :     0.008545
      dyz     :     0.010942
      dx2y2   :     0.000424
      dxy     :     0.000308

  5 O s       :     1.617778  s :     1.617778
      pz      :     1.631670  p :     4.622716
      px      :     1.360526
      py      :     1.630520
      dz2     :     0.004134  d :     0.025389
      dxz     :     0.009591
      dyz     :     0.005887
      dx2y2   :     0.001896
      dxy     :     0.003881

  6 H s       :     0.915977  s :     0.915977
      pz      :     0.016865  p :     0.042935
      px      :     0.011930
      py      :     0.014140

  7 H s       :     0.902096  s :     0.902096
      pz      :     0.012969  p :     0.043734
      px      :     0.015964
      py      :     0.014801

  8 H s       :     0.914095  s :     0.914095
      pz      :     0.012047  p :     0.043465
      px      :     0.016972
      py      :     0.014446

  9 H s       :     0.910662  s :     0.910662
      pz      :     0.012370  p :     0.042372
      px      :     0.016610
      py      :     0.013392

 10 H s       :     0.901369  s :     0.901369
      pz      :     0.015535  p :     0.041808
      px      :     0.011365
      py      :     0.014908

 11 H s       :     0.887829  s :     0.887829
      pz      :     0.018002  p :     0.043896
      px      :     0.011482
      py      :     0.014412

 12 H s       :     0.881176  s :     0.881176
      pz      :     0.017773  p :     0.042048
      px      :     0.010839
      py      :     0.013436

 13 H s       :     0.694594  s :     0.694594
      pz      :     0.024123  p :     0.091357
      px      :     0.036127
      py      :     0.031106



                     *******************************
                     * LOEWDIN POPULATION ANALYSIS *
                     *******************************

----------------------
LOEWDIN ATOMIC CHARGES
----------------------
   0 C :   -0.118621
   1 C :   -0.090339
   2 C :   -0.072366
   3 C :    0.031359
   4 O :   -0.201234
   5 O :   -0.053545
   6 H :    0.049119
   7 H :    0.049935
   8 H :    0.049334
   9 H :    0.053785
  10 H :    0.053258
  11 H :    0.065450
  12 H :    0.075632
  13 H :    0.108234

-------------------------------
LOEWDIN REDUCED ORBITAL CHARGES
-------------------------------
  0 C s       :     0.781567  s :     0.781567
      pz      :     1.013371  p :     3.096230
      px      :     1.045194
      py      :     1.037664
      dz2     :     0.031672  d :     0.240825
      dxz     :     0.057346
      dyz     :     0.067971
      dx2y2   :     0.014001
      dxy     :     0.069835

  1 C s       :     0.768395  s :     0.768395
      pz      :     1.005639  p :     2.999590
      px      :     0.990035
      py      :     1.003916
      dz2     :     0.041610  d :     0.322355
      dxz     :     0.073543
      dyz     :     0.085112
      dx2y2   :     0.040138
      dxy     :     0.081951

  2 C s       :     0.768940  s :     0.768940
      pz      :     1.049737  p :     3.008950
      px      :     0.956539
      py      :     1.002674
      dz2     :     0.032753  d :     0.294476
      dxz     :     0.059033
      dyz     :     0.082445
      dx2y2   :     0.050575
      dxy     :     0.069670

  3 C s       :     0.787324  s :     0.787324
      pz      :     0.917542  p :     2.515156
      px      :     0.842483
      py      :     0.755131
      dz2     :     0.170430  d :     0.666161
      dxz     :     0.212872
      dyz     :     0.159737
      dx2y2   :     0.065900
      dxy     :     0.057222

  4 O s       :     1.564781  s :     1.564781
      pz      :     1.457818  p :     4.569024
      px      :     1.632675
      py      :     1.478530
      dz2     :     0.031964  d :     0.067430
      dxz     :     0.017004
      dyz     :     0.017208
      dx2y2   :     0.000529
      dxy     :     0.000726

  5 O s       :     1.382136  s :     1.382136
      pz      :     1.627196  p :     4.605602
      px      :     1.398784
      py      :     1.579621
      dz2     :     0.010886  d :     0.065807
      dxz     :     0.021790
      dyz     :     0.011106
      dx2y2   :     0.006798
      dxy     :     0.015228

  6 H s       :     0.806455  s :     0.806455
      pz      :     0.052932  p :     0.144426
      px      :     0.043434
      py      :     0.048061

  7 H s       :     0.803388  s :     0.803388
      pz      :     0.045269  p :     0.146678
      px      :     0.052021
      py      :     0.049387

  8 H s       :     0.805006  s :     0.805006
      pz      :     0.043108  p :     0.145660
      px      :     0.053837
      py      :     0.048715

  9 H s       :     0.801004  s :     0.801004
      pz      :     0.046314  p :     0.145211
      px      :     0.052114
      py      :     0.046783

 10 H s       :     0.801821  s :     0.801821
      pz      :     0.053470  p :     0.144921
      px      :     0.041970
      py      :     0.049482

 11 H s       :     0.787909  s :     0.787909
      pz      :     0.057096  p :     0.146641
      px      :     0.039867
      py      :     0.049678

 12 H s       :     0.785818  s :     0.785818
      pz      :     0.054820  p :     0.138550
      px      :     0.037819
      py      :     0.045910

 13 H s       :     0.613476  s :     0.613476
      pz      :     0.079411  p :     0.278289
      px      :     0.105659
      py      :     0.093219



                      *****************************
                      * MAYER POPULATION ANALYSIS *
                      *****************************

  NA   - Mulliken gross atomic population
  ZA   - Total nuclear charge
  QA   - Mulliken gross atomic charge
  VA   - Mayer's total valence
  BVA  - Mayer's bonded valence
  FA   - Mayer's free valence

  ATOM       NA         ZA         QA         VA         BVA        FA
  0 C      4.0888     4.0000    -0.0888     3.9653     3.9653    -0.0000
  1 C      4.0937     4.0000    -0.0937     4.0017     4.0017     0.0000
  2 C      4.0580     4.0000    -0.0580     3.9509     3.9509     0.0000
  3 C      3.7455     4.0000     0.2545     4.1012     4.1012    -0.0000
  4 O      6.3488     6.0000    -0.3488     1.9837     1.9837     0.0000
  5 O      6.2659     6.0000    -0.2659     2.1339     2.1339    -0.0000
  6 H      0.9589     1.0000     0.0411     1.0292     1.0292    -0.0000
  7 H      0.9458     1.0000     0.0542     1.0226     1.0226    -0.0000
  8 H      0.9576     1.0000     0.0424     1.0290     1.0290    -0.0000
  9 H      0.9530     1.0000     0.0470     1.0219     1.0219    -0.0000
 10 H      0.9432     1.0000     0.0568     1.0197     1.0197     0.0000
 11 H      0.9317     1.0000     0.0683     1.0244     1.0244     0.0000
 12 H      0.9232     1.0000     0.0768     1.0234     1.0234    -0.0000
 13 H      0.7860     1.0000     0.2140     1.0536     1.0536    -0.0000

  Mayer bond orders larger than 0.100000
B(  0-C ,  1-C ) :   0.9852 B(  0-C ,  6-H ) :   0.9953 B(  0-C ,  7-H ) :   0.9915 
B(  0-C ,  8-H ) :   0.9981 B(  1-C ,  2-C ) :   0.9708 B(  1-C ,  9-H ) :   0.9993 
B(  1-C , 10-H ) :   0.9922 B(  2-C ,  3-C ) :   1.0145 B(  2-C , 11-H ) :   0.9821 
B(  2-C , 12-H ) :   0.9877 B(  3-C ,  4-O ) :   1.9110 B(  3-C ,  5-O ) :   1.1164 
B(  5-O , 13-H ) :   0.9930 

-------
TIMINGS
-------

Total SCF time: 0 days 0 hours 0 min 23 sec 

Total time                  ....      23.923 sec
Sum of individual times     ....      22.654 sec  ( 94.7%)

SCF preparation             ....       1.206 sec  (  5.0%)
Fock matrix formation       ....      20.296 sec  ( 84.8%)
  Startup                   ....       0.161 sec  (  0.8% of F)
  Split-RI-J                ....       0.560 sec  (  2.8% of F)
  Chain of spheres X        ....       5.913 sec  ( 29.1% of F)
  XC integration            ....      13.071 sec  ( 64.4% of F)
    XC Preparation          ....       0.000 sec  (  0.0% of XC)
    Basis function eval.    ....       0.201 sec  (  1.5% of XC)
    Density eval.           ....       0.057 sec  (  0.4% of XC)
    XC-Functional eval.     ....       0.109 sec  (  0.8% of XC)
    XC-Potential eval.      ....       0.094 sec  (  0.7% of XC)
Diagonalization             ....       0.000 sec  (  0.0%)
Density matrix formation    ....       0.253 sec  (  1.1%)
Total Energy calculation    ....       0.287 sec  (  1.2%)
Population analysis         ....       0.066 sec  (  0.3%)
Orbital Transformation      ....       0.038 sec  (  0.2%)
Orbital Orthonormalization  ....       0.000 sec  (  0.0%)
DIIS solution               ....       0.280 sec  (  1.2%)
SOSCF solution              ....       0.230 sec  (  1.0%)
Finished LeanSCF after  24.0 sec

Maximum memory used throughout the entire LEANSCF-calculation: 16.3 MB


           ************************************************************
           *        Program running with 40 parallel MPI-processes    *
           *              working on a common directory               *
           ************************************************************

------------------------------------------------------------------------------
                         ORCA PROPERTY INTEGRAL CALCULATIONS
------------------------------------------------------------------------------

GBWName                                   ... ./output/butyric_acid/butyric_acid.gbw
Number of atoms                           ...     14
Number of basis functions                 ...    118
Max core memory                           ...   1024 MB

Dipole integrals                          ... YES
Quadrupole integrals                      ...  NO
Linear momentum integrals                 ...  NO
Angular momentum integrals                ...  NO
Higher moments length integrals           ...  NO
Higher moments velocity integrals         ...  NO
Kinetic energy integrals                  ...  NO
GIAO right hand sides                     ...  NO
GIAO dipole derivative integrals          ...  NO
SOC integrals                             ...  NO
EPR diamagnetic integrals (GIAO)          ...  NO
EPR gauge integrals                       ...  NO
Field gradient integrals                  ...  NO (   0 nuclei)
Spin-dipole/Fermi contact integrals       ...  NO (   0 nuclei)
Contact density integrals                 ...  NO (   0 nuclei)
Nucleus-orbit integrals                   ...  NO (   0 nuclei)
Geometric perturbations                   ...  NO (  14 nuclei)

Choice of electric origin   ... Center of mass
Position of electric origin ... (  1.1314, -0.0695,  0.3465) 
Choice of magnetic origin   ... GIAO
Position of magnetic origin ... (  0.0000,  0.0000,  0.0000) 

Calculating integrals                     ... Electric Dipole (Length)     done (  0.0 sec)

Property integrals calculated in   0.0 sec

Maximum memory used throughout the entire PROPINT-calculation: 9.1 MB


-------------------------------------------------------------------------------
                          DFT DISPERSION CORRECTION                            
                                                                               
                                DFTD4 V3.4.0                                   
-------------------------------------------------------------------------------
The wB97X-3c composite method is recognized
Using three-body term ABC
Active option DFTDOPT                   ...         5   

-------------------------   ----------------
Dispersion correction           -0.011273157
-------------------------   ----------------


-------------------------   --------------------
FINAL SINGLE POINT ENERGY       -59.740683280157
-------------------------   --------------------



           ************************************************************
           *        Program running with 40 parallel MPI-processes    *
           *              working on a common directory               *
           ************************************************************
------------------------------------------------------------------------------
                         ORCA SCF GRADIENT CALCULATION
------------------------------------------------------------------------------

Nuc. rep. gradient        (SHARK) ... done (  0.0 sec)
HCore & Overlap gradient  (SHARK) ... done (  0.0 sec)
ECP gradient              (SHARK) ... done (  0.1 sec)
Split-RIJ-J gradient      (SHARK) ... done (  0.2 sec)
COSX-gradient                     ... done (  1.8 sec)
XC gradient                       ... done (  0.8 sec)
Dispersion correction             ... done (  0.1 sec)

-------------------
DISPERSION GRADIENT
-------------------

   1   C   :   -0.000464057    0.000272612    0.000086676
   2   C   :   -0.000336268   -0.000011754   -0.000258199
   3   C   :   -0.000013081   -0.000346838   -0.000100315
   4   C   :    0.000382070   -0.000060833    0.000095183
   5   O   :    0.000323033   -0.000015038    0.000425658
   6   O   :    0.000470876    0.000120581   -0.000147862
   7   H   :   -0.000122895    0.000047326    0.000061434
   8   H   :   -0.000111247    0.000116274    0.000050660
   9   H   :   -0.000074420    0.000063976    0.000018352
  10   H   :   -0.000079879   -0.000022662   -0.000075575
  11   H   :   -0.000063803    0.000046072   -0.000106988
  12   H   :    0.000017027   -0.000118048   -0.000068093
  13   H   :   -0.000002988   -0.000130199    0.000037649
  14   H   :    0.000075633    0.000038532   -0.000018580

Difference to translation invariance:
           :   -0.0000000000    0.0000000000    0.0000000000

Difference to rotation invariance:
           :   -0.0000000000   -0.0000000000   -0.0000000000

Norm of the Dispersion gradient    ...    0.0012019985
RMS gradient                       ...    0.0001854724
MAX gradient                       ...    0.0004708760

------------------
CARTESIAN GRADIENT
------------------

   1   C   :    0.001727417   -0.004357889    0.000398659
   2   C   :    0.006539244   -0.003783414    0.003968959
   3   C   :   -0.003469089    0.010617514    0.024684036
   4   C   :   -0.045493288   -0.031923002   -0.092037246
   5   O   :    0.006421422    0.008859522    0.083226616
   6   O   :    0.008175241    0.004754300   -0.006313680
   7   H   :   -0.005987383   -0.010287290    0.007862423
   8   H   :    0.011048993    0.008675779    0.003245594
   9   H   :   -0.009456440    0.006927054   -0.007396084
  10   H   :   -0.011610849   -0.006339692   -0.004296388
  11   H   :    0.005348830    0.010304353   -0.007663880
  12   H   :    0.003464386   -0.007935260   -0.008841843
  13   H   :   -0.011738510   -0.013156551    0.007565949
  14   H   :    0.045030027    0.027644576   -0.004403117

Difference to translation invariance:
           :    0.0000000000   -0.0000000000    0.0000000000

Difference to rotation invariance:
           :    0.0001386639   -0.0000085530    0.0000399349

Norm of the Cartesian gradient     ...    0.1545553843
RMS gradient                       ...    0.0238484136
MAX gradient                       ...    0.0920372458

-------
TIMINGS
-------

Total SCF gradient time     ....        2.939 sec

Densities                   ....       0.001 sec  (  0.0%)
One electron gradient       ....       0.019 sec  (  0.6%)
RI-J Coulomb gradient       ....       0.187 sec  (  6.4%)
COSX gradient               ....       1.783 sec  ( 60.7%)
XC gradient                 ....       0.756 sec  ( 25.7%)

Maximum memory used throughout the entire SCFGRAD-calculation: 29.0 MB
------------------------------------------------------------------------------
                         ORCA GEOMETRY RELAXATION STEP
------------------------------------------------------------------------------

Reading the OPT-File                    .... done
Getting information on internals        .... done
Copying old internal coords+grads       .... done
Making the new internal coordinates     .... (2022 redundants) done
Validating the new internal coordinates .... (2022 redundants) done
Calculating the B-matrix                .... done
Calculating the G,G- and P matrices     .... done
Transforming gradient to internals      .... done
Projecting the internal gradient        .... done
Number of atoms                         ....  14
Number of internal coordinates          ....  54
Current Energy                          ....   -59.740683280 Eh
Current gradient norm                   ....     0.154555384 Eh/bohr
Maximum allowed component of the step   ....  0.300
Current trust radius                    ....  0.300
Evaluating the initial hessian          ....  (Almloef) done
Projecting the Hessian                  .... done
Forming the augmented Hessian           .... done
Diagonalizing the augmented Hessian     .... done
Last element of RFO vector              ....  0.969911758
Lowest eigenvalues of augmented Hessian:
 -0.030767358  0.010869812  0.011271342  0.013064309  0.015863354
Length of the computed step             ....  0.251009160
The final length of the internal step   ....  0.251009160
Converting the step to Cartesian space:
 Initial RMS(Int)=    0.0341580202
Transforming coordinates:
 Iter   0:  RMS(Cart)=    0.0627139294 RMS(Int)=    0.0341401499
 Iter   5:  RMS(Cart)=    0.0000000137 RMS(Int)=    0.0000000086
done
Storing new coordinates                 .... done

                                .--------------------.
          ----------------------|Geometry convergence|-------------------------
          Item                value                   Tolerance       Converged
          ---------------------------------------------------------------------
          RMS gradient        0.0179508160            0.0001000000      NO
          MAX gradient        0.0838318264            0.0003000000      NO
          RMS step            0.0341580202            0.0020000000      NO
          MAX step            0.1081733042            0.0040000000      NO
          ........................................................
          Max(Bonds)      0.0559      Max(Angles)    6.20
          Max(Dihed)        1.33      Max(Improp)    0.00
          ---------------------------------------------------------------------

The optimization has not yet converged - more geometry cycles are needed


    ---------------------------------------------------------------------------
                         Redundant Internal Coordinates
                            (Angstroem and degrees)

        Definition                    Value    dE/dq     Step     New-Value
    ----------------------------------------------------------------------------
     1. B(C   1,C   0)                1.5284  0.004644 -0.0060    1.5224   
     2. B(C   2,C   1)                1.5338  0.003767 -0.0050    1.5288   
     3. B(C   3,C   2)                1.4979  0.009124 -0.0107    1.4872   
     4. B(O   4,C   3)                1.2601  0.083832 -0.0476    1.2126   
     5. B(O   5,C   3)                1.3913  0.054678 -0.0492    1.3421   
     6. B(H   6,C   0)                1.1108  0.014033 -0.0204    1.0904   
     7. B(H   7,C   0)                1.1103  0.014008 -0.0203    1.0900   
     8. B(H   8,C   0)                1.1104  0.013691 -0.0199    1.0905   
     9. B(H   9,C   1)                1.1115  0.013575 -0.0198    1.0917   
    10. B(H  10,C   1)                1.1120  0.013686 -0.0200    1.0921   
    11. B(H  11,C   2)                1.1110  0.012358 -0.0180    1.0931   
    12. B(H  12,C   2)                1.1122  0.017569 -0.0256    1.0865   
    13. B(H  13,O   5)                1.0130  0.048419 -0.0559    0.9571   
    14. A(C   1,C   0,H   8)          109.47 -0.002557    0.52    109.99   
    15. A(C   1,C   0,H   7)          110.58 -0.003189    0.52    111.11   
    16. A(H   6,C   0,H   8)          108.61  0.001901   -0.28    108.33   
    17. A(C   1,C   0,H   6)          110.37 -0.001791    0.26    110.63   
    18. A(H   6,C   0,H   7)          109.35  0.003776   -0.82    108.53   
    19. A(H   7,C   0,H   8)          108.40  0.002022   -0.22    108.18   
    20. A(C   0,C   1,H  10)          109.54 -0.000389    0.18    109.73   
    21. A(C   2,C   1,H   9)          108.61  0.002192   -0.40    108.21   
    22. A(C   0,C   1,H   9)          108.46 -0.001855    0.56    109.02   
    23. A(C   2,C   1,H  10)          110.05  0.001749   -0.38    109.67   
    24. A(H   9,C   1,H  10)          107.70  0.000939   -0.54    107.16   
    25. A(C   0,C   1,C   2)          112.36 -0.002525    0.54    112.89   
    26. A(C   1,C   2,C   3)          111.69 -0.000122    0.05    111.74   
    27. A(H  11,C   2,H  12)          107.46 -0.005137    0.78    108.24   
    28. A(C   3,C   2,H  12)          110.21  0.011222   -2.02    108.20   
    29. A(C   1,C   2,H  12)          110.09 -0.004515    0.46    110.55   
    30. A(C   3,C   2,H  11)          108.44 -0.000797    0.41    108.85   
    31. A(C   1,C   2,H  11)          108.83 -0.000958    0.37    109.20   
    32. A(C   2,C   3,O   4)          120.13 -0.020861    2.71    122.85   
    33. A(O   4,C   3,O   5)          120.00 -0.010572    1.38    121.38   
    34. A(C   2,C   3,O   5)          119.85  0.031454   -4.10    115.75   
    35. A(C   3,O   5,H  13)          120.84  0.041356   -6.20    114.64   
    36. D(H   9,C   1,C   0,H   7)   -176.15  0.000984   -0.44   -176.59   
    37. D(C   2,C   1,C   0,H   7)     63.78  0.001063   -0.65     63.13   
    38. D(H   9,C   1,C   0,H   8)    -56.78 -0.000100   -0.06    -56.85   
    39. D(C   2,C   1,C   0,H   8)   -176.85 -0.000021   -0.27   -177.12   
    40. D(H   9,C   1,C   0,H   6)     62.71 -0.000463    0.08     62.79   
    41. D(C   2,C   1,C   0,H   6)    -57.36 -0.000385   -0.13    -57.49   
    42. D(C   3,C   2,C   1,C   0)    -68.74 -0.001656    0.99    -67.75   
    43. D(H  11,C   2,C   1,H  10)    -66.07 -0.000959    0.54    -65.53   
    44. D(H  11,C   2,C   1,H   9)     51.59  0.002465   -0.56     51.03   
    45. D(H  11,C   2,C   1,C   0)    171.57  0.000034    0.21    171.78   
    46. D(C   3,C   2,C   1,H  10)     53.61 -0.002649    1.33     54.94   
    47. D(C   3,C   2,C   1,H   9)    171.28  0.000776    0.23    171.50   
    48. D(O   4,C   3,C   2,H  12)    -20.54 -0.000770    0.23    -20.31   
    49. D(O   4,C   3,C   2,H  11)   -137.92 -0.000457    0.19   -137.73   
    50. D(O   4,C   3,C   2,C   1)    102.17  0.001323   -0.58    101.59   
    51. D(O   5,C   3,C   2,H  11)     43.50 -0.001267    0.89     44.39   
    52. D(O   5,C   3,C   2,C   1)    -76.42  0.000513    0.13    -76.29   
    53. D(H  13,O   5,C   3,O   4)      0.63 -0.000026    0.02      0.65   
    54. D(H  13,O   5,C   3,C   2)    179.22  0.000635   -0.67    178.55   
    ----------------------------------------------------------------------------

Geometry step timings:
Preparation and reading OPT file:      0.001 s ( 9.922 %)
Internal coordinates            :      0.000 s ( 1.568 %)
B/P matrices and projection     :      0.001 s (15.263 %)
Hessian update/contruction      :      0.002 s (31.731 %)
Making the step                 :      0.001 s (11.421 %)
Converting the step to Cartesian:      0.000 s ( 2.326 %)
Storing new data                :      0.000 s ( 1.413 %)
Checking convergence            :      0.000 s ( 0.138 %)
Final printing                  :      0.002 s (25.891 %)
Total time                      :      0.006 s

Time for energy+gradient        :     32.767 s
Time for complete geometry iter :     33.184 s

         *************************************************************
         *                GEOMETRY OPTIMIZATION CYCLE   2            *
         *************************************************************
---------------------------------
CARTESIAN COORDINATES (ANGSTROEM)
---------------------------------
  C     -1.472290    0.765840    0.409579
  C     -0.798295   -0.050542   -0.684430
  C      0.273264   -0.998044   -0.144761
  C      1.443551   -0.255692    0.394809
  O      1.620461   -0.079518    1.581390
  O      2.282931    0.253918   -0.520011
  H     -1.920527    0.110587    1.157064
  H     -0.757312    1.421039    0.907270
  H     -2.260162    1.385657   -0.019698
  H     -1.553535   -0.647628   -1.199219
  H     -0.357187    0.619407   -1.425546
  H      0.612137   -1.653927   -0.950870
  H     -0.131405   -1.617845    0.650620
  H      3.018369    0.746747   -0.156196

----------------------------
CARTESIAN COORDINATES (A.U.)
----------------------------
  NO LB      ZA    FRAG     MASS         X           Y           Z
   0 C     4.0000*   0    12.011   -2.782226    1.447227    0.773992
   1 C     4.0000*   0    12.011   -1.508559   -0.095510   -1.293384
   2 C     4.0000*   0    12.011    0.516394   -1.886029   -0.273559
   3 C     4.0000*   0    12.011    2.727917   -0.483189    0.746081
   4 O     6.0000*   0    15.999    3.062227   -0.150266    2.988394
   5 O     6.0000*   0    15.999    4.314114    0.479836   -0.982678
   6 H     1.0000    0     1.008   -3.629269    0.208980    2.186534
   7 H     1.0000    0     1.008   -1.431112    2.685374    1.714492
   8 H     1.0000    0     1.008   -4.271087    2.618512   -0.037224
   9 H     1.0000    0     1.008   -2.935756   -1.223839   -2.266195
  10 H     1.0000    0     1.008   -0.674985    1.170509   -2.693891
  11 H     1.0000    0     1.008    1.156771   -3.125469   -1.796883
  12 H     1.0000    0     1.008   -0.248320   -3.057284    1.229493
  13 H     1.0000    0     1.008    5.703891    1.411147   -0.295168
* core charge reduced due to ECP

--------------------------------
INTERNAL COORDINATES (ANGSTROEM)
--------------------------------
 C      0   0   0     0.000000000000     0.00000000     0.00000000
 C      1   0   0     1.522367443094     0.00000000     0.00000000
 C      2   1   0     1.528803471642   112.89198342     0.00000000
 C      3   2   1     1.487210233277   111.73162703   292.25065790
 O      4   3   2     1.212562998987   122.84461253   101.59309552
 O      4   3   2     1.342071121316   115.74643311   283.71799755
 H      1   2   3     1.090415412523   110.63195948   302.50966745
 H      1   2   3     1.090035216595   111.10321605    63.12998741
 H      1   2   3     1.090501390209   109.98508047   182.87877777
 H      2   1   3     1.091745156606   109.01817919   120.27767049
 H      2   1   3     1.092089924761   109.72625079   237.34256193
 H      3   2   1     1.093082179873   109.19891712   171.77875181
 H      3   2   1     1.086527265933   110.54247101    52.80145000
 H      6   4   3     0.957136979048   114.64445172   178.55528853

---------------------------
INTERNAL COORDINATES (A.U.)
---------------------------
 C      0   0   0     0.000000000000     0.00000000     0.00000000
 C      1   0   0     2.876857542646     0.00000000     0.00000000
 C      2   1   0     2.889019873991   112.89198342     0.00000000
 C      3   2   1     2.810420044460   111.73162703   292.25065790
 O      4   3   2     2.291411988212   122.84461253   101.59309552
 O      4   3   2     2.536146871531   115.74643311   283.71799755
 H      1   2   3     2.060586501876   110.63195948   302.50966745
 H      1   2   3     2.059868035694   111.10321605    63.12998741
 H      1   2   3     2.060748976156   109.98508047   182.87877777
 H      2   1   3     2.063099354020   109.01817919   120.27767049
 H      2   1   3     2.063750871413   109.72625079   237.34256193
 H      3   2   1     2.065625961830   109.19891712   171.77875181
 H      3   2   1     2.053238969652   110.54247101    52.80145000
 H      6   4   3     1.808726763049   114.64445172   178.55528853



           ************************************************************
           *        Program running with 40 parallel MPI-processes    *
           *              working on a common directory               *
           ************************************************************
------------------------------------------------------------------------------
                   ___                                                        
                  /   \      - P O W E R E D   B Y -                         
                 /     \                                                     
                 |  |  |   _    _      __       _____    __    __             
                 |  |  |  | |  | |    /  \     |  _  \  |  |  /  |          
                  \  \/   | |  | |   /    \    | | | |  |  | /  /          
                 / \  \   | |__| |  /  /\  \   | |_| |  |  |/  /          
[...]
      3       0.005263   0.056218  -0.023160  -0.000448   0.014538   0.000009
      4      -0.002461   0.057281  -0.023031   0.001541   0.015119  -0.000008
      5       0.024466  -0.025058   0.007395  -0.006087  -0.010614   0.000010
      6      -0.005483  -0.006866   0.010292  -0.005722   0.039264   0.000392
      7       0.063805   0.002707   0.003027  -0.002960   0.017584   0.000335
      8       0.018422   0.014904  -0.020249   0.012011  -0.076587   0.000403
      9      -0.002046  -0.000285   0.000058   0.000295  -0.000504  -0.001914
     10      -0.000720   0.000294  -0.000412   0.000043   0.000230  -0.001536
     11      -0.000632  -0.000072  -0.000433   0.000238  -0.002713  -0.000078
     12       0.000125  -0.000026   0.000026  -0.000068   0.000200  -0.000032
     13       0.000162  -0.000015   0.000039   0.000037  -0.000267   0.000355
     14       0.000256   0.000003   0.000162  -0.000058   0.000860  -0.000873
     15       0.000094   0.000098  -0.000062   0.000015  -0.000252  -0.048062
     16       0.000048  -0.000086   0.000114   0.000001  -0.000334  -0.027236
     17       0.000043   0.000123   0.000014   0.000046   0.000239  -0.027027
     18      -0.013532   0.109912   0.225643  -0.184593  -0.068690   0.000155
     19      -0.015877   0.149370   0.303417  -0.225953  -0.085307   0.000174
     20       0.023430  -0.212306  -0.440617   0.318034   0.126625  -0.000152
     21       0.016052   0.198934   0.476364   0.204956  -0.057596  -0.000098
     22       0.013840   0.164171   0.403641   0.187681  -0.047291   0.000367
     23       0.008080   0.109909   0.266065   0.104299  -0.034053   0.000315
     24       0.007014  -0.014633   0.069540   0.595085   0.067502   0.000304
     25      -0.005200   0.001623  -0.073887  -0.480513  -0.052459  -0.000137
     26       0.006226  -0.003831   0.046475   0.324430   0.036067   0.000133
     27      -0.159453  -0.403815   0.175566   0.026854  -0.085634   0.000740
     28      -0.120530  -0.309084   0.138485   0.020939  -0.063362   0.000367
     29      -0.082897  -0.225389   0.099188   0.015119  -0.046856  -0.000076
     30       0.106246  -0.271554   0.098805  -0.027128  -0.085352   0.000059
     31       0.144389  -0.377755   0.132334  -0.034946  -0.122736   0.000335
     32      -0.196074   0.524385  -0.187300   0.050330   0.168261  -0.000660
     33       0.267187   0.048313  -0.044646   0.023145  -0.153365   0.000913
     34      -0.464011  -0.088919   0.083500  -0.043209   0.278458  -0.000677
     35      -0.585139  -0.109183   0.100326  -0.052354   0.337650  -0.001401
     36      -0.190547   0.039150  -0.077381   0.048250  -0.307110   0.000178
     37      -0.281050   0.058652  -0.115460   0.072118  -0.477726   0.000110
     38       0.362636  -0.070820   0.143142  -0.090042   0.588374  -0.000414
     39      -0.000967   0.000547  -0.000226  -0.000223   0.000978   0.779305
     40      -0.000085  -0.000397  -0.000051  -0.000172   0.000332   0.440803
     41      -0.001518   0.000495  -0.000428  -0.000323   0.000928   0.441115


-----------
IR SPECTRUM
-----------

 Mode   freq       eps      Int      T**2         TX        TY        TZ
       cm**-1   L/(mol*cm) km/mol    a.u.
----------------------------------------------------------------------------
  6:     37.90   0.000199    1.01  0.001639  (-0.030749  0.025149  0.007784)
  7:    108.60   0.000014    0.07  0.000041  (-0.006001 -0.000977 -0.001957)
  8:    199.70   0.000006    0.03  0.000010  ( 0.001772 -0.000631 -0.002477)
  9:    280.21   0.000041    0.21  0.000046  (-0.002600 -0.000912  0.006176)
 10:    384.32   0.000332    1.68  0.000269  ( 0.003354 -0.010487  0.012171)
 11:    462.56   0.000641    3.24  0.000433  (-0.001766  0.001936  0.020637)
 12:    574.65   0.008676   43.84  0.004711  ( 0.066025 -0.001140 -0.018726)
 13:    619.69   0.014491   73.23  0.007297  ( 0.022732 -0.080715 -0.016295)
 14:    720.89   0.009347   47.24  0.004046  (-0.043446  0.039362  0.024683)
 15:    794.52   0.004281   21.63  0.001681  (-0.038953 -0.011848  0.004864)
 16:    892.01   0.001493    7.55  0.000522  (-0.010581 -0.002441  0.020113)
 17:    917.16   0.001163    5.88  0.000396  (-0.001071  0.019818  0.001298)
 18:    942.74   0.000524    2.65  0.000173  (-0.008742  0.009806  0.000906)
 19:   1083.50   0.006517   32.93  0.001877  (-0.019504 -0.029409  0.025135)
 20:   1123.05   0.007968   40.27  0.002214  (-0.027522 -0.031375  0.021731)
 21:   1141.69   0.003847   19.44  0.001051  (-0.019442 -0.015420  0.020874)
 22:   1236.72   0.028679  144.93  0.007237  ( 0.043231  0.052757 -0.050837)
 23:   1280.99   0.004116   20.80  0.001003  ( 0.026595  0.014864 -0.008624)
 24:   1320.85   0.000594    3.00  0.000140  ( 0.001951 -0.006482  0.009724)
 25:   1370.19   0.006021   30.43  0.001371  ( 0.028520  0.021741 -0.009238)
 26:   1417.69   0.000507    2.56  0.000112  ( 0.010366  0.001135 -0.001665)
 27:   1432.73   0.012279   62.05  0.002675  (-0.036592 -0.025048  0.026612)
 28:   1460.45   0.001929    9.75  0.000412  (-0.003219 -0.019554 -0.004422)
 29:   1504.21   0.003101   15.67  0.000643  (-0.000130  0.023084 -0.010507)
 30:   1522.53   0.000348    1.76  0.000071  (-0.002583 -0.007562 -0.002730)
 31:   1532.22   0.003009   15.21  0.000613  ( 0.018290  0.016296  0.003564)
 32:   1533.26   0.001685    8.51  0.000343  ( 0.001071 -0.013387  0.012750)
 33:   1893.31   0.076440  386.30  0.012599  (-0.033766  0.025395 -0.103991)
 34:   3103.77   0.004242   21.44  0.000427  ( 0.008783 -0.012503 -0.013896)
 35:   3117.80   0.004380   22.14  0.000438  (-0.011634 -0.000192 -0.017408)
 36:   3130.69   0.001954    9.87  0.000195  (-0.001295  0.011984  0.007033)
 37:   3168.69   0.000347    1.75  0.000034  ( 0.003222  0.004851 -0.000513)
 38:   3194.41   0.003380   17.08  0.000330  (-0.014109 -0.011369  0.001379)
 39:   3199.38   0.002955   14.93  0.000288  (-0.011124  0.007969 -0.010050)
 40:   3205.00   0.002169   10.96  0.000211  ( 0.007830  0.008420 -0.008888)
 41:   3880.46   0.021488  108.59  0.001728  ( 0.034151  0.021943  0.008960)

* The epsilon (eps) is given for a Dirac delta lineshape.
** The dipole moment derivative (T) already includes vibrational overlap.

The first frequency considered to be a vibration is 6
The total number of vibrations considered is 36


--------------------------
THERMOCHEMISTRY AT 298.15K
--------------------------

Temperature         ...   298.15 K
Pressure            ...     1.00 atm
Total Mass          ...    88.11 AMU
Quasi RRHO          ...     True
Cut-Off Frequency   ...     1.00 cm^-1

Throughout the following assumptions are being made:
  (1) The electronic state is orbitally nondegenerate
  (2) There are no thermally accessible electronically excited states
  (3) Hindered rotations indicated by low frequency modes are not
      treated as such but are treated as vibrations and this may
      cause some error
  (4) All equations used are the standard statistical mechanics
      equations for an ideal gas
  (5) All vibrations are strictly harmonic

freq.      37.90  E(vib)   ...       0.54 
freq.     108.60  E(vib)   ...       0.45 
freq.     199.70  E(vib)   ...       0.35 
freq.     280.21  E(vib)   ...       0.28 
freq.     384.32  E(vib)   ...       0.20 
freq.     462.56  E(vib)   ...       0.16 
freq.     574.65  E(vib)   ...       0.11 
freq.     619.69  E(vib)   ...       0.09 
freq.     720.89  E(vib)   ...       0.07 
freq.     794.52  E(vib)   ...       0.05 
freq.     892.01  E(vib)   ...       0.03 
freq.     917.16  E(vib)   ...       0.03 
freq.     942.74  E(vib)   ...       0.03 
freq.    1083.50  E(vib)   ...       0.02 
freq.    1123.05  E(vib)   ...       0.01 
freq.    1141.69  E(vib)   ...       0.01 
freq.    1236.72  E(vib)   ...       0.01 
freq.    1280.99  E(vib)   ...       0.01 
freq.    1320.85  E(vib)   ...       0.01 
freq.    1370.19  E(vib)   ...       0.01 
freq.    1417.69  E(vib)   ...       0.00 
freq.    1432.73  E(vib)   ...       0.00 
freq.    1460.45  E(vib)   ...       0.00 
freq.    1504.21  E(vib)   ...       0.00 
freq.    1522.53  E(vib)   ...       0.00 
freq.    1532.22  E(vib)   ...       0.00 
freq.    1533.26  E(vib)   ...       0.00 
freq.    1893.31  E(vib)   ...       0.00 
freq.    3103.77  E(vib)   ...       0.00 
freq.    3117.80  E(vib)   ...       0.00 
freq.    3130.69  E(vib)   ...       0.00 
freq.    3168.69  E(vib)   ...       0.00 
freq.    3194.41  E(vib)   ...       0.00 
freq.    3199.38  E(vib)   ...       0.00 
freq.    3205.00  E(vib)   ...       0.00 
freq.    3880.46  E(vib)   ...       0.00 

------------
INNER ENERGY
------------

The inner energy is: U= E(el) + E(ZPE) + E(vib) + E(rot) + E(trans)
    E(el)   - is the total energy from the electronic structure calculation
              = E(kin-el) + E(nuc-el) + E(el-el) + E(nuc-nuc)
    E(ZPE)  - the the zero temperature vibrational energy from the frequency calculation
    E(vib)  - the the finite temperature correction to E(ZPE) due to population
              of excited vibrational states
    E(rot)  - is the rotational thermal energy
    E(trans)- is the translational thermal energy

Summary of contributions to the inner energy U:
Electronic energy                ...    -59.76289475 Eh
Zero point energy                ...      0.12253926 Eh      76.89 kcal/mol
Thermal vibrational correction   ...      0.00397826 Eh       2.50 kcal/mol
Thermal rotational correction    ...      0.00141627 Eh       0.89 kcal/mol
Thermal translational correction ...      0.00141627 Eh       0.89 kcal/mol
-----------------------------------------------------------------------
Total thermal energy                    -59.63354468 Eh


Summary of corrections to the electronic energy:
(perhaps to be used in another calculation)
Total thermal correction                  0.00681081 Eh       4.27 kcal/mol
Non-thermal (ZPE) correction              0.12253926 Eh      76.89 kcal/mol
-----------------------------------------------------------------------
Total correction                          0.12935007 Eh      81.17 kcal/mol


--------
ENTHALPY
--------

The enthalpy is H = U + kB*T
                kB is Boltzmann's constant
Total thermal energy              ...    -59.63354468 Eh 
Thermal Enthalpy correction       ...      0.00094421 Eh       0.59 kcal/mol
-----------------------------------------------------------------------
Total Enthalpy                    ...    -59.63260047 Eh


Note: Only C1 symmetry has been detected, increase convergence thresholds 
      if your molecule has a higher symmetry. Symmetry factor of 1.0 is   
      used for the rotational entropy correction. 
 

Note: Rotational entropy computed according to Herzberg 
Infrared and Raman Spectra, Chapter V,1, Van Nostrand Reinhold, 1945 
Point Group:  C1, Symmetry Number:   1  
Rotational constants in cm-1:     0.193927     0.079320     0.075446 

Vibrational entropy computed according to the QRRHO of S. Grimme
Chem.Eur.J. 2012 18 9955 using a reference frequency of 100.0 cm-1


-------
ENTROPY
-------

The entropy contributions are T*S = T*(S(el)+S(vib)+S(rot)+S(trans))
     S(el)   - electronic entropy
     S(vib)  - vibrational entropy
     S(rot)  - rotational entropy
     S(trans)- translational entropy
The entropies will be listed as multiplied by the temperature to get
units of energy

Electronic entropy                ...      0.00000000 Eh      0.00 kcal/mol
Vibrational entropy               ...      0.00691858 Eh      4.34 kcal/mol
Rotational entropy                ...      0.01270161 Eh      7.97 kcal/mol
Translational entropy             ...      0.01869190 Eh     11.73 kcal/mol
-----------------------------------------------------------------------
Final entropy term                ...      0.03831209 Eh     24.04 kcal/mol

In case the symmetry of your molecule has not been determined correctly
or in case you have a reason to use a different symmetry number we print 
out the resulting rotational entropy values for sn=1,12:

 non-linear molecules -----------------------------------
|  sn= 1 | S(rot)=       0.01270161 Eh      7.97 kcal/mol|
|  sn= 2 | S(rot)=       0.01204716 Eh      7.56 kcal/mol|
|  sn= 3 | S(rot)=       0.01166432 Eh      7.32 kcal/mol|
|  sn= 4 | S(rot)=       0.01139270 Eh      7.15 kcal/mol|
|  sn= 5 | S(rot)=       0.01118201 Eh      7.02 kcal/mol|
|  sn= 6 | S(rot)=       0.01100987 Eh      6.91 kcal/mol|
|  sn= 7 | S(rot)=       0.01086432 Eh      6.82 kcal/mol|
|  sn= 8 | S(rot)=       0.01073824 Eh      6.74 kcal/mol|
|  sn= 9 | S(rot)=       0.01062704 Eh      6.67 kcal/mol|
|  sn=10 | S(rot)=       0.01052756 Eh      6.61 kcal/mol|
|  sn=11 | S(rot)=       0.01043757 Eh      6.55 kcal/mol|
|  sn=12 | S(rot)=       0.01035541 Eh      6.50 kcal/mol|
 linear molecules ---------------------------------------
|  Dinfh | S(rot)=       0.00776589 Eh      4.87 kcal/mol|
|  Cinfv | S(rot)=       0.00842035 Eh      5.28 kcal/mol|
 --------------------------------------------------------


-------------------
GIBBS FREE ENERGY
-------------------

The Gibbs free energy is G = H - T*S

Total enthalpy                    ...    -59.63260047 Eh 
Total entropy correction          ...     -0.03831209 Eh    -24.04 kcal/mol
-----------------------------------------------------------------------
Final Gibbs free energy         ...    -59.67091256 Eh

For completeness - the Gibbs free energy minus the electronic energy
G-E(el)                           ...      0.09198218 Eh     57.72 kcal/mol


Maximum memory used throughout the entire PROP-calculation: 41.9 MB

--------------------------------
SUGGESTED CITATIONS FOR THIS RUN
--------------------------------

Below you find a list of papers that are relevant to this ORCA run
We neither can nor want to force you to cite these papers, but we appreciate if you do
You receive ORCA, which is the product of decades of hard work by many enthusiastic individuals, for free
The only thing we kindly ask in return is that you cite our papers,
We deeply appreciate it, if you show your appreciation for ORCA by not just citing the generic ORCA reference.

Please note that relegating all ORCA citations to the supporting information does *not* help us.
SI sections are not indexed - citations you put there will not count into any citation statistics
But we need these citations in order to attract the funding resources that allow us to do what we are doing

Therefore, if you are a happy ORCA user, please consider citing a few of the papers listed below in the main body of your paper

In addition to the list printed below, the program has created the file ./output/butyric_acid/butyric_acid.bibtex that contains the list in bibtex format
You can import this file easily into all common literature databanks and citation aid programs


List of essential papers. We consider these as the minimum necessary citations

  1. Neese,F.
     Software update: the ORCA program system, version 5.0
     WIRES Comput. Molec. Sci., 2022 12(1)e1606
     doi.org/10.1002/wcms.1606
  2. Mueller,M.; Hansen,A.; Grimme,S.
     wB97X-3c: A composite range-separated hybrid DFT method with a molecule-optimized polarized valence double-zeta basis set
     J. Chem. Phys., 2023 158 014103
     doi.org/10.1063/5.0133026

List of papers to cite with high priority. The work reported in these papers was absolutely
necessary for this run to complete.
Our perspective: the developers of density functionals and basis sets usually get cited in chemistry papers
Good! But without the algorithms to do something with them, the functionals or basis sets would not do anything.
Hence, in our opinion, the algorithm design and method developments papers are equally worthy of getting cited

  1. Neese,F.
     An improvement of the resolution of the identity approximation for the formation of the Coulomb matrix
     J. Comp. Chem., 2003 24(14)1740-1747
     doi.org/10.1002/jcc.10318
  2. Neese,F.; Wennmohs,F.; Hansen,A.; Becker,U.
     Efficient, approximate and parallel Hartree-Fock and hybrid DFT calculations. A 'chain-of-spheres' algorithm for the Hartree-Fock exchange
     Chem. Phys., 2009 356(1-3)98-109
     doi.org/10.1016/j.chemphys.2008.10.036
  3. Bykov,D.; Petrenko,T.; Izsak,R.; Kossmann,S.; Becker,U.; Valeev,E.; Neese,F.
     Efficient implementation of the analytic second derivatives of Hartree-Fock and hybrid DFT energies: a detailed analysis of different approximations
     Molec. Phys., 2015 113 1961-1977
     doi.org/10.1080/00268976.2015.1025114
  4. Helmich-Paris,B.; de Souza,B.; Neese,F.; Izsák,R.
     An improved chain of spheres for exchange algorithm
     J. Chem. Phys., 2021 155 104109
     doi.org/doi: 10.1063/5.0058766.
  5. Neese,F.
     The SHARK Integral Generation and Digestion System
     J. Comp. Chem., 2022  1-16
     doi.org/10.1002/jcc.26942
  6. Caldeweyher,E.; Bannwarth,C.; Grimme,S.
     Extension of the D3 dispersion coefficient model
     J. Chem. Phys., 2017 147 034112
     doi.org/10.1063/1.4993215
  7. Caldeweyher,E.; Ehlert,S.; Hansen,A.; Neugebauer,H.; Spicher,S.; Bannwarth,C.; Grimme,S.
     A generally applicable atomic-charge dependent London dispersion correction
     J. Chem. Phys., 2019 150 154122
     doi.org/10.1063/1.5090222
  8. Caldeweyher,E.; Mewes,J.; Ehlert,S.; Grimme,S.
     Extension and evaluation of the D4 London-dispersion model for periodic systems
     Phys. Chem. Chem. Phys., 2020 22(16)8499-8512
     doi.org/10.1039/D0CP00502A
  9. Wittmann,L.; Gordiy,I.; Friede,M.; Helmich-Paris,B.; Grimme,S.; Hansen,A.; Bursch,M.
     Extension of the D3 and D4 London Dispersion Corrections to the full Actinides Series
     Phys. Chem. Chem. Phys., 2024 26(32)21379-21394
     doi.org/https://doi.org/10.1039/D4CP01514B 

List of suggested additional citations. These are papers that are important in the 'surrounding' of 
of this run, or papers that preceded the highly important papers. If you like your results we are grateful for a citation.

  1. Izsak,R.; Neese,F.
     An overlap fitted chain of spheres exchange method
     J. Chem. Phys., 2011 135 144105
     doi.org/10.1063/1.3646921
  2. Izsak,R.; Hansen,A.; Neese,F.
     The resolution of identity and chain of spheres approximations for the LPNO-CCSD singles Fock term
     Molec. Phys., 2012 110 2413-2417
     doi.org/10.1080/00268976.2012.687466
  3. Neese,F.
     The ORCA program system
     WIRES Comput. Molec. Sci., 2012 2(1)73-78
     doi.org/10.1002/wcms.81
  4. Izsak,R.; Neese,F.; Klopper,W.
     Robust fitting techniques in the chain of spheres approximation to the Fock exchange: The role of the complementary space
     J. Chem. Phys., 2013 139 
     doi.org/10.1063/1.4819264
  5. Neese,F.
     Software update: the ORCA program system, version 4.0
     WIRES Comput. Molec. Sci., 2018 8(1)1-6
     doi.org/10.1002/wcms.1327
  6. Neese,F.; Wennmohs,F.; Becker,U.; Riplinger,C.
     The ORCA quantum chemistry program package
     J. Chem. Phys., 2020 152 Art. No. L224108
     doi.org/10.1063/5.0004608

List of optional additional citations

  1. Neese,F.
     Approximate second-order SCF convergence for spin unrestricted wavefunctions
     Chem. Phys. Lett., 2000 325(1-3)93-98
     doi.org/10.1016/s0009-2614(00)00662-x

Timings for individual modules:

Sum of individual times          ...      411.789 sec (=   6.863 min)
Startup calculation              ...       33.912 sec (=   0.565 min)   8.2 %
SCF iterations                   ...      280.257 sec (=   4.671 min)  68.1 %
Property integrals               ...       17.608 sec (=   0.293 min)   4.3 %
SCF Response                     ...       13.893 sec (=   0.232 min)   3.4 %
Property calculations            ...       20.337 sec (=   0.339 min)   4.9 %
SCF Gradient evaluation          ...       45.635 sec (=   0.761 min)  11.1 %
Geometry relaxation              ...        0.147 sec (=   0.002 min)   0.0 %
                             ****ORCA TERMINATED NORMALLY****
TOTAL RUN TIME: 0 days 0 hours 6 minutes 58 seconds 562 msec
