
                                 *****************
                                 * O   R   C   A *
                                 *****************

                                            #,                                       
                                            ###                                      
                                            ####                                     
                                            #####                                    
                                            ######                                   
                                           ########,                                 
                                     ,,################,,,,,                         
                               ,,#################################,,                 
                          ,,##########################################,,             
                       ,#########################################, ''#####,          
                    ,#############################################,,   '####,        
                  ,##################################################,,,,####,       
                ,###########''''           ''''###############################       
              ,#####''   ,,,,##########,,,,          '''####'''          '####       
            ,##' ,,,,###########################,,,                        '##       
           ' ,,###''''                  '''############,,,                           
         ,,##''                                '''############,,,,        ,,,,,,###''
      ,#''                                            '''#######################'''  
     '                                                          ''''####''''         
             ,#######,   #######,   ,#######,      ##                                
            ,#'     '#,  ##    ##  ,#'     '#,    #''#        ,####,   ,####,        
            ##       ##  ##   ,#'  ##            #'  '#       #'       #'  '#        
            ##       ##  #######   ##           ,######,      #####,   #    #        
            '#,     ,#'  ##    ##  '#,     ,#' ,#      #,     #,   #   #,  ,#        
             '#######'   ##     ##  '#######'  #'      '#     '####' # '####'        



                #########################################################
                #                        -***-                          #
                #          Department of theory and spectroscopy        #
                #                                                       #
                #                      Frank Neese                      #
                #                                                       #
                #     Directorship, Architecture, Infrastructure        #
                #                    SHARK, DRIVERS                     #
                #        Core code/Algorithms in most modules           #
                #                                                       #
                #        Max Planck Institute fuer Kohlenforschung      #
                #                Kaiser Wilhelm Platz 1                 #
                #                 D-45470 Muelheim/Ruhr                 #
                #                      Germany                          #
                #                                                       #
                #                  All rights reserved                  #
                #                        -***-                          #
                #########################################################


                         Program Version 6.0.1  -  RELEASE   -


 With contributions from (in alphabetic order):
[Max-Planck-Institut fuer Kohlenforschung]                               
  Daniel Aravena         : Magnetic Suceptibility                        
  Michael Atanasov       : Ab Initio Ligand Field Theory (pilot matlab implementation)
  Alexander A. Auer      : GIAO ZORA, VPT2 properties, NMR spectrum      
  Ute Becker             : All parallelization in ORCA, NUMFREQ, NUMCALC 
  Giovanni Bistoni       : ED, misc. LED, open-shell LED, HFLD           
  Martin Brehm           : Molecular dynamics                            
  Dmytro Bykov           : pre 5.0 version of the SCF Hessian            
  Marcos Casanova-Páez   : Triplet and SCS-CIS(D). UHF-(DLPNO)-IP/EA/STEOM-CCSD. UHF-CVS-IP/STEOM-CCSD   
  Vijay G. Chilkuri      : MRCI spin determinant printing, contributions to CSF-ICE 
  Pauline Colinet        : FMM embedding                                 
  Dipayan Datta          : RHF DLPNO-CCSD density                        
  Achintya Kumar Dutta   : EOM-CC, STEOM-CC                              
  Nicolas Foglia         : Exact transition moments, OPA infrastructure, MCD improvements    
  Dmitry Ganyushin       : Spin-Orbit,Spin-Spin,Magnetic field MRCI      
  Miquel Garcia-Rates    : C-PCM and meta-GGA Hessian, CCSD/C-PCM, Gaussian charge scheme 
  Tiago L. C. Gouveia    : GS-ROHF, GS-ROCIS                             
  Yang Guo               : DLPNO-NEVPT2, F12-NEVPT2, CIM, IAO-localization        
  Andreas Hansen         : Spin unrestricted coupled pair/coupled cluster methods 
  Ingolf Harden          : AUTO-CI MPn and infrastructure                
  Benjamin Helmich-Paris : MC-RPA, TRAH-(SCF,CASSCF), AVAS, COSX integrals, SCF dyn. polar. 
  Lee Huntington         : MR-EOM, pCC                                   
  Robert Izsak           : Overlap fitted RIJCOSX, COSX-SCS-MP3, EOM     
  Riya Kayal             : Wick's Theorem for AUTO-CI, AUTO-CI UHF-CCSDT 
  Emily Kempfer          : AUTO-CI, RHF CISDT and CCSDT                  
  Christian Kollmar      : KDIIS, OOCD, Brueckner-CCSD(T), CCSD density, CASPT2, CASPT2-K, improved NEVPT2 
  Axel Koslowski         : Symmetry handling                             
  Simone Kossmann        : meta-GGA functionals, TD-DFT gradient, OOMP2, (MP2 Hessian; deprecated post 5.0) 
  Lucas Lang             : DCDCAS                                        
  Marvin Lechner         : AUTO-CI (C++ implementation), FIC-MRCC        
  Spencer Leger          : CASSCF response                               
  Dagmar Lenk            : GEPOL surface, SMD, ORCA-2-JSON               
  Dimitrios Liakos       : Extrapolation schemes; Compound Job, initial MDCI parallelization 
  Dimitrios Manganas     : Further ROCIS development; embedding schemes. LFT, Crystal Embedding 
  Dimitrios Pantazis     : SARC Basis sets                               
  Anastasios Papadopoulos: AUTO-CI, single reference methods and gradients 
  Taras Petrenko         : pre 6.0 DFT Hessian and TD-DFT gradient, (ASA, deprecated), ECA, 1-Electron XAS/XES, NRVS 
  Peter Pinski           : DLPNO-MP2, DLPNO-MP2 Gradient                 
  Christoph Reimann      : Effective Core Potentials                     
  Marius Retegan         : Local ZFS, SOC                                
  Christoph Riplinger    : Optimizer, TS searches, QM/MM, DLPNO-CCSD(T), (RO)-DLPNO pert. Triples 
  Michael Roemelt        : Original ROCIS implementation                 
  Masaaki Saitow         : Open-shell DLPNO-CCSD energy and density      
  Barbara Sandhoefer     : DKH picture change effects                    
  Kantharuban Sivalingam : CASSCF convergence/infrastructure, NEVPT2 and variants, FIC-MRCI 
  Bernardo de Souza      : ESD, SOC TD-DFT                               
  Georgi L. Stoychev     : AutoAux, RI-MP2 NMR, DLPNO-MP2 response, X2C  
  Van Anh Tran           : RI-MP2 g-tensors                              
  Willem Van den Heuvel  : Paramagnetic NMR                              
  Zikuan Wang            : NOTCH, Electric field optimization            
  Frank Wennmohs         : Technical directorship and infrastructure     
  Hang Xu                : AUTO-CI-Response properties                   
                                                                         
[FACCTs GmbH]                                                            
  Markus Bursch, Miquel Garcia-Rates, Christoph Riplinger, Bernardo de Souza, Georgi L. Stoychev 
                                                                 
  APM, Basis sets (HGBS, AHGBS, def-TZVP (Ac-Lr), def2-XVPD (La-Lu)), CI-OPT, improved COSX, DLPNO-Multilevel,           
  DOCKER, DRACO, updates on ESD, GOAT, IRC, LR-CPCM, MBIS, meta-GGA TD-DFT gradient, ML-optimized integration grids, 
  MM, NACMEs, nearIR, NEB, NEB-TS, NL-DFT gradient (VV10), 2- and 3-layer-ONIOM, interface openCOSMO-RS, QMMM,   
  Crystal-QMMM, SF, symmetry and pop. for TD-DFT, r2SCAN hybrids, SOLVATOR                                   
                                                                         
[Other institutions]                                                     
  V. Asgeirsson          : NEB                                           
  Christoph Bannwarth    : sTDA-DFT, sTD-DFT, PBEh-3c, B97-3c, D3        
  Sebastian Ehlert       : rSCAN, r2SCAN, r2SCAN-3c, D4, dhf basis sets  
  Marvin Friede          : D4 for Fr, Ra, Ac-Lr                          
  Lars Goerigk           : TD-DFT with DH, B97 family of functionals     
  Stefan Grimme          : VdW corrections, initial TS optimization, DFT functionals, gCP, sTDA/sTD-DF 
  Waldemar Hujo          : DFT-NL                                        
  H. Jonsson             : NEB                                           
  Holger Kruse           : gCP                                           
  Marcel Mueller         : wB97X-3c, vDZP basis set                      
  Hagen Neugebauer       : wr2SCAN                                       
  Tobias Risthaus        : range-separated hybrid DFT                    
  Lukas Wittmann         : regularized MP2, r2SCAN double-hybrids, wr2SCAN        
                                                                         
We gratefully acknowledge several colleagues who have allowed us to      
interface, adapt or use parts of their codes:                            
  Ed Valeev, F. Pavosevic, A. Kumar             : LibInt (2-el integral package), F12 methods 
  Garnet Chan, S. Sharma, J. Yang, R. Olivares  : DMRG                   
  Ulf Ekstrom                                   : XCFun DFT Library      
  Mihaly Kallay                                 : mrcc  (arbitrary order and MRCC methods)
  Frank Weinhold                                : gennbo (NPA and NBO analysis)           
  Simon Mueller                                 : openCOSMO-RS                            
  Christopher J. Cramer and Donald G. Truhlar   : smd solvation model                     
  S Lehtola, MJT Oliveira, MAL Marques          : LibXC Library                           
  Liviu Ungur et al                             : ANISO software                          


 Your calculation uses the libint2 library for the computation of 2-el integrals
 For citations please refer to: http://libint.valeyev.net

 Your ORCA version has been built with support for libXC version: 6.2.2
 For citations please refer to: https://libxc.gitlab.io

 This ORCA versions uses:
   CBLAS   interface :  Fast vector & matrix operations
   LAPACKE interface :  Fast linear algebra routines
   SCALAPACK package :  Parallel linear algebra routines
   Shared memory     :  Shared parallel matrices
   BLAS/LAPACK       :  OpenBLAS 0.3.27  USE64BITINT DYNAMIC_ARCH NO_AFFINITY SkylakeX SINGLE_THREADED
        Core in use  :  SkylakeX
   Copyright (c) 2011-2014, The OpenBLAS Project


Your calculation utilizes the atom-pairwise dispersion correction
based on EEQ partial charges (D4)


================================================================================

cite the ECPs for C  [vDZP-ECP], O  [vDZP-ECP] as follows:
   B-Ne (ecp-2-mwb), Al-Ar (ecp-10-mwb), Ga-Kr (ecp-28-mwb), Y-Cd (ecp-28-mwb), In-Xe (ecp-46-mwb):
     A. Bergner, M. Dolg, W. Küchle, H. Stoll, and H. Preuß, Mol. Phys. 80, 1431 (1993)., T. Leininger, A. Berning, A. Nicklass, H. Stoll, H.-J. Werner, and H.-J.Flad, Chem. Phys. 217, 19 (1997).
   Na-Mg, K-Ca, Rb-Sr, Cs-Ba (CRENBL):
     L. Fernandez Pacios and P. A. Christiansen, J. Chem. Phys. 82, 2664 (1985)., M. M. Hurley, L. F. Pacios, P. A. Christiansen, R. B. Ross, and W. C. Ermler, J. Chem. Phys. 84, 6840 (1986)., L. A. LaJohn, P. A. Christiansen, R. B. Ross, T. Atashroo, and W. C. Ermler, J. Chem. Phys. 87, 2812 (1987)., R. B. Ross, J. M. Powers, T. Atashroo, W. C. Ermler, L. A. LaJohn, and P. A. Christiansen, J. Chem. Phys. 93, 6654 (1990). 
   Sc-Zn (ecp-10-mdf):
     M. Dolg, U. Wedig, H. Stoll, and H. Preuss, J. Chem. Phys. 86, 866 (1986). 
   Y-Cd (ecp-28-mwb), Hf-Hg (ecp-60-mwb):
     D. Andrae, U. Häußermann, M. Dolg, H. Stoll, and H. Preuß, Theor. Chim. Acta 77, 123 (1990). 
   La (ecp-46-mwb):
     M. Dolg, H. Stoll, and H. Preuss, J. Chem. Phys. 90, 1730 (1989)., M. Dolg, H. Stoll, and H. Preuss, Theor. Chim. Acta 85, 441 (1993).
   Ce-Lu (SBKJC-ecp):
     T. R. Cundari and W. J. Stevens, J. Chem. Phys. 98, 5555 (1993).
   Tl-Rn (ecp-78-mwb):
     W. Küchle, M. Dolg, H. Stoll, and H. Preuss, Mol. Phys. 74, 1245 (1991).

ECP parameters for C  [vDZP-ECP], O  [vDZP-ECP] have been obtained from:
MM, AH, SG, J. Chem. Phys. 158, 014103 (2023), 10.1063/5.0133026

----- Orbital basis set information -----
Your calculation utilizes the basis: vDZP
   Marcel Mueller, Andreas Hansen, Stefan Grimme 
   J. Chem. Phys. 158, 014103 (2023). DOI: 10.1063/5.0133026

----- AuxJ basis set information -----
Your calculation utilizes the auxiliary basis: def2/J
   F. Weigend, Phys. Chem. Chem. Phys. 8, 1057 (2006).

================================================================================
                                        WARNINGS
                       Please study these warnings very carefully!
================================================================================

WARNING: Frozen-Core approximation turned on, but there are no core electrons.
  ===> : Turning off frozen-core approximation


WARNING: Geometry Optimization
  ===> : Switching off AutoStart
         For restart on a previous wavefunction, please use MOREAD

================================================================================
                                       INPUT FILE
================================================================================
NAME = ./output/menthone/menthone.inp
|  1> ! wB97X-3c OPT FREQ TightSCF
|  2> %pal
|  3>   nprocs 40
|  4> end
|  5> * xyz 0 1
|  6> C      3.397875    -0.436031    -0.402603
|  7> C      2.253867     0.222013     0.379265
|  8> C      1.469607     1.231387    -0.513416
|  9> C      0.039908     0.772827    -0.839331
| 10> C     -0.770791     0.535335     0.458617
| 11> C      0.036284    -0.287246     1.441129
| 12> O     -0.383151    -0.479105     2.572796
| 13> C      1.360018    -0.863683     1.023382
| 14> C     -2.176974    -0.089444     0.213651
| 15> C     -2.127526    -1.490545    -0.420254
| 16> C     -3.078658     0.837434    -0.614516
| 17> H      4.103961     0.338235    -0.771749
| 18> H      2.999484    -1.002982    -1.271418
| 19> H      3.961957    -1.132271     0.254367
| 20> H      2.719456     0.801710     1.208150
| 21> H      2.006147     1.428207    -1.467664
| 22> H      1.408322     2.208145     0.015935
| 23> H      0.100671    -0.152015    -1.450063
| 24> H     -0.450692     1.558103    -1.452925
| 25> H     -0.923546     1.529912     0.935110
| 26> H      1.162598    -1.681890     0.296677
| 27> H      1.882588    -1.307775     1.899283
| 28> H     -2.668199    -0.199001     1.206675
| 29> H     -1.463571    -2.164141     0.160323
| 30> H     -1.773497    -1.447542    -1.470954
| 31> H     -3.144643    -1.937374    -0.420312
| 32> H     -3.105863     1.853090    -0.165605
| 33> H     -2.719233     0.913739    -1.662285
| 34> H     -4.116397     0.440908    -0.630757
| 35> *
| 36> 
| 37>                          ****END OF INPUT****
================================================================================

                       *****************************
                       * Geometry Optimization Run *
                       *****************************

Geometry optimization settings:
Update method            Update   .... BFGS
Choice of coordinates    CoordSys .... (2022) Redundant Internals
Initial Hessian          InHess   .... Almloef's Model
Max. no of cycles        MaxIter  .... 87

Convergence Tolerances:
Energy Change            TolE     ....  5.0000e-06 Eh
Max. Gradient            TolMAXG  ....  3.0000e-04 Eh/bohr
RMS Gradient             TolRMSG  ....  1.0000e-04 Eh/bohr
Max. Displacement        TolMAXD  ....  4.0000e-03 bohr
RMS Displacement         TolRMSD  ....  2.0000e-03 bohr
Strict Convergence                .... False

------------------------------------------------------------------------------
                        ORCA OPTIMIZATION COORDINATE SETUP
------------------------------------------------------------------------------

The optimization will be done in redundant internal coordinates (2022)
Making redundant internal coordinates   ...  (2022 redundants) done
Evaluating the initial hessian          ...  (Almloef) done
Evaluating the coordinates              ...  done
Calculating the B-matrix                .... done
Calculating the G-matrix                .... done
Diagonalizing the G-matrix              .... done
Small eigenvalue found = 1.986e-02
Small eigenvalue found = 2.591e-02
The first mode is                       ....   63
The number of degrees of freedom        ....   81

    -----------------------------------------------------------------
                    Redundant Internal Coordinates


    -----------------------------------------------------------------
         Definition                    Initial Value    Approx d2E/dq
    -----------------------------------------------------------------
      1. B(C   1,C   0)                  1.5340         0.368153   
      2. B(C   2,C   1)                  1.5591         0.335705   
      3. B(C   3,C   2)                  1.5364         0.364889   
      4. B(C   4,C   3)                  1.5486         0.348842   
      5. B(C   5,C   4)                  1.5144         0.395642   
      6. B(O   6,C   5)                  1.2220         1.037121   
      7. B(C   7,C   5)                  1.5030         0.412501   
      8. B(C   7,C   1)                  1.5468         0.351217   
      9. B(C   8,C   4)                  1.5581         0.336922   
     10. B(C   9,C   8)                  1.5386         0.361925   
     11. B(C  10,C   8)                  1.5356         0.365999   
     12. B(H  11,C   0)                  1.1110         0.333368   
     13. B(H  12,C   0)                  1.1113         0.332997   
     14. B(H  13,C   0)                  1.1111         0.333239   
     15. B(H  14,C   1)                  1.1135         0.330322   
     16. B(H  15,C   2)                  1.1123         0.331781   
     17. B(H  16,C   2)                  1.1127         0.331331   
     18. B(H  17,C   3)                  1.1100         0.334636   
     19. B(H  18,C   3)                  1.1108         0.333627   
     20. B(H  19,C   4)                  1.1134         0.330491   
     21. B(H  20,C   7)                  1.1120         0.332145   
     22. B(H  21,C   7)                  1.1124         0.331618   
     23. B(H  22,C   8)                  1.1133         0.330579   
     24. B(H  23,C   9)                  1.1098         0.334847   
     25. B(H  24,C   9)                  1.1096         0.335114   
     26. B(H  25,C   9)                  1.1109         0.333440   
     27. B(H  26,C  10)                  1.1108         0.333641   
     28. B(H  27,C  10)                  1.1103         0.334188   
     29. B(H  28,C  10)                  1.1110         0.333321   
     30. A(C   1,C   0,H  12)          110.4861         0.319424   
     31. A(H  11,C   0,H  12)          108.8816         0.283864   
     32. A(C   1,C   0,H  13)          110.2458         0.319462   
     33. A(C   1,C   0,H  11)          110.1433         0.319482   
     34. A(H  12,C   0,H  13)          108.9399         0.283847   
     35. A(H  11,C   0,H  13)          108.0899         0.283896   
     36. A(C   0,C   1,H  14)          106.9128         0.319004   
     37. A(C   0,C   1,C   7)          110.0056         0.358652   
     38. A(C   2,C   1,C   7)          113.7133         0.353079   
     39. A(C   2,C   1,H  14)          107.4274         0.314250   
     40. A(C   0,C   1,C   2)          111.1636         0.355909   
     41. A(C   7,C   1,H  14)          107.2811         0.316565   
     42. A(C   1,C   2,H  16)          108.8832         0.314406   
     43. A(C   3,C   2,H  15)          108.6446         0.318770   
     44. A(C   1,C   2,H  15)          111.2920         0.314475   
     45. A(C   3,C   2,H  16)          108.1601         0.318699   
     46. A(C   1,C   2,C   3)          113.3481         0.355372   
     47. A(H  15,C   2,H  16)          106.2234         0.283433   
     48. A(C   4,C   3,H  17)          111.2252         0.316884   
     49. A(C   2,C   3,H  17)          108.3284         0.319216   
     50. A(C   2,C   3,C   4)          110.8004         0.357696   
     51. A(H  17,C   3,H  18)          108.0160         0.284115   
     52. A(C   4,C   3,H  18)          109.8878         0.316729   
     53. A(C   2,C   3,H  18)          108.4921         0.319059   
     54. A(C   5,C   4,C   8)          111.4181         0.360517   
     55. A(C   3,C   4,C   8)          113.7138         0.352890   
     56. A(C   8,C   4,H  19)          107.5578         0.314461   
     57. A(C   3,C   4,C   5)          110.3694         0.362663   
     58. A(C   5,C   4,H  19)          106.3010         0.322810   
     59. A(C   3,C   4,H  19)          107.0692         0.316242   
     60. A(C   4,C   5,O   6)          120.2096         0.436320   
     61. A(O   6,C   5,C   7)          119.9638         0.439616   
     62. A(C   4,C   5,C   7)          119.8260         0.373244   
     63. A(H  20,C   7,H  21)          107.7114         0.283520   
     64. A(C   1,C   7,C   5)          110.8233         0.365684   
     65. A(C   5,C   7,H  21)          110.3640         0.325211   
     66. A(C   1,C   7,H  21)          109.6714         0.316767   
     67. A(C   5,C   7,H  20)          107.9069         0.325296   
     68. A(C   1,C   7,H  20)          110.2987         0.316849   
     69. A(C   9,C   8,C  10)          110.2628         0.360131   
     70. A(C   4,C   8,C  10)          111.8820         0.355773   
     71. A(C   4,C   8,C   9)          113.6354         0.355098   
     72. A(C  10,C   8,H  22)          106.3418         0.318739   
     73. A(C   9,C   8,H  22)          106.9812         0.318158   
     74. A(C   4,C   8,H  22)          107.3039         0.314475   
     75. A(H  24,C   9,H  25)          107.9183         0.284154   
     76. A(H  23,C   9,H  25)          107.6769         0.284118   
     77. A(C   8,C   9,H  25)          109.6855         0.318605   
     78. A(H  23,C   9,H  24)          109.1485         0.284340   
     79. A(C   8,C   9,H  24)          111.4135         0.318865   
     80. A(C   8,C   9,H  23)          110.8794         0.318824   
     81. A(H  27,C  10,H  28)          108.2454         0.284016   
     82. A(H  26,C  10,H  28)          108.0211         0.283943   
     83. A(C   8,C  10,H  28)          109.9328         0.319169   
     84. A(H  26,C  10,H  27)          109.0542         0.284058   
     85. A(C   8,C  10,H  27)          111.1206         0.319304   
     86. A(C   8,C  10,H  26)          110.3855         0.319219   
     87. D(C   7,C   1,C   0,H  11)   -173.7678         0.010842   
     88. D(C   2,C   1,C   0,H  11)     59.3700         0.010842   
     89. D(C   2,C   1,C   0,H  12)    -60.9620         0.010842   
     90. D(C   7,C   1,C   0,H  12)     65.9002         0.010842   
     91. D(C   2,C   1,C   0,H  13)    178.5668         0.010842   
     92. D(C   7,C   1,C   0,H  13)    -54.5711         0.010842   
     93. D(C   3,C   2,C   1,C   0)    111.5683         0.009146   
     94. D(H  15,C   2,C   1,H  14)    105.3989         0.009146   
     95. D(C   3,C   2,C   1,H  14)   -131.7847         0.009146   
     96. D(H  15,C   2,C   1,C   7)   -136.0498         0.009146   
     97. D(C   3,C   2,C   1,C   7)    -13.2334         0.009146   
     98. D(H  15,C   2,C   1,C   0)    -11.2481         0.009146   
     99. D(C   4,C   3,C   2,H  16)    -62.9737         0.010662   
    100. D(C   4,C   3,C   2,H  15)   -177.8705         0.010662   
    101. D(C   4,C   3,C   2,C   1)     57.8619         0.010662   
    102. D(H  17,C   3,C   2,H  16)    174.7629         0.010662   
    103. D(H  17,C   3,C   2,H  15)     59.8660         0.010662   
    104. D(H  17,C   3,C   2,C   1)    -64.4016         0.010662   
    105. D(C   8,C   4,C   3,H  18)     66.8280         0.009810   
    106. D(C   8,C   4,C   3,C   2)   -173.2893         0.009810   
    107. D(C   5,C   4,C   3,H  18)   -167.1182         0.009810   
    108. D(C   5,C   4,C   3,H  17)     73.3220         0.009810   
    109. D(C   8,C   4,C   3,H  17)    -52.7318         0.009810   
    110. D(C   5,C   4,C   3,C   2)    -47.2355         0.009810   
    111. D(C   7,C   5,C   4,C   3)     -6.3528         0.011629   
    112. D(O   6,C   5,C   4,H  19)     57.6035         0.011629   
    113. D(O   6,C   5,C   4,C   8)    -59.2899         0.011629   
    114. D(O   6,C   5,C   4,C   3)    173.3761         0.011629   
    115. D(C   7,C   5,C   4,C   8)    120.9813         0.011629   
    116. D(C   5,C   7,C   1,C   2)    -37.9142         0.009933   
    117. D(C   5,C   7,C   1,C   0)   -163.3344         0.009933   
    118. D(H  21,C   7,C   5,C   4)    171.7787         0.012597   
    119. D(H  20,C   7,C   5,C   4)    -70.7722         0.012597   
    120. D(C   1,C   7,C   5,O   6)   -129.6414         0.012597   
    121. D(C   1,C   7,C   5,C   4)     50.0881         0.012597   
    122. D(H  20,C   7,C   1,H  14)   -159.8451         0.009933   
    123. D(H  20,C   7,C   1,C   2)     81.5197         0.009933   
    124. D(H  20,C   7,C   5,O   6)    109.4983         0.012597   
    125. D(H  20,C   7,C   1,C   0)    -43.9006         0.009933   
    126. D(C   5,C   7,C   1,H  14)     80.7211         0.009933   
    127. D(C  10,C   8,C   4,H  19)     55.4787         0.009207   
    128. D(C  10,C   8,C   4,C   5)    171.6051         0.009207   
    129. D(C  10,C   8,C   4,C   3)    -62.8967         0.009207   
    130. D(C   9,C   8,C   4,H  19)   -178.8487         0.009207   
    131. D(C   9,C   8,C   4,C   5)    -62.7223         0.009207   
    132. D(C   9,C   8,C   4,C   3)     62.7759         0.009207   
    133. D(H  24,C   9,C   8,H  22)    172.4290         0.010501   
    134. D(H  24,C   9,C   8,C  10)     57.1938         0.010501   
    135. D(H  24,C   9,C   8,C   4)    -69.3344         0.010501   
    136. D(H  23,C   9,C   8,H  22)    -65.7885         0.010501   
    137. D(H  23,C   9,C   8,C  10)    178.9763         0.010501   
    138. D(H  23,C   9,C   8,C   4)     52.4481         0.010501   
    139. D(H  27,C  10,C   8,H  22)   -173.8175         0.010723   
    140. D(H  27,C  10,C   8,C   9)    -58.1799         0.010723   
    141. D(H  27,C  10,C   8,C   4)     69.3239         0.010723   
    142. D(H  26,C  10,C   8,H  22)     65.0580         0.010723   
    143. D(H  26,C  10,C   8,C   9)   -179.3045         0.010723   
    144. D(H  26,C  10,C   8,C   4)    -51.8007         0.010723   
    -----------------------------------------------------------------

Number of atoms                         .... 29
Number of degrees of freedom            .... 144


         *************************************************************
         *                GEOMETRY OPTIMIZATION CYCLE   1            *
         *************************************************************
---------------------------------
CARTESIAN COORDINATES (ANGSTROEM)
---------------------------------
  C      3.397875   -0.436031   -0.402603
  C      2.253867    0.222013    0.379265
  C      1.469607    1.231387   -0.513416
  C      0.039908    0.772827   -0.839331
  C     -0.770791    0.535335    0.458617
  C      0.036284   -0.287246    1.441129
  O     -0.383151   -0.479105    2.572796
  C      1.360018   -0.863683    1.023382
  C     -2.176974   -0.089444    0.213651
  C     -2.127526   -1.490545   -0.420254
  C     -3.078658    0.837434   -0.614516
  H      4.103961    0.338235   -0.771749
  H      2.999484   -1.002982   -1.271418
  H      3.961957   -1.132271    0.254367
  H      2.719456    0.801710    1.208150
  H      2.006147    1.428207   -1.467664
  H      1.408322    2.208145    0.015935
  H      0.100671   -0.152015   -1.450063
  H     -0.450692    1.558103   -1.452925
  H     -0.923546    1.529912    0.935110
  H      1.162598   -1.681890    0.296677
  H      1.882588   -1.307775    1.899283
  H     -2.668199   -0.199001    1.206675
  H     -1.463571   -2.164141    0.160323
  H     -1.773497   -1.447542   -1.470954
  H     -3.144643   -1.937374   -0.420312
  H     -3.105863    1.853090   -0.165605
  H     -2.719233    0.913739   -1.662285
  H     -4.116397    0.440908   -0.630757

----------------------------
CARTESIAN COORDINATES (A.U.)
----------------------------
  NO LB      ZA    FRAG     MASS         X           Y           Z
   0 C     4.0000*   0    12.011    6.421053   -0.823979   -0.760809
   1 C     4.0000*   0    12.011    4.259191    0.419544    0.716707
   2 C     4.0000*   0    12.011    2.777155    2.326984   -0.970216
   3 C     4.0000*   0    12.011    0.075415    1.460431   -1.586106
   4 C     4.0000*   0    12.011   -1.456584    1.011637    0.866661
   5 C     4.0000*   0    12.011    0.068567   -0.542816    2.723339
   6 O     6.0000*   0    15.999   -0.724050   -0.905377    4.861880
   7 C     4.0000*   0    12.011    2.570062   -1.632124    1.933912
   8 C     4.0000*   0    12.011   -4.113885   -0.169025    0.403742
   9 C     4.0000*   0    12.011   -4.020441   -2.816722   -0.794165
  10 C     4.0000*   0    12.011   -5.817820    1.582521   -1.161267
  11 H     1.0000    0     1.008    7.755362    0.639172   -1.458394
  12 H     1.0000    0     1.008    5.668203   -1.895361   -2.402632
  13 H     1.0000    0     1.008    7.487014   -2.139682    0.480684
  14 H     1.0000    0     1.008    5.139027    1.515012    2.283073
  15 H     1.0000    0     1.008    3.791068    2.698920   -2.773483
  16 H     1.0000    0     1.008    2.661343    4.172789    0.030113
  17 H     1.0000    0     1.008    0.190241   -0.287267   -2.740222
  18 H     1.0000    0     1.008   -0.851684    2.944388   -2.745630
  19 H     1.0000    0     1.008   -1.745249    2.891115    1.767102
  20 H     1.0000    0     1.008    2.196992   -3.178311    0.560638
  21 H     1.0000    0     1.008    3.557576   -2.471337    3.589125
  22 H     1.0000    0     1.008   -5.042165   -0.376057    2.280285
  23 H     1.0000    0     1.008   -2.765748   -4.089634    0.302967
  24 H     1.0000    0     1.008   -3.351424   -2.735458   -2.779700
  25 H     1.0000    0     1.008   -5.942514   -3.661106   -0.794275
  26 H     1.0000    0     1.008   -5.869230    3.501833   -0.312948
  27 H     1.0000    0     1.008   -5.138606    1.726716   -3.141263
  28 H     1.0000    0     1.008   -7.778863    0.833195   -1.191958
* core charge reduced due to ECP

--------------------------------
INTERNAL COORDINATES (ANGSTROEM)
--------------------------------
 C      0   0   0     0.000000000000     0.00000000     0.00000000
 C      1   0   0     1.533979719365     0.00000000     0.00000000
 C      2   1   0     1.559095567063   111.16363456     0.00000000
 C      3   2   1     1.536403947999   113.34806831   111.56827138
 C      4   3   2     1.548645966439   110.80043552    57.86185763
 C      5   4   3     1.514377557721   110.36944741   312.76448781
 O      6   5   4     1.222049832861   120.20964384   173.37607398
 C      6   5   4     1.503018254624   119.82600710   353.64724215
 C      5   4   3     1.558110320063   113.71383864   186.71074017
 C      9   5   4     1.538624277051   113.63535547    62.77585103
 C      9   5   4     1.535577234342   111.88197216   297.10326321
 H      1   2   3     1.110996871043   110.14330561    59.37001246
 H      1   2   3     1.111300287729   110.48608168   299.03801670
 H      1   2   3     1.111102255071   110.24578139   178.56675017
 H      2   1   3     1.113495429697   106.91279025   243.03827537
 H      3   2   1     1.112296061983   111.29204528   348.75188140
 H      3   2   1     1.112665503640   108.88322924   231.99464232
 H      4   3   2     1.109963261985   108.32837672   295.59843023
 H      4   3   2     1.110785466691   108.49209533   178.57594684
 H      5   4   3     1.113356671513   107.06921353    68.05498951
 H      8   6   5     1.111997081055   107.90688035   289.22784954
 H      8   6   5     1.112429625264   110.36404847   171.77869853
 H      9   5   4     1.113284061437   107.30386850   180.82634499
 H     10   9   5     1.109791631871   110.87944956    52.44806012
 H     10   9   5     1.109574819852   111.41348090   290.66558765
 H     10   9   5     1.110937959696   109.68549456   171.24019343
 H     11   9   5     1.110773743065   110.38545948   308.19933735
 H     11   9   5     1.110328177167   111.12063075    69.32390220
 H     11   9   5     1.111035044847   109.93275144   189.13250903

---------------------------
INTERNAL COORDINATES (A.U.)
---------------------------
 C      0   0   0     0.000000000000     0.00000000     0.00000000
 C      1   0   0     2.898801564590     0.00000000     0.00000000
 C      2   1   0     2.946263638361   111.16363456     0.00000000
 C      3   2   1     2.903382692793   113.34806831   111.56827138
 C      4   3   2     2.926516754972   110.80043552    57.86185763
 C      5   4   3     2.861758847450   110.36944741   312.76448781
 O      6   5   4     2.309339506111   120.20964384   173.37607398
 C      6   5   4     2.840292875524   119.82600710   353.64724215
 C      5   4   3     2.944401791355   113.71383864   186.71074017
 C      9   5   4     2.907578506629   113.63535547    62.77585103
 C      9   5   4     2.901820430390   111.88197216   297.10326321
 H      1   2   3     2.099479821915   110.14330561    59.37001246
 H      1   2   3     2.100053196356   110.48608168   299.03801670
 H      1   2   3     2.099678968867   110.24578139   178.56675017
 H      2   1   3     2.104201413499   106.91279025   243.03827537
 H      3   2   1     2.101934936988   111.29204528   348.75188140
 H      3   2   1     2.102633080541   108.88322924   231.99464232
 H      4   3   2     2.097526583866   108.32837672   295.59843023
 H      4   3   2     2.099080325586   108.49209533   178.57594684
 H      5   4   3     2.103939198534   107.06921353    68.05498951
 H      8   6   5     2.101369944913   107.90688035   289.22784954
 H      8   6   5     2.102187335010   110.36404847   171.77869853
 H      9   5   4     2.103801985376   107.30386850   180.82634499
 H     10   9   5     2.097202249953   110.87944956    52.44806012
 H     10   9   5     2.096792534616   111.41348090   290.66558765
 H     10   9   5     2.099368495603   109.68549456   171.24019343
 H     11   9   5     2.099058171143   110.38545948   308.19933735
 H     11   9   5     2.098216173622   111.12063075    69.32390220
 H     11   9   5     2.099551959950   109.93275144   189.13250903

---------------------
BASIS SET INFORMATION
---------------------
There are 3 groups of distinct atoms

 Group   1 Type C   : 6s6p2d contracted to 2s2p1d pattern {42/42/2}
 Group   2 Type O   : 6s6p2d contracted to 2s2p1d pattern {42/42/2}
 Group   3 Type H   : 8s2p contracted to 2s1p pattern {53/2}

Atom   0C    basis set group =>   1
Atom   1C    basis set group =>   1
Atom   2C    basis set group =>   1
Atom   3C    basis set group =>   1
Atom   4C    basis set group =>   1
Atom   5C    basis set group =>   1
Atom   6O    basis set group =>   2
Atom   7C    basis set group =>   1
Atom   8C    basis set group =>   1
Atom   9C    basis set group =>   1
Atom  10C    basis set group =>   1
Atom  11H    basis set group =>   3
Atom  12H    basis set group =>   3
Atom  13H    basis set group =>   3
Atom  14H    basis set group =>   3
Atom  15H    basis set group =>   3
Atom  16H    basis set group =>   3
Atom  17H    basis set group =>   3
Atom  18H    basis set group =>   3
Atom  19H    basis set group =>   3
Atom  20H    basis set group =>   3
Atom  21H    basis set group =>   3
Atom  22H    basis set group =>   3
Atom  23H    basis set group =>   3
Atom  24H    basis set group =>   3
Atom  25H    basis set group =>   3
Atom  26H    basis set group =>   3
Atom  27H    basis set group =>   3
Atom  28H    basis set group =>   3
---------------------------------
AUXILIARY/J BASIS SET INFORMATION
---------------------------------
There are 3 groups of distinct atoms

 Group   1 Type C   : 12s5p4d2f1g contracted to 6s4p3d1f1g pattern {711111/2111/211/2/1}
 Group   2 Type O   : 12s5p4d2f1g contracted to 6s4p3d1f1g pattern {711111/2111/211/2/1}
 Group   3 Type H   : 5s2p1d contracted to 3s1p1d pattern {311/2/1}

Atom   0C    basis set group =>   1
Atom   1C    basis set group =>   1
Atom   2C    basis set group =>   1
Atom   3C    basis set group =>   1
Atom   4C    basis set group =>   1
Atom   5C    basis set group =>   1
Atom   6O    basis set group =>   2
Atom   7C    basis set group =>   1
Atom   8C    basis set group =>   1
Atom   9C    basis set group =>   1
Atom  10C    basis set group =>   1
Atom  11H    basis set group =>   3
Atom  12H    basis set group =>   3
Atom  13H    basis set group =>   3
Atom  14H    basis set group =>   3
Atom  15H    basis set group =>   3
Atom  16H    basis set group =>   3
Atom  17H    basis set group =>   3
Atom  18H    basis set group =>   3
Atom  19H    basis set group =>   3
Atom  20H    basis set group =>   3
Atom  21H    basis set group =>   3
Atom  22H    basis set group =>   3
Atom  23H    basis set group =>   3
Atom  24H    basis set group =>   3
Atom  25H    basis set group =>   3
Atom  26H    basis set group =>   3
Atom  27H    basis set group =>   3
Atom  28H    basis set group =>   3
-------------------------
ECP PARAMETER INFORMATION
-------------------------

 Group 1, Type C  ECP vDZP-ECP (replacing 2 core electrons, lmax=3)
 Group 2, Type O  ECP vDZP-ECP (replacing 2 core electrons, lmax=3)

Atom   0C    ECP group =>   1
Atom   1C    ECP group =>   1
Atom   2C    ECP group =>   1
Atom   3C    ECP group =>   1
Atom   4C    ECP group =>   1
Atom   5C    ECP group =>   1
Atom   6O    ECP group =>   2
Atom   7C    ECP group =>   1
Atom   8C    ECP group =>   1
Atom   9C    ECP group =>   1
Atom  10C    ECP group =>   1



           ************************************************************
           *        Program running with 40 parallel MPI-processes    *
           *              working on a common directory               *
           ************************************************************
------------------------------------------------------------------------------
                             ORCA STARTUP CALCULATIONS
                           -- RI-GTO INTEGRALS CHOSEN --
------------------------------------------------------------------------------
------------------------------------------------------------------------------
                   ___                                                        
                  /   \      - P O W E R E D   B Y -                         
                 /     \                                                     
                 |  |  |   _    _      __       _____    __    __             
                 |  |  |  | |  | |    /  \     |  _  \  |  |  /  |          
                  \  \/   | |  | |   /    \    | | | |  |  | /  /          
                 / \  \   | |__| |  /  /\  \   | |_| |  |  |/  /          
                |  |  |   |  __  | /  /__\  \  |    /   |      \           
                |  |  |   | |  | | |   __   |  |    \   |  |\   \          
                \     /   | |  | | |  |  |  |  | |\  \  |  | \   \       
                 \___/    |_|  |_| |__|  |__|  |_| \__\ |__|  \__/        
                                                                              
                      - O R C A' S   B I G   F R I E N D -                    
                                      &                                       
                       - I N T E G R A L  F E E D E R -                       
                                                                              
 v1 FN, 2020, v2 2021, v3 2022-2024                                           
------------------------------------------------------------------------------


----------------------
SHARK INTEGRAL PACKAGE
----------------------

Number of atoms                             ...     29
Number of basis functions                   ...    233
Number of shells                            ...    109
Maximum angular momentum                    ...      2
Integral batch strategy                     ... SHARK/LIBINT Hybrid
RI-J (if used) integral strategy            ... SPLIT-RIJ (Revised 2003 algorithm where possible)
Printlevel                                  ...      1
Contraction scheme used                     ... SEGMENTED contraction
Prescreening option                         ... SCHWARTZ
   Thresh                                   ... 2.500e-11
   Tcut                                     ... 2.500e-12
   Tpresel                                  ... 2.500e-12 
Coulomb Range Separation                    ... NOT USED
Exchange Range Separation                   ... Long Range
   Mu parameter                             ... 3.000e-01
   Scaling (regular/separated)              ... 1.670e-01 8.330e-01
Multipole approximations                    ... NOT USED
Finite Nucleus Model                        ... NOT USED
CABS basis                                  ... NOT available
Auxiliary Coulomb fitting basis             ... AVAILABLE
   # of basis functions in Aux-J            ...    737
   # of shells in Aux-J                     ...    255
   Maximum angular momentum in Aux-J        ...      4
Auxiliary J/K fitting basis                 ... NOT available
Auxiliary Correlation fitting basis         ... NOT available
Auxiliary 'external' fitting basis          ... NOT available

Checking pre-screening integrals            ... done (  0.0 sec) Dimension = 109
Check shell pair data                       ... done (  0.0 sec)
Shell pair information
Shell pair cut-off parameter TPreSel        ...   2.5e-12
Total number of shell pairs                 ...      5995
Shell pairs after pre-screening             ...      5982
Total number of primitive shell pairs       ...     56362
Primitive shell pairs kept                  ...     45522
          la=0 lb=0:   1709 shell pairs
          la=1 lb=0:   2315 shell pairs
          la=1 lb=1:    814 shell pairs
          la=2 lb=0:    638 shell pairs
          la=2 lb=1:    440 shell pairs
          la=2 lb=2:     66 shell pairs

Calculating one electron integrals          ... done (  0.0 sec)
Calculating ECP integrals                   ... done (  0.1 sec)
Calculating RI/J V-Matrix + Cholesky decomp.... done (  0.0 sec)
Calculating Nuclear repulsion               ... done (  0.0 sec) ENN=    363.248911454166 Eh

Diagonalization of the overlap matrix:
Smallest eigenvalue                        ... 1.186e-03
Time for diagonalization                   ...    0.007 sec
Threshold for overlap eigenvalues          ... 1.000e-07
Number of eigenvalues below threshold      ... 0
Time for construction of square roots      ...    0.005 sec
Total time needed                          ...    0.016 sec

-------------------
DFT GRID GENERATION
-------------------

General Integration Accuracy     IntAcc      ... 4.388
Radial Grid Type                 RadialGrid  ... OptM3 with GC (2021)
Angular Grid (max. ang.)         AngularGrid ... 4 (Lebedev-302)
Angular grid pruning method      GridPruning ... 4 (adaptive)
Weight generation scheme         WeightScheme... mBecke (2022)
Basis function cutoff            BFCut       ... 1.0000e-11
Integration weight cutoff        WCut        ... 1.0000e-14
Partially contracted basis set               ... off
Rotationally invariant grid construction     ... off
Angular grids for H and He will be reduced by one unit

Total number of grid points                  ...   122792
Total number of batches                      ...     1932
Average number of points per batch           ...       63
Average number of grid points per atom       ...     4234

--------------------
COSX GRID GENERATION
--------------------

GRIDX 1
-------
General Integration Accuracy     IntAcc      ... 3.816
Radial Grid Type                 RadialGrid  ... OptM3 with GC (2021)
Angular Grid (max. ang.)         AngularGrid ... 1 (Lebedev-50)
Angular grid pruning method      GridPruning ... 4 (adaptive)
Weight generation scheme         WeightScheme... mBecke (2022)
Basis function cutoff            BFCut       ... 1.0000e-11
Integration weight cutoff        WCut        ... 1.0000e-14
Partially contracted basis set               ... on
Rotationally invariant grid construction     ... off
Angular grids for H and He will be reduced by one unit

Total number of grid points                  ...    15693
Total number of batches                      ...      142
Average number of points per batch           ...      110
Average number of grid points per atom       ...      541
UseSFitting                                  ... on

GRIDX 2
-------
General Integration Accuracy     IntAcc      ... 4.020
Radial Grid Type                 RadialGrid  ... OptM3 with GC (2021)
Angular Grid (max. ang.)         AngularGrid ... 2 (Lebedev-110)
Angular grid pruning method      GridPruning ... 4 (adaptive)
Weight generation scheme         WeightScheme... mBecke (2022)
Basis function cutoff            BFCut       ... 1.0000e-11
Integration weight cutoff        WCut        ... 1.0000e-14
Partially contracted basis set               ... on
Rotationally invariant grid construction     ... off
Angular grids for H and He will be reduced by one unit

Total number of grid points                  ...    32633
Total number of batches                      ...      271
Average number of points per batch           ...      120
Average number of grid points per atom       ...     1125
UseSFitting                                  ... on

GRIDX 3
-------
General Integration Accuracy     IntAcc      ... 4.338
Radial Grid Type                 RadialGrid  ... OptM3 with GC (2021)
Angular Grid (max. ang.)         AngularGrid ... 3 (Lebedev-194)
Angular grid pruning method      GridPruning ... 4 (adaptive)
Weight generation scheme         WeightScheme... mBecke (2022)
Basis function cutoff            BFCut       ... 1.0000e-11
Integration weight cutoff        WCut        ... 1.0000e-14
Partially contracted basis set               ... on
Rotationally invariant grid construction     ... off
Angular grids for H and He will be reduced by one unit

Total number of grid points                  ...    70963
Total number of batches                      ...      568
Average number of points per batch           ...      124
Average number of grid points per atom       ...     2447
UseSFitting                                  ... on
Initializing property integral containers    ... done (  0.0 sec)

SHARK setup successfully completed in   3.9 seconds

Maximum memory used throughout the entire STARTUP-calculation: 38.1 MB


           ************************************************************
           *        Program running with 40 parallel MPI-processes    *
           *              working on a common directory               *
           ************************************************************
-------------------------------------------------------------------------------
                                 ORCA GUESS
                   Start orbitals & Density for SCF / CASSCF
-------------------------------------------------------------------------------

------------
SCF SETTINGS
------------
Hamiltonian:
 Density Functional     Method          .... DFT(GTOs)
 Exchange Functional    Exchange        .... WB97X-V
 Correlation Functional Correlation     .... WB97X-V
 Gradients option       PostSCFGGA      .... off
 Hybrid DFT is turned on
   Fraction HF Exchange ScalHFX         ....  0.167000
   Scaling of DF-GGA-X  ScalDFX         ....  0.000000
   Scaling of DF-GGA-C  ScalDFC         ....  1.000000
   Scaling of DF-LDA-C  ScalLDAC        ....  1.000000
   Perturbative correction              ....  0.000000
 Long-range corrected/Screened/Range-Separated Hybrid DFT is turned on
   Amount of maximum screened exact exchange              ....  0.833000
   Range separation parameter mu (erf(mu*r12)/r12)        ....  0.300000
   NL short-range parameter             ....  6.000000
   NL long-range parameter              ....  0.010000
 RI-approximation to the Coulomb term is turned on
   Number of AuxJ basis functions       .... 737
   RIJ-COSX (HFX calculated with COS-X)).... on


General Settings:
 Integral files         IntName         .... ./output/menthone/menthone
 Hartree-Fock type      HFTyp           .... RHF
 Total Charge           Charge          ....    0
 Multiplicity           Mult            ....    1
 Number of Electrons    NEL             ....   64
 Basis Dimension        Dim             ....  233
 Nuclear Repulsion      ENuc            ....    363.2489114542 Eh

Convergence Acceleration:
 AO-DIIS                CNVDIIS         .... on
   Start iteration      DIISMaxIt       ....    12
   Startup error        DIISStart       ....  0.200000
   # of expansion vecs  DIISMaxEq       ....     5
   Bias factor          DIISBfac        ....   1.050
   Max. coefficient     DIISMaxC        ....  10.000
 MO-DIIS                CNVKDIIS        .... off
 Trust-Rad. Augm. Hess. CNVTRAH         .... auto
   Auto Start mean grad. ratio tolernc. ....  1.125000
   Auto Start start iteration           ....    50
   Auto Start num. interpolation iter.  ....    10
   Max. Number of Micro iterations      ....    24
   Max. Number of Macro iterations      .... Maxiter - #DIIS iter
   Number of Davidson start vectors     ....     2
   Converg. threshold    (grad. norm)   ....   1.000e-05
   Grad. Scal. Fac. for Micro threshold ....   0.100
   Minimum threshold for Micro iter.    ....   1.000e-02
   NR start threshold (gradient norm)   ....   1.000e-04
   Initial trust radius                 ....   0.400
   Minimum AH scaling param. (alpha)    ....   1.000
   Maximum AH scaling param. (alpha)    .... 1000.000
   Quad. conv. algorithm                .... NR
   White noise on init. David. guess    .... on
   Maximum white noise                  ....   0.010
   Pseudo random numbers                .... off
   Inactive MOs                         .... canonical
   Orbital update algorithm             .... Taylor
   Preconditioner                       .... Diag
   Full preconditioner red. dimension   ....   250
 SOSCF                  CNVSOSCF        .... on
   Start iteration      SOSCFMaxIt      ....   150
   Startup grad/error   SOSCFStart      ....  0.003300
   Hessian update       SOSCFHessUp     .... L-BFGS
 Level Shifting         CNVShift        .... on
   Level shift para.    LevelShift      ....    0.2500
   Turn off err/grad.   ShiftErr        ....    0.0010
 Zerner damping         CNVZerner       .... off
 Static damping         CNVDamp         .... on
   Fraction old density DampFac         ....    0.7000
   Max. Damping (<1)    DampMax         ....    0.9800
   Min. Damping (>=0)   DampMin         ....    0.0000
   Turn off err/grad.   DampErr         ....    0.1000

SCF Procedure:
 Maximum # iterations   MaxIter         ....   125
 SCF integral mode      SCFMode         .... Direct
   Integral package                     .... SHARK and LIBINT hybrid scheme
 Reset frequency        DirectResetFreq ....    20
 Integral Threshold     Thresh          ....  2.500e-11 Eh
 Primitive CutOff       TCut            ....  2.500e-12 Eh

Convergence Tolerance:
 Convergence Check Mode ConvCheckMode   .... Total+1el-Energy
 Convergence forced     ConvForced      .... 0
 Energy Change          TolE            ....  1.000e-08 Eh
 1-El. energy change                    ....  1.000e-05 Eh
 Orbital Gradient       TolG            ....  1.000e-05
 Orbital Rotation angle TolX            ....  1.000e-05
 DIIS Error             TolErr          ....  5.000e-07

------------------------------
INITIAL GUESS: MODEL POTENTIAL
------------------------------
Loading Hartree-Fock densities                     ... done
Atomic calculation to generate a density for atom 0 (C  with ECP)
  Multiplicity assumed   :    1
  Atomic configuration   : 1s2 2s2 2p2 
  Number of open shells  : 1
  Command: /home/aspe232/Project/Software/ORCA/6_0_1/build/orca ./output/menthone/menthone_atom6.inp "" > ./output/menthone/menthone_atom6.out
Returned from the atomic calculation with res=0
Atomic calculation to generate a density for atom 6 (O  with ECP)
  Multiplicity assumed   :    3
  Atomic configuration   : 1s2 2s2 2p4 
  Number of open shells  : 1
  Command: /home/aspe232/Project/Software/ORCA/6_0_1/build/orca ./output/menthone/menthone_atom8.inp "" > ./output/menthone/menthone_atom8.out
Returned from the atomic calculation with res=0
Calculating cut-offs                               ... done
Initializing the effective Hamiltonian             ... done
Setting up the integral package (SHARK)            ... done
Starting the Coulomb interaction                   ... done (   0.1 sec)
Making the grid                                    ... done (   0.9 sec)
Mapping shells                                     ... done
Starting the XC term evaluation                    ... done (   0.1 sec)
  promolecular density results
     # of electrons  =     85.993593036
     EX              =    -42.878666981
     EC              =     -3.456378341
     EX+EC           =    -46.335045322
Transforming the Hamiltonian                       ... done (   0.0 sec)
Diagonalizing the Hamiltonian                      ... done (   0.0 sec)
Back transforming the eigenvectors                 ... done (   0.0 sec)
Now organizing SCF variables                       ... done
                      ------------------
                      INITIAL GUESS DONE (   2.2 sec)
                      ------------------
             **** ENERGY FILE WAS UPDATED (./output/menthone/menthone.en.tmp) ****
Finished Guess after   2.8 sec
Maximum memory used throughout the entire GUESS-calculation: 23.7 MB


           ************************************************************
           *        Program running with 40 parallel MPI-processes    *
           *              working on a common directory               *
           ************************************************************

-------------------------------------------------------------------------------------------
                                      ORCA LEAN-SCF
                              memory conserving SCF solver
-------------------------------------------------------------------------------------------

----------------------------------------D-I-I-S--------------------------------------------
Iteration    Energy (Eh)           Delta-E    RMSDP     MaxDP     DIISErr   Damp  Time(sec)
-------------------------------------------------------------------------------------------
               ***  Starting incremental Fock matrix formation  ***
    1    -83.4018518050608577     0.00e+00  3.53e-03  7.23e-02  1.79e-01  0.700   4.8
    2    -83.5957302798287287    -1.94e-01  2.57e-03  5.30e-02  1.06e-01  0.700   4.1
                               ***Turning on AO-DIIS***
    3    -83.6956353139684097    -9.99e-02  1.33e-03  2.77e-02  5.67e-02  0.700   4.0
    4    -83.7543793636121450    -5.87e-02  2.83e-03  5.81e-02  3.56e-02  0.000   4.0
    5    -83.8781498326933388    -1.24e-01  2.30e-04  4.49e-03  3.76e-03  0.000   4.0
                              *** Initializing SOSCF ***
---------------------------------------S-O-S-C-F--------------------------------------
Iteration    Energy (Eh)           Delta-E    RMSDP     MaxDP     MaxGrad    Time(sec)
--------------------------------------------------------------------------------------
    6    -83.8784664959888460    -3.17e-04  1.11e-04  4.14e-03  2.80e-03     3.7
               *** Restarting incremental Fock matrix formation ***
    7    -83.8784973516673062    -3.09e-05  8.01e-05  3.82e-03  1.18e-03     4.8
    8    -83.8785060688384760    -8.72e-06  4.12e-05  1.77e-03  6.53e-04     4.4
    9    -83.8785189376434914    -1.29e-05  8.29e-06  2.23e-04  8.71e-05     4.5
   10    -83.8785191544102418    -2.17e-07  3.95e-06  1.20e-04  3.71e-05     4.3
   11    -83.8785192091262388    -5.47e-08  1.20e-06  4.00e-05  1.81e-05     4.1
   12    -83.8785192113507492    -2.22e-09  8.22e-07  3.86e-05  9.75e-06     3.9
                 **** Energy Check signals convergence ****

               *****************************************************
               *                     SUCCESS                       *
               *           SCF CONVERGED AFTER  12 CYCLES          *
               *****************************************************

Recomputing exchange energy using gridx3       ... done (    4.650 sec)
Old exchange energy                            :    -12.291674426 Eh
New exchange energy                            :    -12.291680945 Eh
Exchange energy change after final integration :     -0.000006519 Eh
Total energy after final integration           :    -83.878525730 Eh
             **** ENERGY FILE WAS UPDATED (./output/menthone/menthone.en.tmp) ****

----------------
TOTAL SCF ENERGY
----------------

Total Energy       :        -83.87852572994255 Eh           -2282.45072 eV

Components:
Nuclear Repulsion  :        363.24891145416638 Eh            9884.50540 eV
Electronic Energy  :       -447.12743066551712 Eh          -12166.95594 eV
One Electron Energy:       -846.18838205065231 Eh          -23025.95649 eV
Two Electron Energy:        399.06095138513518 Eh           10859.00055 eV

Virial components:
Potential Energy   :       -149.39930447769717 Eh           -4065.36175 eV
Kinetic Energy     :         65.52077874775463 Eh            1782.91103 eV
Virial Ratio       :          2.28018206335524

DFT components:
N(Alpha)           :       31.999780393868 electrons
N(Beta)            :       31.999780393868 electrons
N(Total)           :       63.999560787736 electrons
E(X)               :      -12.971782215343 Eh       
E(C)               :       -2.402349961863 Eh       
E(XC)              :      -15.374132177206 Eh       

---------------
SCF CONVERGENCE
---------------

  Last Energy change         ...    2.2245e-09  Tolerance :   1.0000e-08
  Last MAX-Density change    ...    3.8585e-05  Tolerance :   1.0000e-07
  Last RMS-Density change    ...    8.2207e-07  Tolerance :   5.0000e-09
  Last DIIS Error            ...    2.8015e-03  Tolerance :   5.0000e-07
  Last Orbital Gradient      ...    9.7470e-06  Tolerance :   1.0000e-05
  Last Orbital Rotation      ...    4.8253e-05  Tolerance :   1.0000e-05


----------------
ORBITAL ENERGIES
----------------

  NO   OCC          E(Eh)            E(eV) 
   0   2.0000      -1.158521       -31.5250 
   1   2.0000      -0.985507       -26.8170 
   2   2.0000      -0.948144       -25.8003 
   3   2.0000      -0.891362       -24.2552 
   4   2.0000      -0.862938       -23.4817 
   5   2.0000      -0.819136       -22.2898 
   6   2.0000      -0.817136       -22.2354 
   7   2.0000      -0.757528       -20.6134 
   8   2.0000      -0.702959       -19.1285 
   9   2.0000      -0.691009       -18.8033 
  10   2.0000      -0.633519       -17.2389 
  11   2.0000      -0.612605       -16.6698 
  12   2.0000      -0.595332       -16.1998 
  13   2.0000      -0.578780       -15.7494 
  14   2.0000      -0.559275       -15.2186 
  15   2.0000      -0.555132       -15.1059 
  16   2.0000      -0.534845       -14.5539 
  17   2.0000      -0.529657       -14.4127 
  18   2.0000      -0.513896       -13.9838 
  19   2.0000      -0.509759       -13.8712 
  20   2.0000      -0.496937       -13.5223 
  21   2.0000      -0.492358       -13.3978 
  22   2.0000      -0.485110       -13.2005 
  23   2.0000      -0.472884       -12.8678 
  24   2.0000      -0.468837       -12.7577 
  25   2.0000      -0.450654       -12.2629 
  26   2.0000      -0.443298       -12.0628 
  27   2.0000      -0.434269       -11.8171 
  28   2.0000      -0.424745       -11.5579 
  29   2.0000      -0.413041       -11.2394 
  30   2.0000      -0.410865       -11.1802 
  31   2.0000      -0.347669        -9.4605 
  32   0.0000       0.060557         1.6478 
  33   0.0000       0.080525         2.1912 
  34   0.0000       0.089541         2.4365 
  35   0.0000       0.095208         2.5907 
  36   0.0000       0.102215         2.7814 
  37   0.0000       0.117500         3.1973 
  38   0.0000       0.123205         3.3526 
  39   0.0000       0.124087         3.3766 
  40   0.0000       0.137098         3.7306 
  41   0.0000       0.145899         3.9701 
  42   0.0000       0.153069         4.1652 
*Only the first 10 virtual orbitals were printed.

                    ********************************
                    * MULLIKEN POPULATION ANALYSIS *
                    ********************************

-----------------------
MULLIKEN ATOMIC CHARGES
-----------------------
   0 C :   -0.076752
   1 C :   -0.116566
   2 C :   -0.056508
   3 C :   -0.042773
   4 C :   -0.118222
   5 C :    0.203757
   6 O :   -0.316684
   7 C :   -0.048280
   8 C :   -0.092905
   9 C :   -0.075309
  10 C :   -0.072153
  11 H :    0.042774
  12 H :    0.034341
  13 H :    0.041137
  14 H :    0.054372
  15 H :    0.039178
  16 H :    0.040653
  17 H :    0.030844
  18 H :    0.053594
  19 H :    0.069742
  20 H :    0.047896
  21 H :    0.063673
  22 H :    0.062815
  23 H :    0.042810
  24 H :    0.034409
  25 H :    0.044716
  26 H :    0.037354
  27 H :    0.029799
  28 H :    0.042289
Sum of atomic charges:   -0.0000000

--------------------------------
MULLIKEN REDUCED ORBITAL CHARGES
--------------------------------
  0 C s       :     0.968330  s :     0.968330
      pz      :     1.017942  p :     3.033352
      px      :     0.984923
      py      :     1.030487
      dz2     :     0.008965  d :     0.075070
      dxz     :     0.017022
      dyz     :     0.020652
      dx2y2   :     0.006386
      dxy     :     0.022046

  1 C s       :     1.058591  s :     1.058591
      pz      :     1.007298  p :     2.936457
      px      :     0.957763
      py      :     0.971396
      dz2     :     0.017011  d :     0.121519
      dxz     :     0.026374
      dyz     :     0.029712
      dx2y2   :     0.019759
      dxy     :     0.028662

  2 C s       :     0.999626  s :     0.999626
      pz      :     1.024864  p :     2.960663
      px      :     0.946093
      py      :     0.989706
      dz2     :     0.014648  d :     0.096218
      dxz     :     0.023042
      dyz     :     0.019274
      dx2y2   :     0.022797
      dxy     :     0.016456

  3 C s       :     0.997204  s :     0.997204
      pz      :     0.971364  p :     2.948140
      px      :     0.936661
      py      :     1.040114
      dz2     :     0.012476  d :     0.097429
      dxz     :     0.022698
      dyz     :     0.026128
      dx2y2   :     0.019930
      dxy     :     0.016196

  4 C s       :     1.026497  s :     1.026497
      pz      :     0.962510  p :     2.978500
      px      :     0.968403
      py      :     1.047587
      dz2     :     0.018976  d :     0.113225
      dxz     :     0.028498
      dyz     :     0.025482
      dx2y2   :     0.021775
      dxy     :     0.018494

  5 C s       :     1.122296  s :     1.122296
      pz      :     0.825294  p :     2.467751
      px      :     0.870212
      py      :     0.772244
      dz2     :     0.048656  d :     0.206197
      dxz     :     0.062361
      dyz     :     0.050052
      dx2y2   :     0.025592
      dxy     :     0.019536

  6 O s       :     1.783517  s :     1.783517
      pz      :     1.333898  p :     4.497474
      px      :     1.682669
      py      :     1.480907
      dz2     :     0.012724  d :     0.035693
      dxz     :     0.009231
      dyz     :     0.010376
      dx2y2   :     0.001219
      dxy     :     0.002143

  7 C s       :     0.988323  s :     0.988323
      pz      :     1.041128  p :     2.970110
      px      :     0.945094
      py      :     0.983888
      dz2     :     0.010808  d :     0.089848
      dxz     :     0.018534
      dyz     :     0.023007
      dx2y2   :     0.018123
      dxy     :     0.019377

  8 C s       :     1.049236  s :     1.049236
      pz      :     1.039423  p :     2.920302
      px      :     0.934157
      py      :     0.946722
      dz2     :     0.024145  d :     0.123367
      dxz     :     0.023677
      dyz     :     0.020880
      dx2y2   :     0.027909
      dxy     :     0.026756

  9 C s       :     0.960840  s :     0.960840
      pz      :     1.023721  p :     3.041053
      px      :     1.051157
      py      :     0.966175
      dz2     :     0.019172  d :     0.073416
      dxz     :     0.009527
      dyz     :     0.013661
      dx2y2   :     0.012227
      dxy     :     0.018829

 10 C s       :     0.963427  s :     0.963427
      pz      :     1.013996  p :     3.034666
      px      :     1.011078
      py      :     1.009592
      dz2     :     0.021770  d :     0.074061
      dxz     :     0.009322
      dyz     :     0.011931
      dx2y2   :     0.020147
      dxy     :     0.010891

 11 H s       :     0.914214  s :     0.914214
      pz      :     0.011669  p :     0.043012
      px      :     0.015443
      py      :     0.015899

 12 H s       :     0.922944  s :     0.922944
      pz      :     0.018427  p :     0.042715
      px      :     0.010763
      py      :     0.013525

 13 H s       :     0.915811  s :     0.915811
      pz      :     0.014166  p :     0.043052
      px      :     0.013533
      py      :     0.015353

 14 H s       :     0.906458  s :     0.906458
      pz      :     0.016230  p :     0.039170
      px      :     0.010747
      py      :     0.012192

 15 H s       :     0.917936  s :     0.917936
      pz      :     0.019776  p :     0.042885
      px      :     0.013268
      py      :     0.009842

 16 H s       :     0.917857  s :     0.917857
      pz      :     0.012463  p :     0.041490
      px      :     0.009600
      py      :     0.019427

 17 H s       :     0.926939  s :     0.926939
      pz      :     0.012900  p :     0.042216
      px      :     0.009902
      py      :     0.019414

 18 H s       :     0.903688  s :     0.903688
      pz      :     0.013473  p :     0.042719
      px      :     0.012898
      py      :     0.016347

 19 H s       :     0.889753  s :     0.889753
      pz      :     0.011431  p :     0.040505
      px      :     0.008680
      py      :     0.020394

 20 H s       :     0.907346  s :     0.907346
      pz      :     0.016671  p :     0.044758
      px      :     0.010638
      py      :     0.017449

 21 H s       :     0.894872  s :     0.894872
      pz      :     0.018948  p :     0.041455
      px      :     0.011217
      py      :     0.011290

 22 H s       :     0.896786  s :     0.896786
      pz      :     0.020763  p :     0.040399
      px      :     0.010704
      py      :     0.008932

 23 H s       :     0.913226  s :     0.913226
      pz      :     0.013856  p :     0.043964
      px      :     0.014534
      py      :     0.015575

 24 H s       :     0.921830  s :     0.921830
      pz      :     0.022306  p :     0.043761
      px      :     0.011671
      py      :     0.009783

 25 H s       :     0.912057  s :     0.912057
      pz      :     0.010097  p :     0.043227
      px      :     0.020879
      py      :     0.012251

 26 H s       :     0.919499  s :     0.919499
      pz      :     0.011965  p :     0.043147
      px      :     0.009752
      py      :     0.021430

 27 H s       :     0.926512  s :     0.926512
      pz      :     0.022321  p :     0.043688
      px      :     0.011557
      py      :     0.009811

 28 H s       :     0.914427  s :     0.914427
      pz      :     0.010158  p :     0.043283
      px      :     0.021871
      py      :     0.011254



                     *******************************
                     * LOEWDIN POPULATION ANALYSIS *
                     *******************************

----------------------
LOEWDIN ATOMIC CHARGES
----------------------
   0 C :   -0.119415
   1 C :   -0.072619
   2 C :   -0.078394
   3 C :   -0.079958
   4 C :   -0.061912
   5 C :    0.016092
   6 O :   -0.141622
   7 C :   -0.073610
   8 C :   -0.072194
   9 C :   -0.114573
  10 C :   -0.116046
  11 H :    0.048623
  12 H :    0.045084
  13 H :    0.048969
  14 H :    0.051556
  15 H :    0.050857
  16 H :    0.047196
  17 H :    0.040899
  18 H :    0.051395
  19 H :    0.065917
  20 H :    0.056559
  21 H :    0.067455
  22 H :    0.058647
  23 H :    0.046583
  24 H :    0.040887
  25 H :    0.052570
  26 H :    0.047825
  27 H :    0.042243
  28 H :    0.050987

-------------------------------
LOEWDIN REDUCED ORBITAL CHARGES
-------------------------------
  0 C s       :     0.781249  s :     0.781249
      pz      :     1.035105  p :     3.091969
      px      :     1.010776
      py      :     1.046087
      dz2     :     0.030507  d :     0.246198
      dxz     :     0.054697
      dyz     :     0.066760
      dx2y2   :     0.022036
      dxy     :     0.072198

  1 C s       :     0.762125  s :     0.762125
      pz      :     1.001020  p :     2.934211
      px      :     0.958196
      py      :     0.974994
      dz2     :     0.054281  d :     0.376284
      dxz     :     0.081262
      dyz     :     0.092256
      dx2y2   :     0.061873
      dxy     :     0.086612

  2 C s       :     0.769072  s :     0.769072
      pz      :     1.027432  p :     3.000347
      px      :     0.964574
      py      :     1.008341
      dz2     :     0.047136  d :     0.308975
      dxz     :     0.074669
      dyz     :     0.060119
      dx2y2   :     0.073985
      dxy     :     0.053066

  3 C s       :     0.763575  s :     0.763575
      pz      :     0.992701  p :     3.000330
      px      :     0.959496
      py      :     1.048133
      dz2     :     0.039371  d :     0.316053
      dxz     :     0.073308
      dyz     :     0.088136
      dx2y2   :     0.062616
      dxy     :     0.052623

  4 C s       :     0.761267  s :     0.761267
      pz      :     0.969366  p :     2.945577
      px      :     0.957510
      py      :     1.018701
      dz2     :     0.060588  d :     0.355068
      dxz     :     0.086484
      dyz     :     0.079854
      dx2y2   :     0.069315
      dxy     :     0.058827

  5 C s       :     0.791744  s :     0.791744
      pz      :     0.937424  p :     2.612062
      px      :     0.914278
      py      :     0.760360
      dz2     :     0.149425  d :     0.580103
      dxz     :     0.173825
      dyz     :     0.127697
      dx2y2   :     0.073061
      dxy     :     0.056095

  6 O s       :     1.529097  s :     1.529097
      pz      :     1.479594  p :     4.536813
      px      :     1.625100
      py      :     1.432119
      dz2     :     0.027796  d :     0.075712
      dxz     :     0.023146
      dyz     :     0.018208
      dx2y2   :     0.003633
      dxy     :     0.002929

  7 C s       :     0.768404  s :     0.768404
      pz      :     1.044678  p :     3.012620
      px      :     0.971639
      py      :     0.996303
      dz2     :     0.034235  d :     0.292586
      dxz     :     0.061673
      dyz     :     0.075331
      dx2y2   :     0.057299
      dxy     :     0.064048

  8 C s       :     0.759129  s :     0.759129
      pz      :     1.027359  p :     2.930852
      px      :     0.949720
      py      :     0.953773
      dz2     :     0.076093  d :     0.382213
      dxz     :     0.074159
      dyz     :     0.062428
      dx2y2   :     0.086461
      dxy     :     0.083072

  9 C s       :     0.778577  s :     0.778577
      pz      :     1.044358  p :     3.094350
      px      :     1.063831
      py      :     0.986161
      dz2     :     0.063640  d :     0.241646
      dxz     :     0.030272
      dyz     :     0.044211
      dx2y2   :     0.039375
      dxy     :     0.064147

 10 C s       :     0.779037  s :     0.779037
      pz      :     1.035104  p :     3.093648
      px      :     1.029895
      py      :     1.028648
      dz2     :     0.072892  d :     0.243361
      dxz     :     0.029473
      dyz     :     0.038174
      dx2y2   :     0.067750
      dxy     :     0.035073

 11 H s       :     0.806844  s :     0.806844
      pz      :     0.043091  p :     0.144533
      px      :     0.049808
      py      :     0.051634

 12 H s       :     0.810327  s :     0.810327
      pz      :     0.056465  p :     0.144588
      px      :     0.041171
      py      :     0.046952

 13 H s       :     0.806243  s :     0.806243
      pz      :     0.047904  p :     0.144788
      px      :     0.045800
      py      :     0.051083

 14 H s       :     0.800092  s :     0.800092
      pz      :     0.057018  p :     0.148352
      px      :     0.044579
      py      :     0.046754

 15 H s       :     0.802921  s :     0.802921
      pz      :     0.060911  p :     0.146221
      px      :     0.045597
      py      :     0.039714

 16 H s       :     0.805205  s :     0.805205
      pz      :     0.045645  p :     0.147599
      px      :     0.039211
      py      :     0.062743

 17 H s       :     0.809020  s :     0.809020
      pz      :     0.048390  p :     0.150081
      px      :     0.040476
      py      :     0.061215

 18 H s       :     0.801614  s :     0.801614
      pz      :     0.048058  p :     0.146992
      px      :     0.045988
      py      :     0.052945

 19 H s       :     0.786067  s :     0.786067
      pz      :     0.043855  p :     0.148016
      px      :     0.039099
      py      :     0.065062

 20 H s       :     0.794255  s :     0.794255
      pz      :     0.053690  p :     0.149186
      px      :     0.039543
      py      :     0.055953

 21 H s       :     0.792837  s :     0.792837
      pz      :     0.056750  p :     0.139708
      px      :     0.040182
      py      :     0.042775

 22 H s       :     0.792627  s :     0.792627
      pz      :     0.067221  p :     0.148726
      px      :     0.042543
      py      :     0.038962

 23 H s       :     0.806077  s :     0.806077
      pz      :     0.047264  p :     0.147340
      px      :     0.050201
      py      :     0.049876

 24 H s       :     0.810445  s :     0.810445
      pz      :     0.064771  p :     0.148669
      px      :     0.044828
      py      :     0.039070

 25 H s       :     0.802501  s :     0.802501
      pz      :     0.040013  p :     0.144929
      px      :     0.062010
      py      :     0.042906

 26 H s       :     0.806877  s :     0.806877
      pz      :     0.043323  p :     0.145298
      px      :     0.039230
      py      :     0.062745

 27 H s       :     0.810367  s :     0.810367
      pz      :     0.064498  p :     0.147389
      px      :     0.043526
      py      :     0.039365

 28 H s       :     0.804377  s :     0.804377
      pz      :     0.039883  p :     0.144636
      px      :     0.062631
      py      :     0.042122



                      *****************************
                      * MAYER POPULATION ANALYSIS *
                      *****************************

  NA   - Mulliken gross atomic population
  ZA   - Total nuclear charge
  QA   - Mulliken gross atomic charge
  VA   - Mayer's total valence
  BVA  - Mayer's bonded valence
  FA   - Mayer's free valence

  ATOM       NA         ZA         QA         VA         BVA        FA
  0 C      4.0768     4.0000    -0.0768     3.9660     3.9660    -0.0000
  1 C      4.1166     4.0000    -0.1166     4.0077     4.0077    -0.0000
  2 C      4.0565     4.0000    -0.0565     3.9598     3.9598    -0.0000
  3 C      4.0428     4.0000    -0.0428     3.9268     3.9268    -0.0000
  4 C      4.1182     4.0000    -0.1182     3.9663     3.9663     0.0000
  5 C      3.7962     4.0000     0.2038     4.0217     4.0217    -0.0000
  6 O      6.3167     6.0000    -0.3167     2.0113     2.0113    -0.0000
  7 C      4.0483     4.0000    -0.0483     3.9250     3.9250     0.0000
  8 C      4.0929     4.0000    -0.0929     4.0512     4.0512     0.0000
  9 C      4.0753     4.0000    -0.0753     3.9577     3.9577    -0.0000
 10 C      4.0722     4.0000    -0.0722     3.9620     3.9620     0.0000
 11 H      0.9572     1.0000     0.0428     1.0248     1.0248    -0.0000
 12 H      0.9657     1.0000     0.0343     1.0262     1.0262    -0.0000
 13 H      0.9589     1.0000     0.0411     1.0285     1.0285    -0.0000
 14 H      0.9456     1.0000     0.0544     1.0031     1.0031    -0.0000
 15 H      0.9608     1.0000     0.0392     1.0250     1.0250    -0.0000
 16 H      0.9593     1.0000     0.0407     1.0173     1.0173     0.0000
 17 H      0.9692     1.0000     0.0308     1.0134     1.0134     0.0000
 18 H      0.9464     1.0000     0.0536     1.0118     1.0118    -0.0000
 19 H      0.9303     1.0000     0.0697     1.0190     1.0190     0.0000
 20 H      0.9521     1.0000     0.0479     1.0241     1.0241     0.0000
 21 H      0.9363     1.0000     0.0637     1.0341     1.0341     0.0000
 22 H      0.9372     1.0000     0.0628     1.0131     1.0131     0.0000
 23 H      0.9572     1.0000     0.0428     1.0228     1.0228    -0.0000
 24 H      0.9656     1.0000     0.0344     1.0228     1.0228     0.0000
 25 H      0.9553     1.0000     0.0447     1.0278     1.0278    -0.0000
 26 H      0.9626     1.0000     0.0374     1.0289     1.0289     0.0000
 27 H      0.9702     1.0000     0.0298     1.0271     1.0271     0.0000
 28 H      0.9577     1.0000     0.0423     1.0267     1.0267    -0.0000

  Mayer bond orders larger than 0.100000
B(  0-C ,  1-C ) :   1.0010 B(  0-C , 11-H ) :   0.9968 B(  0-C , 12-H ) :   0.9941 
B(  0-C , 13-H ) :   0.9972 B(  1-C ,  2-C ) :   0.9769 B(  1-C ,  7-C ) :   0.9673 
B(  1-C , 14-H ) :   1.0004 B(  2-C ,  3-C ) :   0.9971 B(  2-C , 15-H ) :   1.0039 
B(  2-C , 16-H ) :   0.9996 B(  3-C ,  4-C ) :   0.9582 B(  3-C , 17-H ) :   0.9922 
B(  3-C , 18-H ) :   1.0006 B(  4-C ,  5-C ) :   1.0146 B(  4-C ,  8-C ) :   0.9972 
B(  4-C , 19-H ) :   0.9744 B(  5-C ,  6-O ) :   1.9207 B(  5-C ,  7-C ) :   1.0188 
B(  7-C , 20-H ) :   0.9699 B(  7-C , 21-H ) :   0.9884 B(  8-C ,  9-C ) :   0.9862 
B(  8-C , 10-C ) :   0.9976 B(  8-C , 22-H ) :   0.9908 B(  9-C , 23-H ) :   0.9950 
B(  9-C , 24-H ) :   0.9909 B(  9-C , 25-H ) :   0.9981 B( 10-C , 26-H ) :   0.9963 
B( 10-C , 27-H ) :   0.9931 B( 10-C , 28-H ) :   0.9970 

-------
TIMINGS
-------

Total SCF time: 0 days 0 hours 1 min 0 sec 

Total time                  ....      60.215 sec
Sum of individual times     ....      57.998 sec  ( 96.3%)

SCF preparation             ....       2.767 sec  (  4.6%)
Fock matrix formation       ....      53.604 sec  ( 89.0%)
  Startup                   ....       0.298 sec  (  0.6% of F)
  Split-RI-J                ....       1.883 sec  (  3.5% of F)
[...]
 34:   1023.24   0.000397    2.01  0.000121  (-0.010661  0.002181 -0.001614)
 35:   1029.67   0.000346    1.75  0.000105  ( 0.000027  0.009132 -0.004617)
 36:   1071.82   0.000540    2.73  0.000157  (-0.012316  0.000641 -0.002262)
 37:   1102.42   0.000106    0.54  0.000030  (-0.004536  0.001368 -0.002747)
 38:   1111.63   0.000354    1.79  0.000099  ( 0.006216  0.002876 -0.007248)
 39:   1151.61   0.001661    8.39  0.000450  ( 0.019512 -0.006035  0.005737)
 40:   1184.96   0.000259    1.31  0.000068  ( 0.006484 -0.004507 -0.002401)
 41:   1209.06   0.002489   12.58  0.000642  (-0.025247  0.002221 -0.000342)
 42:   1215.24   0.000223    1.12  0.000057  (-0.005006 -0.005616 -0.000748)
 43:   1243.63   0.000512    2.59  0.000129  (-0.002072 -0.009454 -0.005905)
 44:   1258.80   0.004168   21.06  0.001033  ( 0.027170 -0.009871  0.014058)
 45:   1288.64   0.000955    4.83  0.000231  ( 0.013088  0.005838 -0.005099)
 46:   1292.39   0.002147   10.85  0.000518  (-0.017988  0.013395 -0.003918)
 47:   1321.09   0.001005    5.08  0.000237  (-0.012229  0.005413 -0.007658)
 48:   1347.07   0.002832   14.31  0.000656  (-0.022091  0.009150 -0.009178)
 49:   1370.64   0.000827    4.18  0.000188  ( 0.009113 -0.010257 -0.000041)
 50:   1395.98   0.001653    8.35  0.000369  (-0.014443  0.009212 -0.008715)
 51:   1399.98   0.001366    6.90  0.000305  (-0.016961  0.004083  0.000384)
 52:   1403.32   0.000670    3.39  0.000149  ( 0.012130 -0.000438  0.001290)
 53:   1412.08   0.000046    0.23  0.000010  (-0.002824 -0.001407 -0.000552)
 54:   1425.12   0.002175   10.99  0.000476  (-0.021600  0.002135 -0.002245)
 55:   1432.69   0.000795    4.02  0.000173  ( 0.012860 -0.001390 -0.002437)
 56:   1445.15   0.002655   13.42  0.000573  ( 0.008498 -0.020324  0.009384)
 57:   1447.62   0.003533   17.86  0.000762  (-0.020374  0.014631  0.011509)
 58:   1457.11   0.002543   12.85  0.000545  (-0.010612 -0.012100 -0.016899)
 59:   1499.83   0.002759   13.94  0.000574  (-0.010496  0.021067 -0.004487)
 60:   1515.79   0.000428    2.16  0.000088  ( 0.004306 -0.007049 -0.004466)
 61:   1522.49   0.001600    8.08  0.000328  (-0.005868  0.017117 -0.000672)
 62:   1524.82   0.000928    4.69  0.000190  (-0.003849 -0.007534  0.010877)
 63:   1527.25   0.000574    2.90  0.000117  (-0.002337 -0.009500 -0.004643)
 64:   1534.67   0.001960    9.90  0.000399  (-0.007184 -0.006560 -0.017432)
 65:   1534.84   0.001270    6.42  0.000258  ( 0.008964  0.011885 -0.006044)
 66:   1540.24   0.002422   12.24  0.000491  (-0.006904 -0.006100 -0.020147)
 67:   1541.04   0.003128   15.81  0.000634  ( 0.020878  0.012722 -0.005981)
 68:   1862.88   0.045281  228.83  0.007585  (-0.027866 -0.009669  0.081947)
 69:   3089.95   0.001385    7.00  0.000140  ( 0.001446  0.009487  0.006916)
 70:   3091.18   0.003002   15.17  0.000303  (-0.012025 -0.004877  0.011606)
 71:   3091.52   0.005815   29.39  0.000587  (-0.010719  0.020943  0.005784)
 72:   3095.58   0.006413   32.41  0.000646  (-0.012895  0.019798 -0.009391)
 73:   3096.07   0.001032    5.22  0.000104  ( 0.006827  0.006413 -0.004041)
 74:   3099.55   0.000961    4.86  0.000097  (-0.005543 -0.005962 -0.005521)
 75:   3108.70   0.007365   37.22  0.000739  ( 0.009479  0.014080  0.021241)
 76:   3114.84   0.005439   27.49  0.000545  ( 0.014650  0.016940  0.006582)
 77:   3119.78   0.001044    5.28  0.000104  (-0.007258  0.002092  0.006886)
 78:   3154.09   0.004632   23.41  0.000458  (-0.009868  0.000247  0.018996)
 79:   3165.31   0.005801   29.32  0.000572  ( 0.010316 -0.021455  0.002290)
 80:   3180.08   0.003963   20.03  0.000389  (-0.015764 -0.004080 -0.011124)
 81:   3185.11   0.000274    1.39  0.000027  (-0.004444  0.001238 -0.002367)
 82:   3187.18   0.003331   16.84  0.000326  ( 0.003768 -0.013108 -0.011839)
 83:   3188.26   0.007494   37.87  0.000734  ( 0.026110  0.005975 -0.004015)
 84:   3188.96   0.005528   27.94  0.000541  (-0.004593 -0.016261  0.015984)
 85:   3190.14   0.002584   13.06  0.000253  ( 0.010701  0.004684  0.010785)
 86:   3192.34   0.002902   14.67  0.000284  (-0.001695  0.003146 -0.016460)

* The epsilon (eps) is given for a Dirac delta lineshape.
** The dipole moment derivative (T) already includes vibrational overlap.

The first frequency considered to be a vibration is 6
The total number of vibrations considered is 81


--------------------------
THERMOCHEMISTRY AT 298.15K
--------------------------

Temperature         ...   298.15 K
Pressure            ...     1.00 atm
Total Mass          ...   154.25 AMU
Quasi RRHO          ...     True
Cut-Off Frequency   ...     1.00 cm^-1

Throughout the following assumptions are being made:
  (1) The electronic state is orbitally nondegenerate
  (2) There are no thermally accessible electronically excited states
  (3) Hindered rotations indicated by low frequency modes are not
      treated as such but are treated as vibrations and this may
      cause some error
  (4) All equations used are the standard statistical mechanics
      equations for an ideal gas
  (5) All vibrations are strictly harmonic

freq.      35.56  E(vib)   ...       0.54 
freq.      75.82  E(vib)   ...       0.49 
freq.      94.87  E(vib)   ...       0.47 
freq.     157.03  E(vib)   ...       0.40 
freq.     195.93  E(vib)   ...       0.36 
freq.     244.86  E(vib)   ...       0.31 
freq.     264.13  E(vib)   ...       0.29 
freq.     266.40  E(vib)   ...       0.29 
freq.     278.60  E(vib)   ...       0.28 
freq.     311.01  E(vib)   ...       0.26 
freq.     335.38  E(vib)   ...       0.24 
freq.     379.08  E(vib)   ...       0.21 
freq.     403.03  E(vib)   ...       0.19 
freq.     426.04  E(vib)   ...       0.18 
freq.     496.95  E(vib)   ...       0.14 
freq.     522.01  E(vib)   ...       0.13 
freq.     554.33  E(vib)   ...       0.12 
freq.     584.53  E(vib)   ...       0.11 
freq.     719.07  E(vib)   ...       0.07 
freq.     761.88  E(vib)   ...       0.06 
freq.     816.71  E(vib)   ...       0.05 
freq.     872.12  E(vib)   ...       0.04 
freq.     912.94  E(vib)   ...       0.03 
freq.     919.86  E(vib)   ...       0.03 
freq.     954.63  E(vib)   ...       0.03 
freq.     975.99  E(vib)   ...       0.03 
freq.     995.00  E(vib)   ...       0.02 
freq.    1013.06  E(vib)   ...       0.02 
freq.    1023.24  E(vib)   ...       0.02 
freq.    1029.67  E(vib)   ...       0.02 
freq.    1071.82  E(vib)   ...       0.02 
freq.    1102.42  E(vib)   ...       0.02 
freq.    1111.63  E(vib)   ...       0.01 
freq.    1151.61  E(vib)   ...       0.01 
freq.    1184.96  E(vib)   ...       0.01 
freq.    1209.06  E(vib)   ...       0.01 
freq.    1215.24  E(vib)   ...       0.01 
freq.    1243.63  E(vib)   ...       0.01 
freq.    1258.80  E(vib)   ...       0.01 
freq.    1288.64  E(vib)   ...       0.01 
freq.    1292.39  E(vib)   ...       0.01 
freq.    1321.09  E(vib)   ...       0.01 
freq.    1347.07  E(vib)   ...       0.01 
freq.    1370.64  E(vib)   ...       0.01 
freq.    1395.98  E(vib)   ...       0.00 
freq.    1399.98  E(vib)   ...       0.00 
freq.    1403.32  E(vib)   ...       0.00 
freq.    1412.08  E(vib)   ...       0.00 
freq.    1425.12  E(vib)   ...       0.00 
freq.    1432.69  E(vib)   ...       0.00 
freq.    1445.15  E(vib)   ...       0.00 
freq.    1447.62  E(vib)   ...       0.00 
freq.    1457.11  E(vib)   ...       0.00 
freq.    1499.83  E(vib)   ...       0.00 
freq.    1515.79  E(vib)   ...       0.00 
freq.    1522.49  E(vib)   ...       0.00 
freq.    1524.82  E(vib)   ...       0.00 
freq.    1527.25  E(vib)   ...       0.00 
freq.    1534.67  E(vib)   ...       0.00 
freq.    1534.84  E(vib)   ...       0.00 
freq.    1540.24  E(vib)   ...       0.00 
freq.    1541.04  E(vib)   ...       0.00 
freq.    1862.88  E(vib)   ...       0.00 
freq.    3089.95  E(vib)   ...       0.00 
freq.    3091.18  E(vib)   ...       0.00 
freq.    3091.52  E(vib)   ...       0.00 
freq.    3095.58  E(vib)   ...       0.00 
freq.    3096.07  E(vib)   ...       0.00 
freq.    3099.55  E(vib)   ...       0.00 
freq.    3108.70  E(vib)   ...       0.00 
freq.    3114.84  E(vib)   ...       0.00 
freq.    3119.78  E(vib)   ...       0.00 
freq.    3154.09  E(vib)   ...       0.00 
freq.    3165.31  E(vib)   ...       0.00 
freq.    3180.08  E(vib)   ...       0.00 
freq.    3185.11  E(vib)   ...       0.00 
freq.    3187.18  E(vib)   ...       0.00 
freq.    3188.26  E(vib)   ...       0.00 
freq.    3188.96  E(vib)   ...       0.00 
freq.    3190.14  E(vib)   ...       0.00 
freq.    3192.34  E(vib)   ...       0.00 

------------
INNER ENERGY
------------

The inner energy is: U= E(el) + E(ZPE) + E(vib) + E(rot) + E(trans)
    E(el)   - is the total energy from the electronic structure calculation
              = E(kin-el) + E(nuc-el) + E(el-el) + E(nuc-nuc)
    E(ZPE)  - the the zero temperature vibrational energy from the frequency calculation
    E(vib)  - the the finite temperature correction to E(ZPE) due to population
              of excited vibrational states
    E(rot)  - is the rotational thermal energy
    E(trans)- is the translational thermal energy

Summary of contributions to the inner energy U:
Electronic energy                ...    -83.92157052 Eh
Zero point energy                ...      0.27053305 Eh     169.76 kcal/mol
Thermal vibrational correction   ...      0.00893933 Eh       5.61 kcal/mol
Thermal rotational correction    ...      0.00141627 Eh       0.89 kcal/mol
Thermal translational correction ...      0.00141627 Eh       0.89 kcal/mol
-----------------------------------------------------------------------
Total thermal energy                    -83.63926561 Eh


Summary of corrections to the electronic energy:
(perhaps to be used in another calculation)
Total thermal correction                  0.01177187 Eh       7.39 kcal/mol
Non-thermal (ZPE) correction              0.27053305 Eh     169.76 kcal/mol
-----------------------------------------------------------------------
Total correction                          0.28230492 Eh     177.15 kcal/mol


--------
ENTHALPY
--------

The enthalpy is H = U + kB*T
                kB is Boltzmann's constant
Total thermal energy              ...    -83.63926561 Eh 
Thermal Enthalpy correction       ...      0.00094421 Eh       0.59 kcal/mol
-----------------------------------------------------------------------
Total Enthalpy                    ...    -83.63832140 Eh


Note: Only C1 symmetry has been detected, increase convergence thresholds 
      if your molecule has a higher symmetry. Symmetry factor of 1.0 is   
      used for the rotational entropy correction. 
 

Note: Rotational entropy computed according to Herzberg 
Infrared and Raman Spectra, Chapter V,1, Van Nostrand Reinhold, 1945 
Point Group:  C1, Symmetry Number:   1  
Rotational constants in cm-1:     0.057252     0.025438     0.022007 

Vibrational entropy computed according to the QRRHO of S. Grimme
Chem.Eur.J. 2012 18 9955 using a reference frequency of 100.0 cm-1


-------
ENTROPY
-------

The entropy contributions are T*S = T*(S(el)+S(vib)+S(rot)+S(trans))
     S(el)   - electronic entropy
     S(vib)  - vibrational entropy
     S(rot)  - rotational entropy
     S(trans)- translational entropy
The entropies will be listed as multiplied by the temperature to get
units of energy

Electronic entropy                ...      0.00000000 Eh      0.00 kcal/mol
Vibrational entropy               ...      0.01521772 Eh      9.55 kcal/mol
Rotational entropy                ...      0.01439609 Eh      9.03 kcal/mol
Translational entropy             ...      0.01948509 Eh     12.23 kcal/mol
-----------------------------------------------------------------------
Final entropy term                ...      0.04909889 Eh     30.81 kcal/mol

In case the symmetry of your molecule has not been determined correctly
or in case you have a reason to use a different symmetry number we print 
out the resulting rotational entropy values for sn=1,12:

 non-linear molecules -----------------------------------
|  sn= 1 | S(rot)=       0.01439609 Eh      9.03 kcal/mol|
|  sn= 2 | S(rot)=       0.01374163 Eh      8.62 kcal/mol|
|  sn= 3 | S(rot)=       0.01335880 Eh      8.38 kcal/mol|
|  sn= 4 | S(rot)=       0.01308718 Eh      8.21 kcal/mol|
|  sn= 5 | S(rot)=       0.01287649 Eh      8.08 kcal/mol|
|  sn= 6 | S(rot)=       0.01270434 Eh      7.97 kcal/mol|
|  sn= 7 | S(rot)=       0.01255880 Eh      7.88 kcal/mol|
|  sn= 8 | S(rot)=       0.01243272 Eh      7.80 kcal/mol|
|  sn= 9 | S(rot)=       0.01232151 Eh      7.73 kcal/mol|
|  sn=10 | S(rot)=       0.01222203 Eh      7.67 kcal/mol|
|  sn=11 | S(rot)=       0.01213204 Eh      7.61 kcal/mol|
|  sn=12 | S(rot)=       0.01204989 Eh      7.56 kcal/mol|
 linear molecules ---------------------------------------
|  Dinfh | S(rot)=       0.00892917 Eh      5.60 kcal/mol|
|  Cinfv | S(rot)=       0.00958363 Eh      6.01 kcal/mol|
 --------------------------------------------------------


-------------------
GIBBS FREE ENERGY
-------------------

The Gibbs free energy is G = H - T*S

Total enthalpy                    ...    -83.63832140 Eh 
Total entropy correction          ...     -0.04909889 Eh    -30.81 kcal/mol
-----------------------------------------------------------------------
Final Gibbs free energy         ...    -83.68742029 Eh

For completeness - the Gibbs free energy minus the electronic energy
G-E(el)                           ...      0.23415023 Eh    146.93 kcal/mol


Maximum memory used throughout the entire PROP-calculation: 140.8 MB

--------------------------------
SUGGESTED CITATIONS FOR THIS RUN
--------------------------------

Below you find a list of papers that are relevant to this ORCA run
We neither can nor want to force you to cite these papers, but we appreciate if you do
You receive ORCA, which is the product of decades of hard work by many enthusiastic individuals, for free
The only thing we kindly ask in return is that you cite our papers,
We deeply appreciate it, if you show your appreciation for ORCA by not just citing the generic ORCA reference.

Please note that relegating all ORCA citations to the supporting information does *not* help us.
SI sections are not indexed - citations you put there will not count into any citation statistics
But we need these citations in order to attract the funding resources that allow us to do what we are doing

Therefore, if you are a happy ORCA user, please consider citing a few of the papers listed below in the main body of your paper

In addition to the list printed below, the program has created the file ./output/menthone/menthone.bibtex that contains the list in bibtex format
You can import this file easily into all common literature databanks and citation aid programs


List of essential papers. We consider these as the minimum necessary citations

  1. Neese,F.
     Software update: the ORCA program system, version 5.0
     WIRES Comput. Molec. Sci., 2022 12(1)e1606
     doi.org/10.1002/wcms.1606
  2. Mueller,M.; Hansen,A.; Grimme,S.
     wB97X-3c: A composite range-separated hybrid DFT method with a molecule-optimized polarized valence double-zeta basis set
     J. Chem. Phys., 2023 158 014103
     doi.org/10.1063/5.0133026

List of papers to cite with high priority. The work reported in these papers was absolutely
necessary for this run to complete.
Our perspective: the developers of density functionals and basis sets usually get cited in chemistry papers
Good! But without the algorithms to do something with them, the functionals or basis sets would not do anything.
Hence, in our opinion, the algorithm design and method developments papers are equally worthy of getting cited

  1. Neese,F.
     An improvement of the resolution of the identity approximation for the formation of the Coulomb matrix
     J. Comp. Chem., 2003 24(14)1740-1747
     doi.org/10.1002/jcc.10318
  2. Neese,F.; Wennmohs,F.; Hansen,A.; Becker,U.
     Efficient, approximate and parallel Hartree-Fock and hybrid DFT calculations. A 'chain-of-spheres' algorithm for the Hartree-Fock exchange
     Chem. Phys., 2009 356(1-3)98-109
     doi.org/10.1016/j.chemphys.2008.10.036
  3. Bykov,D.; Petrenko,T.; Izsak,R.; Kossmann,S.; Becker,U.; Valeev,E.; Neese,F.
     Efficient implementation of the analytic second derivatives of Hartree-Fock and hybrid DFT energies: a detailed analysis of different approximations
     Molec. Phys., 2015 113 1961-1977
     doi.org/10.1080/00268976.2015.1025114
  4. Helmich-Paris,B.; de Souza,B.; Neese,F.; Izsák,R.
     An improved chain of spheres for exchange algorithm
     J. Chem. Phys., 2021 155 104109
     doi.org/doi: 10.1063/5.0058766.
  5. Neese,F.
     The SHARK Integral Generation and Digestion System
     J. Comp. Chem., 2022  1-16
     doi.org/10.1002/jcc.26942
  6. Caldeweyher,E.; Bannwarth,C.; Grimme,S.
     Extension of the D3 dispersion coefficient model
     J. Chem. Phys., 2017 147 034112
     doi.org/10.1063/1.4993215
  7. Caldeweyher,E.; Ehlert,S.; Hansen,A.; Neugebauer,H.; Spicher,S.; Bannwarth,C.; Grimme,S.
     A generally applicable atomic-charge dependent London dispersion correction
     J. Chem. Phys., 2019 150 154122
     doi.org/10.1063/1.5090222
  8. Caldeweyher,E.; Mewes,J.; Ehlert,S.; Grimme,S.
     Extension and evaluation of the D4 London-dispersion model for periodic systems
     Phys. Chem. Chem. Phys., 2020 22(16)8499-8512
     doi.org/10.1039/D0CP00502A
  9. Wittmann,L.; Gordiy,I.; Friede,M.; Helmich-Paris,B.; Grimme,S.; Hansen,A.; Bursch,M.
     Extension of the D3 and D4 London Dispersion Corrections to the full Actinides Series
     Phys. Chem. Chem. Phys., 2024 26(32)21379-21394
     doi.org/https://doi.org/10.1039/D4CP01514B 

List of suggested additional citations. These are papers that are important in the 'surrounding' of 
of this run, or papers that preceded the highly important papers. If you like your results we are grateful for a citation.

  1. Izsak,R.; Neese,F.
     An overlap fitted chain of spheres exchange method
     J. Chem. Phys., 2011 135 144105
     doi.org/10.1063/1.3646921
  2. Izsak,R.; Hansen,A.; Neese,F.
     The resolution of identity and chain of spheres approximations for the LPNO-CCSD singles Fock term
     Molec. Phys., 2012 110 2413-2417
     doi.org/10.1080/00268976.2012.687466
  3. Neese,F.
     The ORCA program system
     WIRES Comput. Molec. Sci., 2012 2(1)73-78
     doi.org/10.1002/wcms.81
  4. Izsak,R.; Neese,F.; Klopper,W.
     Robust fitting techniques in the chain of spheres approximation to the Fock exchange: The role of the complementary space
     J. Chem. Phys., 2013 139 
     doi.org/10.1063/1.4819264
  5. Neese,F.
     Software update: the ORCA program system, version 4.0
     WIRES Comput. Molec. Sci., 2018 8(1)1-6
     doi.org/10.1002/wcms.1327
  6. Neese,F.; Wennmohs,F.; Becker,U.; Riplinger,C.
     The ORCA quantum chemistry program package
     J. Chem. Phys., 2020 152 Art. No. L224108
     doi.org/10.1063/5.0004608

List of optional additional citations

  1. Neese,F.
     Approximate second-order SCF convergence for spin unrestricted wavefunctions
     Chem. Phys. Lett., 2000 325(1-3)93-98
     doi.org/10.1016/s0009-2614(00)00662-x

Timings for individual modules:

Sum of individual times          ...      949.992 sec (=  15.833 min)
Startup calculation              ...       48.099 sec (=   0.802 min)   5.1 %
SCF iterations                   ...      571.421 sec (=   9.524 min)  60.2 %
Property integrals               ...       65.398 sec (=   1.090 min)   6.9 %
SCF Response                     ...       43.494 sec (=   0.725 min)   4.6 %
Property calculations            ...      103.741 sec (=   1.729 min)  10.9 %
SCF Gradient evaluation          ...      117.637 sec (=   1.961 min)  12.4 %
Geometry relaxation              ...        0.202 sec (=   0.003 min)   0.0 %
                             ****ORCA TERMINATED NORMALLY****
TOTAL RUN TIME: 0 days 0 hours 15 minutes 55 seconds 928 msec
