
                                 *****************
                                 * O   R   C   A *
                                 *****************

                                            #,                                       
                                            ###                                      
                                            ####                                     
                                            #####                                    
                                            ######                                   
                                           ########,                                 
                                     ,,################,,,,,                         
                               ,,#################################,,                 
                          ,,##########################################,,             
                       ,#########################################, ''#####,          
                    ,#############################################,,   '####,        
                  ,##################################################,,,,####,       
                ,###########''''           ''''###############################       
              ,#####''   ,,,,##########,,,,          '''####'''          '####       
            ,##' ,,,,###########################,,,                        '##       
           ' ,,###''''                  '''############,,,                           
         ,,##''                                '''############,,,,        ,,,,,,###''
      ,#''                                            '''#######################'''  
     '                                                          ''''####''''         
             ,#######,   #######,   ,#######,      ##                                
            ,#'     '#,  ##    ##  ,#'     '#,    #''#        ,####,   ,####,        
            ##       ##  ##   ,#'  ##            #'  '#       #'       #'  '#        
            ##       ##  #######   ##           ,######,      #####,   #    #        
            '#,     ,#'  ##    ##  '#,     ,#' ,#      #,     #,   #   #,  ,#        
             '#######'   ##     ##  '#######'  #'      '#     '####' # '####'        



                #########################################################
                #                        -***-                          #
                #          Department of theory and spectroscopy        #
                #                                                       #
                #                      Frank Neese                      #
                #                                                       #
                #     Directorship, Architecture, Infrastructure        #
                #                    SHARK, DRIVERS                     #
                #        Core code/Algorithms in most modules           #
                #                                                       #
                #        Max Planck Institute fuer Kohlenforschung      #
                #                Kaiser Wilhelm Platz 1                 #
                #                 D-45470 Muelheim/Ruhr                 #
                #                      Germany                          #
                #                                                       #
                #                  All rights reserved                  #
                #                        -***-                          #
                #########################################################


                         Program Version 6.0.1  -  RELEASE   -


 With contributions from (in alphabetic order):
[Max-Planck-Institut fuer Kohlenforschung]                               
  Daniel Aravena         : Magnetic Suceptibility                        
  Michael Atanasov       : Ab Initio Ligand Field Theory (pilot matlab implementation)
  Alexander A. Auer      : GIAO ZORA, VPT2 properties, NMR spectrum      
  Ute Becker             : All parallelization in ORCA, NUMFREQ, NUMCALC 
  Giovanni Bistoni       : ED, misc. LED, open-shell LED, HFLD           
  Martin Brehm           : Molecular dynamics                            
  Dmytro Bykov           : pre 5.0 version of the SCF Hessian            
  Marcos Casanova-Páez   : Triplet and SCS-CIS(D). UHF-(DLPNO)-IP/EA/STEOM-CCSD. UHF-CVS-IP/STEOM-CCSD   
  Vijay G. Chilkuri      : MRCI spin determinant printing, contributions to CSF-ICE 
  Pauline Colinet        : FMM embedding                                 
  Dipayan Datta          : RHF DLPNO-CCSD density                        
  Achintya Kumar Dutta   : EOM-CC, STEOM-CC                              
  Nicolas Foglia         : Exact transition moments, OPA infrastructure, MCD improvements    
  Dmitry Ganyushin       : Spin-Orbit,Spin-Spin,Magnetic field MRCI      
  Miquel Garcia-Rates    : C-PCM and meta-GGA Hessian, CCSD/C-PCM, Gaussian charge scheme 
  Tiago L. C. Gouveia    : GS-ROHF, GS-ROCIS                             
  Yang Guo               : DLPNO-NEVPT2, F12-NEVPT2, CIM, IAO-localization        
  Andreas Hansen         : Spin unrestricted coupled pair/coupled cluster methods 
  Ingolf Harden          : AUTO-CI MPn and infrastructure                
  Benjamin Helmich-Paris : MC-RPA, TRAH-(SCF,CASSCF), AVAS, COSX integrals, SCF dyn. polar. 
  Lee Huntington         : MR-EOM, pCC                                   
  Robert Izsak           : Overlap fitted RIJCOSX, COSX-SCS-MP3, EOM     
  Riya Kayal             : Wick's Theorem for AUTO-CI, AUTO-CI UHF-CCSDT 
  Emily Kempfer          : AUTO-CI, RHF CISDT and CCSDT                  
  Christian Kollmar      : KDIIS, OOCD, Brueckner-CCSD(T), CCSD density, CASPT2, CASPT2-K, improved NEVPT2 
  Axel Koslowski         : Symmetry handling                             
  Simone Kossmann        : meta-GGA functionals, TD-DFT gradient, OOMP2, (MP2 Hessian; deprecated post 5.0) 
  Lucas Lang             : DCDCAS                                        
  Marvin Lechner         : AUTO-CI (C++ implementation), FIC-MRCC        
  Spencer Leger          : CASSCF response                               
  Dagmar Lenk            : GEPOL surface, SMD, ORCA-2-JSON               
  Dimitrios Liakos       : Extrapolation schemes; Compound Job, initial MDCI parallelization 
  Dimitrios Manganas     : Further ROCIS development; embedding schemes. LFT, Crystal Embedding 
  Dimitrios Pantazis     : SARC Basis sets                               
  Anastasios Papadopoulos: AUTO-CI, single reference methods and gradients 
  Taras Petrenko         : pre 6.0 DFT Hessian and TD-DFT gradient, (ASA, deprecated), ECA, 1-Electron XAS/XES, NRVS 
  Peter Pinski           : DLPNO-MP2, DLPNO-MP2 Gradient                 
  Christoph Reimann      : Effective Core Potentials                     
  Marius Retegan         : Local ZFS, SOC                                
  Christoph Riplinger    : Optimizer, TS searches, QM/MM, DLPNO-CCSD(T), (RO)-DLPNO pert. Triples 
  Michael Roemelt        : Original ROCIS implementation                 
  Masaaki Saitow         : Open-shell DLPNO-CCSD energy and density      
  Barbara Sandhoefer     : DKH picture change effects                    
  Kantharuban Sivalingam : CASSCF convergence/infrastructure, NEVPT2 and variants, FIC-MRCI 
  Bernardo de Souza      : ESD, SOC TD-DFT                               
  Georgi L. Stoychev     : AutoAux, RI-MP2 NMR, DLPNO-MP2 response, X2C  
  Van Anh Tran           : RI-MP2 g-tensors                              
  Willem Van den Heuvel  : Paramagnetic NMR                              
  Zikuan Wang            : NOTCH, Electric field optimization            
  Frank Wennmohs         : Technical directorship and infrastructure     
  Hang Xu                : AUTO-CI-Response properties                   
                                                                         
[FACCTs GmbH]                                                            
  Markus Bursch, Miquel Garcia-Rates, Christoph Riplinger, Bernardo de Souza, Georgi L. Stoychev 
                                                                 
  APM, Basis sets (HGBS, AHGBS, def-TZVP (Ac-Lr), def2-XVPD (La-Lu)), CI-OPT, improved COSX, DLPNO-Multilevel,           
  DOCKER, DRACO, updates on ESD, GOAT, IRC, LR-CPCM, MBIS, meta-GGA TD-DFT gradient, ML-optimized integration grids, 
  MM, NACMEs, nearIR, NEB, NEB-TS, NL-DFT gradient (VV10), 2- and 3-layer-ONIOM, interface openCOSMO-RS, QMMM,   
  Crystal-QMMM, SF, symmetry and pop. for TD-DFT, r2SCAN hybrids, SOLVATOR                                   
                                                                         
[Other institutions]                                                     
  V. Asgeirsson          : NEB                                           
  Christoph Bannwarth    : sTDA-DFT, sTD-DFT, PBEh-3c, B97-3c, D3        
  Sebastian Ehlert       : rSCAN, r2SCAN, r2SCAN-3c, D4, dhf basis sets  
  Marvin Friede          : D4 for Fr, Ra, Ac-Lr                          
  Lars Goerigk           : TD-DFT with DH, B97 family of functionals     
  Stefan Grimme          : VdW corrections, initial TS optimization, DFT functionals, gCP, sTDA/sTD-DF 
  Waldemar Hujo          : DFT-NL                                        
  H. Jonsson             : NEB                                           
  Holger Kruse           : gCP                                           
  Marcel Mueller         : wB97X-3c, vDZP basis set                      
  Hagen Neugebauer       : wr2SCAN                                       
  Tobias Risthaus        : range-separated hybrid DFT                    
  Lukas Wittmann         : regularized MP2, r2SCAN double-hybrids, wr2SCAN        
                                                                         
We gratefully acknowledge several colleagues who have allowed us to      
interface, adapt or use parts of their codes:                            
  Ed Valeev, F. Pavosevic, A. Kumar             : LibInt (2-el integral package), F12 methods 
  Garnet Chan, S. Sharma, J. Yang, R. Olivares  : DMRG                   
  Ulf Ekstrom                                   : XCFun DFT Library      
  Mihaly Kallay                                 : mrcc  (arbitrary order and MRCC methods)
  Frank Weinhold                                : gennbo (NPA and NBO analysis)           
  Simon Mueller                                 : openCOSMO-RS                            
  Christopher J. Cramer and Donald G. Truhlar   : smd solvation model                     
  S Lehtola, MJT Oliveira, MAL Marques          : LibXC Library                           
  Liviu Ungur et al                             : ANISO software                          


 Your calculation uses the libint2 library for the computation of 2-el integrals
 For citations please refer to: http://libint.valeyev.net

 Your ORCA version has been built with support for libXC version: 6.2.2
 For citations please refer to: https://libxc.gitlab.io

 This ORCA versions uses:
   CBLAS   interface :  Fast vector & matrix operations
   LAPACKE interface :  Fast linear algebra routines
   SCALAPACK package :  Parallel linear algebra routines
   Shared memory     :  Shared parallel matrices
   BLAS/LAPACK       :  OpenBLAS 0.3.27  USE64BITINT DYNAMIC_ARCH NO_AFFINITY SkylakeX SINGLE_THREADED
        Core in use  :  SkylakeX
   Copyright (c) 2011-2014, The OpenBLAS Project


Your calculation utilizes the atom-pairwise dispersion correction
based on EEQ partial charges (D4)


================================================================================

cite the ECPs for C  [vDZP-ECP], O  [vDZP-ECP] as follows:
   B-Ne (ecp-2-mwb), Al-Ar (ecp-10-mwb), Ga-Kr (ecp-28-mwb), Y-Cd (ecp-28-mwb), In-Xe (ecp-46-mwb):
     A. Bergner, M. Dolg, W. Küchle, H. Stoll, and H. Preuß, Mol. Phys. 80, 1431 (1993)., T. Leininger, A. Berning, A. Nicklass, H. Stoll, H.-J. Werner, and H.-J.Flad, Chem. Phys. 217, 19 (1997).
   Na-Mg, K-Ca, Rb-Sr, Cs-Ba (CRENBL):
     L. Fernandez Pacios and P. A. Christiansen, J. Chem. Phys. 82, 2664 (1985)., M. M. Hurley, L. F. Pacios, P. A. Christiansen, R. B. Ross, and W. C. Ermler, J. Chem. Phys. 84, 6840 (1986)., L. A. LaJohn, P. A. Christiansen, R. B. Ross, T. Atashroo, and W. C. Ermler, J. Chem. Phys. 87, 2812 (1987)., R. B. Ross, J. M. Powers, T. Atashroo, W. C. Ermler, L. A. LaJohn, and P. A. Christiansen, J. Chem. Phys. 93, 6654 (1990). 
   Sc-Zn (ecp-10-mdf):
     M. Dolg, U. Wedig, H. Stoll, and H. Preuss, J. Chem. Phys. 86, 866 (1986). 
   Y-Cd (ecp-28-mwb), Hf-Hg (ecp-60-mwb):
     D. Andrae, U. Häußermann, M. Dolg, H. Stoll, and H. Preuß, Theor. Chim. Acta 77, 123 (1990). 
   La (ecp-46-mwb):
     M. Dolg, H. Stoll, and H. Preuss, J. Chem. Phys. 90, 1730 (1989)., M. Dolg, H. Stoll, and H. Preuss, Theor. Chim. Acta 85, 441 (1993).
   Ce-Lu (SBKJC-ecp):
     T. R. Cundari and W. J. Stevens, J. Chem. Phys. 98, 5555 (1993).
   Tl-Rn (ecp-78-mwb):
     W. Küchle, M. Dolg, H. Stoll, and H. Preuss, Mol. Phys. 74, 1245 (1991).

ECP parameters for C  [vDZP-ECP], O  [vDZP-ECP] have been obtained from:
MM, AH, SG, J. Chem. Phys. 158, 014103 (2023), 10.1063/5.0133026

----- Orbital basis set information -----
Your calculation utilizes the basis: vDZP
   Marcel Mueller, Andreas Hansen, Stefan Grimme 
   J. Chem. Phys. 158, 014103 (2023). DOI: 10.1063/5.0133026

----- AuxJ basis set information -----
Your calculation utilizes the auxiliary basis: def2/J
   F. Weigend, Phys. Chem. Chem. Phys. 8, 1057 (2006).

================================================================================
                                        WARNINGS
                       Please study these warnings very carefully!
================================================================================

WARNING: Frozen-Core approximation turned on, but there are no core electrons.
  ===> : Turning off frozen-core approximation


WARNING: Geometry Optimization
  ===> : Switching off AutoStart
         For restart on a previous wavefunction, please use MOREAD

================================================================================
                                       INPUT FILE
================================================================================
NAME = ./output/dimethyl_phthalate/dimethyl_phthalate.inp
|  1> ! wB97X-3c OPT FREQ TightSCF
|  2> %pal
|  3>   nprocs 40
|  4> end
|  5> * xyz 0 1
|  6> C      2.594715     2.337324    -0.524563
|  7> O      1.621967     1.299804    -0.510256
|  8> C      1.890924     0.019008    -0.016249
|  9> O      3.046776    -0.268666     0.401268
| 10> C      0.836201    -1.020195    -0.035609
| 11> C      1.212612    -2.345060    -0.325468
| 12> C      0.250473    -3.345802    -0.465437
| 13> C     -1.100859    -3.040620    -0.320462
| 14> C     -1.494866    -1.738204    -0.011710
| 15> C     -0.540551    -0.718526     0.156535
| 16> C     -1.018703     0.612386     0.594768
| 17> O     -0.323686     1.311028     1.382873
| 18> O     -2.273047     1.067058     0.174326
| 19> C     -2.804110     2.326225     0.568925
| 20> H      2.931794     2.556066     0.510796
| 21> H      3.463528     2.035591    -1.147075
| 22> H      2.143262     3.253760    -0.956729
| 23> H      2.254356    -2.601441    -0.476082
| 24> H      0.553376    -4.358156    -0.700046
| 25> H     -1.845365    -3.817932    -0.435132
| 26> H     -2.549639    -1.534214     0.127677
| 27> H     -2.135365     3.144542     0.227283
| 28> H     -3.803322     2.461442     0.106604
| 29> H     -2.910472     2.364581     1.673763
| 30> *
| 31> 
| 32>                          ****END OF INPUT****
================================================================================

                       *****************************
                       * Geometry Optimization Run *
                       *****************************

Geometry optimization settings:
Update method            Update   .... BFGS
Choice of coordinates    CoordSys .... (2022) Redundant Internals
Initial Hessian          InHess   .... Almloef's Model
Max. no of cycles        MaxIter  .... 72

Convergence Tolerances:
Energy Change            TolE     ....  5.0000e-06 Eh
Max. Gradient            TolMAXG  ....  3.0000e-04 Eh/bohr
RMS Gradient             TolRMSG  ....  1.0000e-04 Eh/bohr
Max. Displacement        TolMAXD  ....  4.0000e-03 bohr
RMS Displacement         TolRMSD  ....  2.0000e-03 bohr
Strict Convergence                .... False

------------------------------------------------------------------------------
                        ORCA OPTIMIZATION COORDINATE SETUP
------------------------------------------------------------------------------

The optimization will be done in redundant internal coordinates (2022)
Making redundant internal coordinates   ...  (2022 redundants) done
Evaluating the initial hessian          ...  (Almloef) done
Evaluating the coordinates              ...  done
Calculating the B-matrix                .... done
Calculating the G-matrix                .... done
Diagonalizing the G-matrix              .... done
Small eigenvalue found = 4.658e-03
Small eigenvalue found = 1.999e-02
Small eigenvalue found = 2.845e-02
The first mode is                       ....   38
The number of degrees of freedom        ....   66

    -----------------------------------------------------------------
                    Redundant Internal Coordinates


    -----------------------------------------------------------------
         Definition                    Initial Value    Approx d2E/dq
    -----------------------------------------------------------------
      1. B(O   1,C   0)                  1.4223         0.497014   
      2. B(C   2,O   1)                  1.3989         0.541669   
      3. B(O   3,C   2)                  1.2622         0.894997   
      4. B(C   4,C   2)                  1.4808         0.447588   
      5. B(C   5,C   4)                  1.4075         0.585959   
      6. B(C   6,C   5)                  1.3953         0.612809   
      7. B(C   7,C   6)                  1.3929         0.618109   
      8. B(C   8,C   7)                  1.3953         0.612753   
      9. B(C   9,C   8)                  1.4067         0.587647   
     10. B(C   9,C   4)                  1.4225         0.554579   
     11. B(C  10,C   9)                  1.4805         0.448007   
     12. B(O  11,C  10)                  1.2618         0.896055   
     13. B(O  12,C  10)                  1.3989         0.541628   
     14. B(C  13,O  12)                  1.4224         0.496792   
     15. B(H  14,C   0)                  1.1106         0.333851   
     16. B(H  15,C   0)                  1.1106         0.333872   
     17. B(H  16,C   0)                  1.1092         0.335516   
     18. B(H  17,C   5)                  1.0833         0.369006   
     19. B(H  18,C   6)                  1.0824         0.370256   
     20. B(H  19,C   7)                  1.0824         0.370256   
     21. B(H  20,C   8)                  1.0833         0.369043   
     22. B(H  21,C  13)                  1.1107         0.333772   
     23. B(H  22,C  13)                  1.1093         0.335507   
     24. B(H  23,C  13)                  1.1106         0.333844   
     25. A(O   1,C   0,H  15)          110.0287         0.333736   
     26. A(H  14,C   0,H  15)          109.7931         0.284044   
     27. A(H  14,C   0,H  16)          108.9056         0.284261   
     28. A(H  15,C   0,H  16)          108.9334         0.284264   
     29. A(O   1,C   0,H  14)          109.9914         0.333733   
     30. A(O   1,C   0,H  16)          109.1620         0.334009   
     31. A(C   0,O   1,C   2)          122.6808         0.402123   
     32. A(O   1,C   2,C   4)          120.0656         0.397324   
     33. A(O   3,C   2,C   4)          119.7782         0.434437   
     34. A(O   1,C   2,O   3)          120.1043         0.446712   
     35. A(C   2,C   4,C   5)          118.2164         0.405462   
     36. A(C   5,C   4,C   9)          119.0973         0.421193   
     37. A(C   2,C   4,C   9)          122.6010         0.401544   
     38. A(C   4,C   5,C   6)          120.7561         0.428785   
     39. A(C   6,C   5,H  17)          118.6464         0.353673   
     40. A(C   4,C   5,H  17)          120.5683         0.351002   
     41. A(C   7,C   6,H  18)          119.9304         0.354392   
     42. A(C   5,C   6,H  18)          119.9722         0.353875   
     43. A(C   5,C   6,C   7)          120.0923         0.432918   
     44. A(C   6,C   7,H  19)          119.9279         0.354392   
     45. A(C   8,C   7,H  19)          119.9690         0.353870   
     46. A(C   6,C   7,C   8)          120.0986         0.432911   
     47. A(C   7,C   8,H  20)          118.6317         0.353673   
     48. A(C   7,C   8,C   9)          120.7651         0.429000   
     49. A(C   9,C   8,H  20)          120.5740         0.351179   
     50. A(C   8,C   9,C  10)          117.8996         0.405735   
     51. A(C   4,C   9,C  10)          122.9023         0.401610   
     52. A(C   4,C   9,C   8)          119.1260         0.421409   
     53. A(C   9,C  10,O  11)          120.3111         0.434603   
     54. A(O  11,C  10,O  12)          120.1088         0.446802   
     55. A(C   9,C  10,O  12)          119.5249         0.397384   
     56. A(C  10,O  12,C  13)          122.6240         0.402086   
     57. A(H  22,C  13,H  23)          108.9135         0.284259   
     58. A(H  21,C  13,H  23)          109.7685         0.284030   
     59. A(O  12,C  13,H  23)          110.0173         0.333707   
     60. A(H  21,C  13,H  22)          108.9270         0.284249   
     61. A(O  12,C  13,H  22)          109.1840         0.333982   
     62. A(O  12,C  13,H  21)          110.0043         0.333695   
     63. D(C   2,O   1,C   0,H  15)     60.7703         0.019522   
     64. D(C   2,O   1,C   0,H  16)   -179.7387         0.019522   
     65. D(C   2,O   1,C   0,H  14)    -60.3042         0.019522   
     66. D(C   4,C   2,O   1,C   0)   -179.6892         0.021192   
     67. D(O   3,C   2,O   1,C   0)     -2.3163         0.021192   
     68. D(C   5,C   4,C   2,O   3)    -35.0462         0.013659   
     69. D(C   5,C   4,C   2,O   1)    142.3354         0.013659   
     70. D(C   9,C   4,C   2,O   3)    148.3446         0.013659   
     71. D(C   9,C   4,C   2,O   1)    -34.2739         0.013659   
     72. D(H  17,C   5,C   4,C   9)   -179.9912         0.023612   
     73. D(H  17,C   5,C   4,C   2)      3.2778         0.023612   
     74. D(C   6,C   5,C   4,C   9)      2.0006         0.023612   
     75. D(C   6,C   5,C   4,C   2)   -174.7304         0.023612   
     76. D(C   7,C   6,C   5,H  17)   -177.9564         0.025950   
     77. D(C   7,C   6,C   5,C   4)      0.0894         0.025950   
     78. D(H  18,C   6,C   5,H  17)      1.2274         0.025950   
     79. D(H  18,C   6,C   5,C   4)    179.2732         0.025950   
     80. D(H  19,C   7,C   6,H  18)      0.4705         0.026428   
     81. D(H  19,C   7,C   6,C   5)    179.6547         0.026428   
     82. D(C   8,C   7,C   6,H  18)    179.6910         0.026428   
     83. D(C   8,C   7,C   6,C   5)     -1.1248         0.026428   
     84. D(H  20,C   8,C   7,H  19)      1.2033         0.025945   
     85. D(H  20,C   8,C   7,C   6)   -178.0169         0.025945   
     86. D(C   9,C   8,C   7,H  19)    179.2495         0.025945   
     87. D(C   9,C   8,C   7,C   6)      0.0293         0.025945   
     88. D(C   4,C   9,C   8,C   7)      2.0611         0.023755   
     89. D(C  10,C   9,C   4,C   5)    173.8012         0.021052   
     90. D(C  10,C   9,C   4,C   2)     -9.6182         0.021052   
     91. D(C   8,C   9,C   4,C   5)     -3.0425         0.021052   
     92. D(C   4,C   9,C   8,H  20)   -179.9307         0.023755   
     93. D(C   8,C   9,C   4,C   2)    173.5381         0.021052   
     94. D(C  10,C   9,C   8,H  20)      3.0677         0.023755   
     95. D(C  10,C   9,C   8,C   7)   -174.9405         0.023755   
     96. D(O  12,C  10,C   9,C   8)    -33.7702         0.013684   
     97. D(O  12,C  10,C   9,C   4)    149.3496         0.013684   
     98. D(O  11,C  10,C   9,C   8)    143.5304         0.013684   
     99. D(O  11,C  10,C   9,C   4)    -33.3498         0.013684   
    100. D(C  13,O  12,C  10,O  11)      1.8803         0.021189   
    101. D(C  13,O  12,C  10,C   9)    179.1865         0.021189   
    102. D(H  23,C  13,O  12,C  10)    -60.7691         0.019504   
    103. D(H  22,C  13,O  12,C  10)    179.7576         0.019504   
    104. D(H  21,C  13,O  12,C  10)     60.2757         0.019504   
    -----------------------------------------------------------------

Number of atoms                         .... 24
Number of degrees of freedom            .... 104


         *************************************************************
         *                GEOMETRY OPTIMIZATION CYCLE   1            *
         *************************************************************
---------------------------------
CARTESIAN COORDINATES (ANGSTROEM)
---------------------------------
  C      2.594715    2.337324   -0.524563
  O      1.621967    1.299804   -0.510256
  C      1.890924    0.019008   -0.016249
  O      3.046776   -0.268666    0.401268
  C      0.836201   -1.020195   -0.035609
  C      1.212612   -2.345060   -0.325468
  C      0.250473   -3.345802   -0.465437
  C     -1.100859   -3.040620   -0.320462
  C     -1.494866   -1.738204   -0.011710
  C     -0.540551   -0.718526    0.156535
  C     -1.018703    0.612386    0.594768
  O     -0.323686    1.311028    1.382873
  O     -2.273047    1.067058    0.174326
  C     -2.804110    2.326225    0.568925
  H      2.931794    2.556066    0.510796
  H      3.463528    2.035591   -1.147075
  H      2.143262    3.253760   -0.956729
  H      2.254356   -2.601441   -0.476082
  H      0.553376   -4.358156   -0.700046
  H     -1.845365   -3.817932   -0.435132
  H     -2.549639   -1.534214    0.127677
  H     -2.135365    3.144542    0.227283
  H     -3.803322    2.461442    0.106604
  H     -2.910472    2.364581    1.673763

----------------------------
CARTESIAN COORDINATES (A.U.)
----------------------------
  NO LB      ZA    FRAG     MASS         X           Y           Z
   0 C     4.0000*   0    12.011    4.903301    4.416902   -0.991280
   1 O     6.0000*   0    15.999    3.065073    2.456274   -0.964244
   2 C     4.0000*   0    12.011    3.573329    0.035920   -0.030706
   3 O     6.0000*   0    15.999    5.757572   -0.507705    0.758287
   4 C     4.0000*   0    12.011    1.580191   -1.927889   -0.067291
   5 C     4.0000*   0    12.011    2.291505   -4.431521   -0.615045
   6 C     4.0000*   0    12.011    0.473325   -6.322649   -0.879548
   7 C     4.0000*   0    12.011   -2.080322   -5.745939   -0.605585
   8 C     4.0000*   0    12.011   -2.824887   -3.284730   -0.022129
   9 C     4.0000*   0    12.011   -1.021493   -1.357817    0.295808
  10 C     4.0000*   0    12.011   -1.925070    1.157242    1.123949
  11 O     6.0000*   0    15.999   -0.611678    2.477484    2.613251
  12 O     6.0000*   0    15.999   -4.295436    2.016447    0.329428
  13 C     4.0000*   0    12.011   -5.299000    4.395928    1.075112
  14 H     1.0000    0     1.008    5.540288    4.830265    0.965265
  15 H     1.0000    0     1.008    6.545119    3.846710   -2.167658
  16 H     1.0000    0     1.008    4.050178    6.148715   -1.807956
  17 H     1.0000    0     1.008    4.260115   -4.916011   -0.899665
  18 H     1.0000    0     1.008    1.045729   -8.235721   -1.322895
  19 H     1.0000    0     1.008   -3.487234   -7.214846   -0.822280
  20 H     1.0000    0     1.008   -4.818119   -2.899244    0.241275
  21 H     1.0000    0     1.008   -4.035255    5.942323    0.429503
  22 H     1.0000    0     1.008   -7.187237    4.651451    0.201452
  23 H     1.0000    0     1.008   -5.499995    4.468411    3.162954
* core charge reduced due to ECP

--------------------------------
INTERNAL COORDINATES (ANGSTROEM)
--------------------------------
 C      0   0   0     0.000000000000     0.00000000     0.00000000
 O      1   0   0     1.422283766396     0.00000000     0.00000000
 C      2   1   0     1.398863530697   122.68083867     0.00000000
 O      3   2   1     1.262169014621   120.10427811   357.68373761
 C      3   2   1     1.480796505783   120.06555480   180.31080986
 C      5   3   2     1.407469626325   118.21644023   142.33536470
 C      6   5   3     1.395273208675   120.75610676   185.26956534
 C      7   6   5     1.392929279602   120.09230511     0.08940720
 C      8   7   6     1.395298086650   120.09855296   358.87521986
 C      9   8   7     1.406686433763   120.76512399     0.02933237
 C     10   9   8     1.480541876860   117.89958659   185.05954880
 O     11  10   9     1.261847362195   120.31113124   143.53044010
 O     11  10   9     1.398884188660   119.52486719   326.22980592
 C     13  11  10     1.422405643499   122.62399513   179.18646330
 H      1   2   3     1.110602797442   109.99138643   299.69577646
 H      1   2   3     1.110585441289   110.02873771    60.77027209
 H      1   2   3     1.109248486526   109.16200654   180.26134287
 H      6   5   3     1.083349599941   120.56830778     3.27776098
 H      7   6   5     1.082428857526   119.97224717   179.27324241
 H      8   7   6     1.082428906802   119.92786207   179.65471107
 H      9   8   7     1.083322083869   118.63167910   181.98314741
 H     14  13  11     1.110667296574   110.00426002    60.27569977
 H     14  13  11     1.109256041261   109.18401013   179.75756965
 H     14  13  11     1.110608420652   110.01729532   299.23090022

---------------------------
INTERNAL COORDINATES (A.U.)
---------------------------
 C      0   0   0     0.000000000000     0.00000000     0.00000000
 O      1   0   0     2.687726803210     0.00000000     0.00000000
 C      2   1   0     2.643468971747   122.68083867     0.00000000
 O      3   2   1     2.385153772355   120.10427811   357.68373761
 C      3   2   1     2.798299855997   120.06555480   180.31080986
 C      5   3   2     2.659732135566   118.21644023   142.33536470
 C      6   5   3     2.636684246393   120.75610676   185.26956534
 C      7   6   5     2.632254862368   120.09230511     0.08940720
 C      8   7   6     2.636731258953   120.09855296   358.87521986
 C      9   8   7     2.658252116115   120.76512399     0.02933237
 C     10   9   8     2.797818677068   117.89958659   185.05954880
 O     11  10   9     2.384545937359   120.31113124   143.53044010
 O     11  10   9     2.643508009641   119.52486719   326.22980592
 C     13  11  10     2.687957117558   122.62399513   179.18646330
 H      1   2   3     2.098735130732   109.99138643   299.69577646
 H      1   2   3     2.098702332355   110.02873771    60.77027209
 H      1   2   3     2.096175854001   109.16200654   180.26134287
 H      6   5   3     2.047234051182   120.56830778     3.27776098
 H      7   6   5     2.045494100178   119.97224717   179.27324241
 H      8   7   6     2.045494193295   119.92786207   179.65471107
 H      9   8   7     2.047182053341   118.63167910   181.98314741
 H     14  13  11     2.098857016427   110.00426002    60.27569977
 H     14  13  11     2.096190130381   109.18401013   179.75756965
 H     14  13  11     2.098745757060   110.01729532   299.23090022

---------------------
BASIS SET INFORMATION
---------------------
There are 3 groups of distinct atoms

 Group   1 Type C   : 6s6p2d contracted to 2s2p1d pattern {42/42/2}
 Group   2 Type O   : 6s6p2d contracted to 2s2p1d pattern {42/42/2}
 Group   3 Type H   : 8s2p contracted to 2s1p pattern {53/2}

Atom   0C    basis set group =>   1
Atom   1O    basis set group =>   2
Atom   2C    basis set group =>   1
Atom   3O    basis set group =>   2
Atom   4C    basis set group =>   1
Atom   5C    basis set group =>   1
Atom   6C    basis set group =>   1
Atom   7C    basis set group =>   1
Atom   8C    basis set group =>   1
Atom   9C    basis set group =>   1
Atom  10C    basis set group =>   1
Atom  11O    basis set group =>   2
Atom  12O    basis set group =>   2
Atom  13C    basis set group =>   1
Atom  14H    basis set group =>   3
Atom  15H    basis set group =>   3
Atom  16H    basis set group =>   3
Atom  17H    basis set group =>   3
Atom  18H    basis set group =>   3
Atom  19H    basis set group =>   3
Atom  20H    basis set group =>   3
Atom  21H    basis set group =>   3
Atom  22H    basis set group =>   3
Atom  23H    basis set group =>   3
---------------------------------
AUXILIARY/J BASIS SET INFORMATION
---------------------------------
There are 3 groups of distinct atoms

 Group   1 Type C   : 12s5p4d2f1g contracted to 6s4p3d1f1g pattern {711111/2111/211/2/1}
 Group   2 Type O   : 12s5p4d2f1g contracted to 6s4p3d1f1g pattern {711111/2111/211/2/1}
 Group   3 Type H   : 5s2p1d contracted to 3s1p1d pattern {311/2/1}

Atom   0C    basis set group =>   1
Atom   1O    basis set group =>   2
Atom   2C    basis set group =>   1
Atom   3O    basis set group =>   2
Atom   4C    basis set group =>   1
Atom   5C    basis set group =>   1
Atom   6C    basis set group =>   1
Atom   7C    basis set group =>   1
Atom   8C    basis set group =>   1
Atom   9C    basis set group =>   1
Atom  10C    basis set group =>   1
Atom  11O    basis set group =>   2
Atom  12O    basis set group =>   2
Atom  13C    basis set group =>   1
Atom  14H    basis set group =>   3
Atom  15H    basis set group =>   3
Atom  16H    basis set group =>   3
Atom  17H    basis set group =>   3
Atom  18H    basis set group =>   3
Atom  19H    basis set group =>   3
Atom  20H    basis set group =>   3
Atom  21H    basis set group =>   3
Atom  22H    basis set group =>   3
Atom  23H    basis set group =>   3
-------------------------
ECP PARAMETER INFORMATION
-------------------------

 Group 1, Type C  ECP vDZP-ECP (replacing 2 core electrons, lmax=3)
 Group 2, Type O  ECP vDZP-ECP (replacing 2 core electrons, lmax=3)

Atom   0C    ECP group =>   1
Atom   1O    ECP group =>   2
Atom   2C    ECP group =>   1
Atom   3O    ECP group =>   2
Atom   4C    ECP group =>   1
Atom   5C    ECP group =>   1
Atom   6C    ECP group =>   1
Atom   7C    ECP group =>   1
Atom   8C    ECP group =>   1
Atom   9C    ECP group =>   1
Atom  10C    ECP group =>   1
Atom  11O    ECP group =>   2
Atom  12O    ECP group =>   2
Atom  13C    ECP group =>   1



           ************************************************************
           *        Program running with 40 parallel MPI-processes    *
           *              working on a common directory               *
           ************************************************************
------------------------------------------------------------------------------
                             ORCA STARTUP CALCULATIONS
                           -- RI-GTO INTEGRALS CHOSEN --
------------------------------------------------------------------------------
------------------------------------------------------------------------------
                   ___                                                        
                  /   \      - P O W E R E D   B Y -                         
                 /     \                                                     
                 |  |  |   _    _      __       _____    __    __             
                 |  |  |  | |  | |    /  \     |  _  \  |  |  /  |          
                  \  \/   | |  | |   /    \    | | | |  |  | /  /          
                 / \  \   | |__| |  /  /\  \   | |_| |  |  |/  /          
                |  |  |   |  __  | /  /__\  \  |    /   |      \           
                |  |  |   | |  | | |   __   |  |    \   |  |\   \          
                \     /   | |  | | |  |  |  |  | |\  \  |  | \   \       
                 \___/    |_|  |_| |__|  |__|  |_| \__\ |__|  \__/        
                                                                              
                      - O R C A' S   B I G   F R I E N D -                    
                                      &                                       
                       - I N T E G R A L  F E E D E R -                       
                                                                              
 v1 FN, 2020, v2 2021, v3 2022-2024                                           
------------------------------------------------------------------------------


----------------------
SHARK INTEGRAL PACKAGE
----------------------

Number of atoms                             ...     24
Number of basis functions                   ...    232
Number of shells                            ...    100
Maximum angular momentum                    ...      2
Integral batch strategy                     ... SHARK/LIBINT Hybrid
RI-J (if used) integral strategy            ... SPLIT-RIJ (Revised 2003 algorithm where possible)
Printlevel                                  ...      1
Contraction scheme used                     ... SEGMENTED contraction
Prescreening option                         ... SCHWARTZ
   Thresh                                   ... 2.500e-11
   Tcut                                     ... 2.500e-12
   Tpresel                                  ... 2.500e-12 
Coulomb Range Separation                    ... NOT USED
Exchange Range Separation                   ... Long Range
   Mu parameter                             ... 3.000e-01
   Scaling (regular/separated)              ... 1.670e-01 8.330e-01
Multipole approximations                    ... NOT USED
Finite Nucleus Model                        ... NOT USED
CABS basis                                  ... NOT available
Auxiliary Coulomb fitting basis             ... AVAILABLE
   # of basis functions in Aux-J            ...    796
   # of shells in Aux-J                     ...    260
   Maximum angular momentum in Aux-J        ...      4
Auxiliary J/K fitting basis                 ... NOT available
Auxiliary Correlation fitting basis         ... NOT available
Auxiliary 'external' fitting basis          ... NOT available

Checking pre-screening integrals            ... done (  0.0 sec) Dimension = 100
Check shell pair data                       ... done (  0.0 sec)
Shell pair information
Shell pair cut-off parameter TPreSel        ...   2.5e-12
Total number of shell pairs                 ...      5050
Shell pairs after pre-screening             ...      5013
Total number of primitive shell pairs       ...     44306
Primitive shell pairs kept                  ...     33849
          la=0 lb=0:   1172 shell pairs
          la=1 lb=0:   1807 shell pairs
          la=1 lb=1:    727 shell pairs
          la=2 lb=0:    671 shell pairs
          la=2 lb=1:    531 shell pairs
          la=2 lb=2:    105 shell pairs

Calculating one electron integrals          ... done (  0.0 sec)
Calculating ECP integrals                   ... done (  0.1 sec)
Calculating RI/J V-Matrix + Cholesky decomp.... done (  0.0 sec)
Calculating Nuclear repulsion               ... done (  0.0 sec) ENN=    453.689300995088 Eh

Diagonalization of the overlap matrix:
Smallest eigenvalue                        ... 3.733e-04
Time for diagonalization                   ...    0.007 sec
Threshold for overlap eigenvalues          ... 1.000e-07
Number of eigenvalues below threshold      ... 0
Time for construction of square roots      ...    0.004 sec
Total time needed                          ...    0.016 sec

-------------------
DFT GRID GENERATION
-------------------

General Integration Accuracy     IntAcc      ... 4.388
Radial Grid Type                 RadialGrid  ... OptM3 with GC (2021)
Angular Grid (max. ang.)         AngularGrid ... 4 (Lebedev-302)
Angular grid pruning method      GridPruning ... 4 (adaptive)
Weight generation scheme         WeightScheme... mBecke (2022)
Basis function cutoff            BFCut       ... 1.0000e-11
Integration weight cutoff        WCut        ... 1.0000e-14
Partially contracted basis set               ... off
Rotationally invariant grid construction     ... off
Angular grids for H and He will be reduced by one unit

Total number of grid points                  ...   116559
Total number of batches                      ...     1836
Average number of points per batch           ...       63
Average number of grid points per atom       ...     4857

--------------------
COSX GRID GENERATION
--------------------

GRIDX 1
-------
General Integration Accuracy     IntAcc      ... 3.816
Radial Grid Type                 RadialGrid  ... OptM3 with GC (2021)
Angular Grid (max. ang.)         AngularGrid ... 1 (Lebedev-50)
Angular grid pruning method      GridPruning ... 4 (adaptive)
Weight generation scheme         WeightScheme... mBecke (2022)
Basis function cutoff            BFCut       ... 1.0000e-11
Integration weight cutoff        WCut        ... 1.0000e-14
Partially contracted basis set               ... on
Rotationally invariant grid construction     ... off
Angular grids for H and He will be reduced by one unit

Total number of grid points                  ...    14828
Total number of batches                      ...      131
Average number of points per batch           ...      113
Average number of grid points per atom       ...      618
UseSFitting                                  ... on

GRIDX 2
-------
General Integration Accuracy     IntAcc      ... 4.020
Radial Grid Type                 RadialGrid  ... OptM3 with GC (2021)
Angular Grid (max. ang.)         AngularGrid ... 2 (Lebedev-110)
Angular grid pruning method      GridPruning ... 4 (adaptive)
Weight generation scheme         WeightScheme... mBecke (2022)
Basis function cutoff            BFCut       ... 1.0000e-11
Integration weight cutoff        WCut        ... 1.0000e-14
Partially contracted basis set               ... on
Rotationally invariant grid construction     ... off
Angular grids for H and He will be reduced by one unit

Total number of grid points                  ...    32608
Total number of batches                      ...      266
Average number of points per batch           ...      122
Average number of grid points per atom       ...     1359
UseSFitting                                  ... on

GRIDX 3
-------
General Integration Accuracy     IntAcc      ... 4.338
Radial Grid Type                 RadialGrid  ... OptM3 with GC (2021)
Angular Grid (max. ang.)         AngularGrid ... 3 (Lebedev-194)
Angular grid pruning method      GridPruning ... 4 (adaptive)
Weight generation scheme         WeightScheme... mBecke (2022)
Basis function cutoff            BFCut       ... 1.0000e-11
Integration weight cutoff        WCut        ... 1.0000e-14
Partially contracted basis set               ... on
Rotationally invariant grid construction     ... off
Angular grids for H and He will be reduced by one unit

Total number of grid points                  ...    71693
Total number of batches                      ...      574
Average number of points per batch           ...      124
Average number of grid points per atom       ...     2987
UseSFitting                                  ... on
Initializing property integral containers    ... done (  0.0 sec)

SHARK setup successfully completed in   3.5 seconds

Maximum memory used throughout the entire STARTUP-calculation: 33.5 MB


           ************************************************************
           *        Program running with 40 parallel MPI-processes    *
           *              working on a common directory               *
           ************************************************************
-------------------------------------------------------------------------------
                                 ORCA GUESS
                   Start orbitals & Density for SCF / CASSCF
-------------------------------------------------------------------------------

------------
SCF SETTINGS
------------
Hamiltonian:
 Density Functional     Method          .... DFT(GTOs)
 Exchange Functional    Exchange        .... WB97X-V
 Correlation Functional Correlation     .... WB97X-V
 Gradients option       PostSCFGGA      .... off
 Hybrid DFT is turned on
   Fraction HF Exchange ScalHFX         ....  0.167000
   Scaling of DF-GGA-X  ScalDFX         ....  0.000000
   Scaling of DF-GGA-C  ScalDFC         ....  1.000000
   Scaling of DF-LDA-C  ScalLDAC        ....  1.000000
   Perturbative correction              ....  0.000000
 Long-range corrected/Screened/Range-Separated Hybrid DFT is turned on
   Amount of maximum screened exact exchange              ....  0.833000
   Range separation parameter mu (erf(mu*r12)/r12)        ....  0.300000
   NL short-range parameter             ....  6.000000
   NL long-range parameter              ....  0.010000
 RI-approximation to the Coulomb term is turned on
   Number of AuxJ basis functions       .... 796
   RIJ-COSX (HFX calculated with COS-X)).... on


General Settings:
 Integral files         IntName         .... ./output/dimethyl_phthalate/dimethyl_phthalate
 Hartree-Fock type      HFTyp           .... RHF
 Total Charge           Charge          ....    0
 Multiplicity           Mult            ....    1
 Number of Electrons    NEL             ....   74
 Basis Dimension        Dim             ....  232
 Nuclear Repulsion      ENuc            ....    453.6893009951 Eh

Convergence Acceleration:
 AO-DIIS                CNVDIIS         .... on
   Start iteration      DIISMaxIt       ....    12
   Startup error        DIISStart       ....  0.200000
   # of expansion vecs  DIISMaxEq       ....     5
   Bias factor          DIISBfac        ....   1.050
   Max. coefficient     DIISMaxC        ....  10.000
 MO-DIIS                CNVKDIIS        .... off
 Trust-Rad. Augm. Hess. CNVTRAH         .... auto
   Auto Start mean grad. ratio tolernc. ....  1.125000
   Auto Start start iteration           ....    50
   Auto Start num. interpolation iter.  ....    10
   Max. Number of Micro iterations      ....    24
   Max. Number of Macro iterations      .... Maxiter - #DIIS iter
   Number of Davidson start vectors     ....     2
   Converg. threshold    (grad. norm)   ....   1.000e-05
   Grad. Scal. Fac. for Micro threshold ....   0.100
   Minimum threshold for Micro iter.    ....   1.000e-02
   NR start threshold (gradient norm)   ....   1.000e-04
   Initial trust radius                 ....   0.400
   Minimum AH scaling param. (alpha)    ....   1.000
   Maximum AH scaling param. (alpha)    .... 1000.000
   Quad. conv. algorithm                .... NR
   White noise on init. David. guess    .... on
   Maximum white noise                  ....   0.010
   Pseudo random numbers                .... off
   Inactive MOs                         .... canonical
   Orbital update algorithm             .... Taylor
   Preconditioner                       .... Diag
   Full preconditioner red. dimension   ....   250
 SOSCF                  CNVSOSCF        .... on
   Start iteration      SOSCFMaxIt      ....   150
   Startup grad/error   SOSCFStart      ....  0.003300
   Hessian update       SOSCFHessUp     .... L-BFGS
 Level Shifting         CNVShift        .... on
   Level shift para.    LevelShift      ....    0.2500
   Turn off err/grad.   ShiftErr        ....    0.0010
 Zerner damping         CNVZerner       .... off
 Static damping         CNVDamp         .... on
   Fraction old density DampFac         ....    0.7000
   Max. Damping (<1)    DampMax         ....    0.9800
   Min. Damping (>=0)   DampMin         ....    0.0000
   Turn off err/grad.   DampErr         ....    0.1000

SCF Procedure:
 Maximum # iterations   MaxIter         ....   125
 SCF integral mode      SCFMode         .... Direct
   Integral package                     .... SHARK and LIBINT hybrid scheme
 Reset frequency        DirectResetFreq ....    20
 Integral Threshold     Thresh          ....  2.500e-11 Eh
 Primitive CutOff       TCut            ....  2.500e-12 Eh

Convergence Tolerance:
 Convergence Check Mode ConvCheckMode   .... Total+1el-Energy
 Convergence forced     ConvForced      .... 0
 Energy Change          TolE            ....  1.000e-08 Eh
 1-El. energy change                    ....  1.000e-05 Eh
 Orbital Gradient       TolG            ....  1.000e-05
 Orbital Rotation angle TolX            ....  1.000e-05
 DIIS Error             TolErr          ....  5.000e-07

------------------------------
INITIAL GUESS: MODEL POTENTIAL
------------------------------
Loading Hartree-Fock densities                     ... done
Atomic calculation to generate a density for atom 0 (C  with ECP)
  Multiplicity assumed   :    1
  Atomic configuration   : 1s2 2s2 2p2 
  Number of open shells  : 1
  Command: /home/aspe232/Project/Software/ORCA/6_0_1/build/orca ./output/dimethyl_phthalate/dimethyl_phthalate_atom6.inp "" > ./output/dimethyl_phthalate/dimethyl_phthalate_atom6.out
Returned from the atomic calculation with res=0
Atomic calculation to generate a density for atom 1 (O  with ECP)
  Multiplicity assumed   :    3
  Atomic configuration   : 1s2 2s2 2p4 
  Number of open shells  : 1
  Command: /home/aspe232/Project/Software/ORCA/6_0_1/build/orca ./output/dimethyl_phthalate/dimethyl_phthalate_atom8.inp "" > ./output/dimethyl_phthalate/dimethyl_phthalate_atom8.out
Returned from the atomic calculation with res=0
Calculating cut-offs                               ... done
Initializing the effective Hamiltonian             ... done
Setting up the integral package (SHARK)            ... done
Starting the Coulomb interaction                   ... done (   0.0 sec)
Making the grid                                    ... done (   0.7 sec)
Mapping shells                                     ... done
Starting the XC term evaluation                    ... done (   0.1 sec)
  promolecular density results
     # of electrons  =    101.994109458
     EX              =    -58.949220136
     EC              =     -4.273715278
     EX+EC           =    -63.222935414
Transforming the Hamiltonian                       ... done (   0.0 sec)
Diagonalizing the Hamiltonian                      ... done (   0.0 sec)
Back transforming the eigenvectors                 ... done (   0.0 sec)
Now organizing SCF variables                       ... done
                      ------------------
                      INITIAL GUESS DONE (   1.9 sec)
                      ------------------
             **** ENERGY FILE WAS UPDATED (./output/dimethyl_phthalate/dimethyl_phthalate.en.tmp) ****
Finished Guess after   2.4 sec
Maximum memory used throughout the entire GUESS-calculation: 20.8 MB


           ************************************************************
           *        Program running with 40 parallel MPI-processes    *
           *              working on a common directory               *
           ************************************************************

-------------------------------------------------------------------------------------------
                                      ORCA LEAN-SCF
                              memory conserving SCF solver
-------------------------------------------------------------------------------------------

----------------------------------------D-I-I-S--------------------------------------------
Iteration    Energy (Eh)           Delta-E    RMSDP     MaxDP     DIISErr   Damp  Time(sec)
-------------------------------------------------------------------------------------------
               ***  Starting incremental Fock matrix formation  ***
    1    -126.8076177498635957     0.00e+00  3.45e-03  8.58e-02  1.94e-01  0.700   4.8
    2    -126.9507196470887607    -1.43e-01  2.51e-03  5.54e-02  9.62e-02  0.700   3.5
                               ***Turning on AO-DIIS***
    3    -127.0200210823725797    -6.93e-02  1.53e-03  3.08e-02  5.28e-02  0.700   3.2
    4    -127.0624202344174023    -4.24e-02  3.33e-03  6.80e-02  3.27e-02  0.000   3.4
    5    -127.1549535886072704    -9.25e-02  2.63e-04  6.18e-03  6.62e-03  0.000   3.4
                              *** Initializing SOSCF ***
---------------------------------------S-O-S-C-F--------------------------------------
Iteration    Energy (Eh)           Delta-E    RMSDP     MaxDP     MaxGrad    Time(sec)
--------------------------------------------------------------------------------------
    6    -127.1553629342564022    -4.09e-04  1.10e-04  2.94e-03  2.59e-03     3.1
               *** Restarting incremental Fock matrix formation ***
    7    -127.1554832166727351    -1.20e-04  7.89e-05  2.43e-03  7.60e-04     4.3
    8    -127.1555130628841539    -2.98e-05  8.79e-05  2.39e-03  2.38e-04     4.2
    9    -127.1555172951720465    -4.23e-06  3.21e-05  9.21e-04  3.51e-04     3.7
   10    -127.1555222893670702    -4.99e-06  6.99e-06  1.95e-04  5.43e-05     4.2
   11    -127.1555223431672061    -5.38e-08  2.44e-06  5.75e-05  3.19e-05     3.6
   12    -127.1555223913798613    -4.82e-08  5.66e-07  1.41e-05  4.52e-06     3.8
   13    -127.1555223912463930     1.33e-10  3.22e-07  8.61e-06  2.37e-06     3.7
                 **** Energy Check signals convergence ****

               *****************************************************
               *                     SUCCESS                       *
               *           SCF CONVERGED AFTER  13 CYCLES          *
               *****************************************************

Recomputing exchange energy using gridx3       ... done (    3.761 sec)
Old exchange energy                            :    -14.742266235 Eh
New exchange energy                            :    -14.742263150 Eh
Exchange energy change after final integration :      0.000003084 Eh
Total energy after final integration           :   -127.155519307 Eh
             **** ENERGY FILE WAS UPDATED (./output/dimethyl_phthalate/dimethyl_phthalate.en.tmp) ****

----------------
TOTAL SCF ENERGY
----------------

Total Energy       :       -127.15551930687508 Eh           -3460.07759 eV

Components:
Nuclear Repulsion  :        453.68930099508822 Eh           12345.51351 eV
Electronic Energy  :       -580.84482338633461 Eh          -15805.59119 eV
One Electron Energy:      -1100.62085879572396 Eh          -29949.41617 eV
Two Electron Energy:        519.77603540938935 Eh           14143.82498 eV

Virial components:
Potential Energy   :       -224.77908669997981 Eh           -6116.54991 eV
Kinetic Energy     :         97.62356739310475 Eh            2656.47232 eV
Virial Ratio       :          2.30250842806075

DFT components:
N(Alpha)           :       37.000014970897 electrons
N(Beta)            :       37.000014970897 electrons
N(Total)           :       74.000029941795 electrons
E(X)               :      -17.376467682579 Eh       
E(C)               :       -2.892991690214 Eh       
E(XC)              :      -20.269459372793 Eh       

---------------
SCF CONVERGENCE
---------------

  Last Energy change         ...   -1.3347e-10  Tolerance :   1.0000e-08
  Last MAX-Density change    ...    8.6118e-06  Tolerance :   1.0000e-07
  Last RMS-Density change    ...    3.2247e-07  Tolerance :   5.0000e-09
  Last DIIS Error            ...    2.5921e-03  Tolerance :   5.0000e-07
  Last Orbital Gradient      ...    2.3729e-06  Tolerance :   1.0000e-05
  Last Orbital Rotation      ...    6.1751e-06  Tolerance :   1.0000e-05


----------------
ORBITAL ENERGIES
----------------

  NO   OCC          E(Eh)            E(eV) 
   0   2.0000      -1.220240       -33.2044 
   1   2.0000      -1.209619       -32.9154 
   2   2.0000      -1.127818       -30.6895 
   3   2.0000      -1.120774       -30.4978 
   4   2.0000      -1.031650       -28.0726 
   5   2.0000      -0.936819       -25.4921 
   6   2.0000      -0.926967       -25.2241 
   7   2.0000      -0.868393       -23.6302 
   8   2.0000      -0.854539       -23.2532 
   9   2.0000      -0.791611       -21.5408 
  10   2.0000      -0.771231       -20.9863 
  11   2.0000      -0.717746       -19.5309 
  12   2.0000      -0.690723       -18.7955 
  13   2.0000      -0.666762       -18.1435 
  14   2.0000      -0.641058       -17.4441 
  15   2.0000      -0.614810       -16.7298 
  16   2.0000      -0.602897       -16.4057 
  17   2.0000      -0.597850       -16.2683 
  18   2.0000      -0.594635       -16.1808 
  19   2.0000      -0.586604       -15.9623 
  20   2.0000      -0.577736       -15.7210 
  21   2.0000      -0.566725       -15.4214 
  22   2.0000      -0.546597       -14.8737 
  23   2.0000      -0.539806       -14.6889 
  24   2.0000      -0.531103       -14.4520 
  25   2.0000      -0.505603       -13.7582 
  26   2.0000      -0.500023       -13.6063 
  27   2.0000      -0.485810       -13.2196 
  28   2.0000      -0.482797       -13.1376 
  29   2.0000      -0.463980       -12.6255 
  30   2.0000      -0.452941       -12.3252 
  31   2.0000      -0.417932       -11.3725 
  32   2.0000      -0.404822       -11.0158 
  33   2.0000      -0.394811       -10.7433 
  34   2.0000      -0.393193       -10.6993 
  35   2.0000      -0.371813       -10.1175 
  36   2.0000      -0.367240        -9.9931 
  37   0.0000      -0.007285        -0.1982 
  38   0.0000       0.027851         0.7579 
  39   0.0000       0.077387         2.1058 
  40   0.0000       0.086282         2.3479 
  41   0.0000       0.094246         2.5646 
  42   0.0000       0.099114         2.6970 
  43   0.0000       0.108587         2.9548 
  44   0.0000       0.113262         3.0820 
  45   0.0000       0.122499         3.3334 
  46   0.0000       0.135362         3.6834 
  47   0.0000       0.140685         3.8282 
*Only the first 10 virtual orbitals were printed.

                    ********************************
                    * MULLIKEN POPULATION ANALYSIS *
                    ********************************

-----------------------
MULLIKEN ATOMIC CHARGES
-----------------------
   0 C :    0.094847
   1 O :   -0.317412
   2 C :    0.293611
   3 O :   -0.359565
   4 C :   -0.017232
   5 C :    0.054484
   6 C :    0.009690
   7 C :    0.008415
   8 C :    0.052734
   9 C :   -0.016821
  10 C :    0.284363
  11 O :   -0.345191
  12 O :   -0.329273
  13 C :    0.091809
  14 H :    0.060721
  15 H :    0.054158
  16 H :    0.060479
  17 H :    0.043866
  18 H :    0.029841
  19 H :    0.028662
  20 H :    0.037743
  21 H :    0.057656
  22 H :    0.063964
  23 H :    0.058452
Sum of atomic charges:    0.0000000

--------------------------------
MULLIKEN REDUCED ORBITAL CHARGES
--------------------------------
  0 C s       :     0.986814  s :     0.986814
      pz      :     1.071863  p :     2.808432
      px      :     0.885405
      py      :     0.851163
      dz2     :     0.014904  d :     0.109907
      dxz     :     0.024699
      dyz     :     0.018810
      dx2y2   :     0.026138
      dxy     :     0.025356

  1 O s       :     1.702886  s :     1.702886
      pz      :     1.724234  p :     4.577864
      px      :     1.628512
      py      :     1.225118
      dz2     :     0.004692  d :     0.036663
      dxz     :     0.003803
      dyz     :     0.007855
      dx2y2   :     0.009065
      dxy     :     0.011247

  2 C s       :     1.132200  s :     1.132200
      pz      :     0.693245  p :     2.327666
      px      :     0.862425
      py      :     0.771996
      dz2     :     0.027244  d :     0.246523
      dxz     :     0.038870
      dyz     :     0.039457
      dx2y2   :     0.060153
      dxy     :     0.080798

  3 O s       :     1.800134  s :     1.800134
      pz      :     1.421452  p :     4.525618
      px      :     1.336413
      py      :     1.767753
      dz2     :     0.005165  d :     0.033814
      dxz     :     0.011081
      dyz     :     0.001294
      dx2y2   :     0.008561
      dxy     :     0.007713

  4 C s       :     1.045575  s :     1.045575
      pz      :     1.013725  p :     2.860834
      px      :     0.916967
      py      :     0.930143
      dz2     :     0.008246  d :     0.110823
      dxz     :     0.018888
      dyz     :     0.016084
      dx2y2   :     0.029006
      dxy     :     0.038598

  5 C s       :     1.018780  s :     1.018780
      pz      :     0.908925  p :     2.834125
      px      :     0.992476
      py      :     0.932724
      dz2     :     0.006129  d :     0.092611
      dxz     :     0.009552
      dyz     :     0.019436
      dx2y2   :     0.032796
      dxy     :     0.024697

  6 C s       :     1.013458  s :     1.013458
      pz      :     0.939005  p :     2.882712
      px      :     0.965269
      py      :     0.978438
      dz2     :     0.004862  d :     0.094140
      dxz     :     0.020239
      dyz     :     0.009334
      dx2y2   :     0.032089
      dxy     :     0.027615

  7 C s       :     1.013313  s :     1.013313
      pz      :     0.938570  p :     2.884187
      px      :     0.975966
      py      :     0.969651
      dz2     :     0.006337  d :     0.094085
      dxz     :     0.015437
      dyz     :     0.012716
      dx2y2   :     0.023649
      dxy     :     0.035946

  8 C s       :     1.012390  s :     1.012390
      pz      :     0.914001  p :     2.841621
      px      :     0.987460
      py      :     0.940160
      dz2     :     0.006598  d :     0.093255
      dxz     :     0.009180
      dyz     :     0.020103
      dx2y2   :     0.031778
      dxy     :     0.025597

  9 C s       :     1.038913  s :     1.038913
      pz      :     0.996122  p :     2.866889
      px      :     0.984041
      py      :     0.886726
      dz2     :     0.007718  d :     0.111020
      dxz     :     0.023491
      dyz     :     0.014436
      dx2y2   :     0.034272
      dxy     :     0.031103

 10 C s       :     1.131164  s :     1.131164
      pz      :     0.727024  p :     2.338229
      px      :     0.743524
      py      :     0.867680
      dz2     :     0.044341  d :     0.246245
      dxz     :     0.045796
      dyz     :     0.037132
      dx2y2   :     0.071296
      dxy     :     0.047680

 11 O s       :     1.797730  s :     1.797730
      pz      :     1.356052  p :     4.513278
      px      :     1.579695
      py      :     1.577531
      dz2     :     0.009308  d :     0.034183
      dxz     :     0.006677
      dyz     :     0.006416
      dx2y2   :     0.004440
      dxy     :     0.007342

 12 O s       :     1.702442  s :     1.702442
      pz      :     1.730877  p :     4.590412
      px      :     1.405021
      py      :     1.454513
      dz2     :     0.004427  d :     0.036419
      dxz     :     0.006861
      dyz     :     0.006493
      dx2y2   :     0.012363
      dxy     :     0.006276

 13 C s       :     0.986632  s :     0.986632
      pz      :     1.043554  p :     2.811643
      px      :     1.013447
      py      :     0.754642
      dz2     :     0.025437  d :     0.109916
      dxz     :     0.012322
      dyz     :     0.019571
      dx2y2   :     0.026494
      dxy     :     0.026091

 14 H s       :     0.898658  s :     0.898658
      pz      :     0.023396  p :     0.040621
      px      :     0.009561
      py      :     0.007665

 15 H s       :     0.904987  s :     0.904987
      pz      :     0.014664  p :     0.040855
      px      :     0.017933
      py      :     0.008258

 16 H s       :     0.898574  s :     0.898574
      pz      :     0.013360  p :     0.040947
      px      :     0.009625
      py      :     0.017961

 17 H s       :     0.905443  s :     0.905443
      pz      :     0.013295  p :     0.050692
      px      :     0.027232
      py      :     0.010165

 18 H s       :     0.920992  s :     0.920992
      pz      :     0.014122  p :     0.049167
      px      :     0.010635
      py      :     0.024409

 19 H s       :     0.922082  s :     0.922082
      pz      :     0.013587  p :     0.049256
      px      :     0.017410
      py      :     0.018259

 20 H s       :     0.911529  s :     0.911529
      pz      :     0.013666  p :     0.050728
      px      :     0.026201
      py      :     0.010861

 21 H s       :     0.901597  s :     0.901597
      pz      :     0.011075  p :     0.040747
      px      :     0.014820
      py      :     0.014852

 22 H s       :     0.895102  s :     0.895102
      pz      :     0.012853  p :     0.040934
      px      :     0.021903
      py      :     0.006177

 23 H s       :     0.900737  s :     0.900737
      pz      :     0.025153  p :     0.040810
      px      :     0.009531
      py      :     0.006127



                     *******************************
                     * LOEWDIN POPULATION ANALYSIS *
                     *******************************

----------------------
LOEWDIN ATOMIC CHARGES
----------------------
   0 C :   -0.046133
   1 O :   -0.050723
   2 C :    0.038042
   3 O :   -0.186372
   4 C :   -0.006761
   5 C :    0.006564
   6 C :   -0.025688
   7 C :   -0.027602
   8 C :   -0.007532
   9 C :   -0.015890
  10 C :    0.032317
  11 O :   -0.175680
  12 O :   -0.059080
  13 C :   -0.046077
  14 H :    0.056901
  15 H :    0.053717
  16 H :    0.061731
  17 H :    0.062206
  18 H :    0.053684
  19 H :    0.052517
  20 H :    0.056149
  21 H :    0.056028
  22 H :    0.062710
  23 H :    0.054972

-------------------------------
LOEWDIN REDUCED ORBITAL CHARGES
-------------------------------
  0 C s       :     0.785616  s :     0.785616
      pz      :     1.094864  p :     2.924040
      px      :     0.936196
      py      :     0.892980
      dz2     :     0.048244  d :     0.336477
      dxz     :     0.074308
      dyz     :     0.053960
      dx2y2   :     0.076194
      dxy     :     0.083772

  1 O s       :     1.399535  s :     1.399535
      pz      :     1.651093  p :     4.552629
      px      :     1.599413
      py      :     1.302123
      dz2     :     0.010182  d :     0.098559
      dxz     :     0.009036
      dyz     :     0.022230
      dx2y2   :     0.030189
      dxy     :     0.026923

  2 C s       :     0.777662  s :     0.777662
      pz      :     0.734510  p :     2.521553
      px      :     0.946075
      py      :     0.840967
      dz2     :     0.074768  d :     0.662743
      dxz     :     0.104201
      dyz     :     0.104955
      dx2y2   :     0.171441
      dxy     :     0.207377

  3 O s       :     1.561992  s :     1.561992
      pz      :     1.402075  p :     4.556856
      px      :     1.468803
      py      :     1.685978
      dz2     :     0.009040  d :     0.067523
      dxz     :     0.019155
      dyz     :     0.002784
      dx2y2   :     0.020646
      dxy     :     0.015898

  4 C s       :     0.787976  s :     0.787976
      pz      :     0.905994  p :     2.872689
      px      :     0.976913
      py      :     0.989782
      dz2     :     0.029660  d :     0.346097
      dxz     :     0.050996
      dyz     :     0.043562
      dx2y2   :     0.098075
      dxy     :     0.123803

  5 C s       :     0.801211  s :     0.801211
      pz      :     0.858307  p :     2.898203
      px      :     1.046065
      py      :     0.993831
      dz2     :     0.023212  d :     0.294022
      dxz     :     0.021670
      dyz     :     0.054407
      dx2y2   :     0.112545
      dxy     :     0.082188

  6 C s       :     0.802039  s :     0.802039
      pz      :     0.870473  p :     2.924012
      px      :     1.023346
      py      :     1.030194
      dz2     :     0.019801  d :     0.299636
      dxz     :     0.054415
      dyz     :     0.022441
      dx2y2   :     0.109992
      dxy     :     0.092987

  7 C s       :     0.802049  s :     0.802049
      pz      :     0.870306  p :     2.925323
      px      :     1.031572
      py      :     1.023444
      dz2     :     0.023794  d :     0.300230
      dxz     :     0.040437
      dyz     :     0.033541
      dx2y2   :     0.077815
      dxy     :     0.124643

  8 C s       :     0.800628  s :     0.800628
      pz      :     0.863969  p :     2.909711
      px      :     1.036897
      py      :     1.008844
      dz2     :     0.024399  d :     0.297193
      dxz     :     0.022047
      dyz     :     0.056028
      dx2y2   :     0.109240
      dxy     :     0.085478

  9 C s       :     0.787180  s :     0.787180
      pz      :     0.907196  p :     2.880756
      px      :     1.009322
      py      :     0.964239
      dz2     :     0.027830  d :     0.347954
      dxz     :     0.062464
      dyz     :     0.042782
      dx2y2   :     0.112116
      dxy     :     0.102762

 10 C s       :     0.778113  s :     0.778113
      pz      :     0.803004  p :     2.526806
      px      :     0.812057
      py      :     0.911745
      dz2     :     0.106140  d :     0.662764
      dxz     :     0.136650
      dyz     :     0.104796
      dx2y2   :     0.185754
      dxy     :     0.129423

 11 O s       :     1.561375  s :     1.561375
      pz      :     1.402669  p :     4.546036
      px      :     1.569689
      py      :     1.573678
      dz2     :     0.012679  d :     0.068268
      dxz     :     0.015650
      dyz     :     0.015822
      dx2y2   :     0.010126
      dxy     :     0.013991

 12 O s       :     1.399895  s :     1.399895
      pz      :     1.664746  p :     4.560651
      px      :     1.443489
      py      :     1.452416
      dz2     :     0.011651  d :     0.098534
      dxz     :     0.015929
      dyz     :     0.015905
      dx2y2   :     0.030824
      dxy     :     0.024225

 13 C s       :     0.786128  s :     0.786128
      pz      :     1.070168  p :     2.923615
      px      :     1.037477
      py      :     0.815971
      dz2     :     0.079254  d :     0.336334
      dxz     :     0.035995
      dyz     :     0.059892
      dx2y2   :     0.084526
      dxy     :     0.076667

 14 H s       :     0.806416  s :     0.806416
      pz      :     0.067601  p :     0.136683
      px      :     0.036730
      py      :     0.032353

 15 H s       :     0.808861  s :     0.808861
      pz      :     0.049126  p :     0.137422
      px      :     0.055429
      py      :     0.032868

 16 H s       :     0.804224  s :     0.804224
      pz      :     0.045712  p :     0.134045
      px      :     0.036433
      py      :     0.051900

 17 H s       :     0.789418  s :     0.789418
      pz      :     0.040551  p :     0.148376
      px      :     0.072945
      py      :     0.034881

 18 H s       :     0.798639  s :     0.798639
      pz      :     0.043303  p :     0.147677
      px      :     0.037378
      py      :     0.066996

 19 H s       :     0.799506  s :     0.799506
      pz      :     0.042064  p :     0.147977
      px      :     0.052215
      py      :     0.053699

 20 H s       :     0.794241  s :     0.794241
      pz      :     0.041573  p :     0.149609
      px      :     0.070643
      py      :     0.037393

 21 H s       :     0.807144  s :     0.807144
      pz      :     0.040947  p :     0.136828
      px      :     0.048556
      py      :     0.047325

 22 H s       :     0.802921  s :     0.802921
      pz      :     0.044742  p :     0.134369
      px      :     0.062634
      py      :     0.026994

 23 H s       :     0.807787  s :     0.807787
      pz      :     0.071704  p :     0.137241
      px      :     0.037859
      py      :     0.027679



                      *****************************
                      * MAYER POPULATION ANALYSIS *
                      *****************************

  NA   - Mulliken gross atomic population
  ZA   - Total nuclear charge
  QA   - Mulliken gross atomic charge
  VA   - Mayer's total valence
  BVA  - Mayer's bonded valence
  FA   - Mayer's free valence

  ATOM       NA         ZA         QA         VA         BVA        FA
  0 C      3.9052     4.0000     0.0948     3.9240     3.9240     0.0000
  1 O      6.3174     6.0000    -0.3174     2.0503     2.0503     0.0000
  2 C      3.7064     4.0000     0.2936     4.0648     4.0648     0.0000
  3 O      6.3596     6.0000    -0.3596     2.0138     2.0138     0.0000
  4 C      4.0172     4.0000    -0.0172     4.1181     4.1181    -0.0000
  5 C      3.9455     4.0000     0.0545     4.0596     4.0596     0.0000
  6 C      3.9903     4.0000     0.0097     4.0468     4.0468     0.0000
  7 C      3.9916     4.0000     0.0084     4.0542     4.0542     0.0000
  8 C      3.9473     4.0000     0.0527     4.0317     4.0317     0.0000
  9 C      4.0168     4.0000    -0.0168     4.1022     4.1022    -0.0000
 10 C      3.7156     4.0000     0.2844     4.0679     4.0679    -0.0000
 11 O      6.3452     6.0000    -0.3452     2.0244     2.0244     0.0000
 12 O      6.3293     6.0000    -0.3293     2.0461     2.0461    -0.0000
 13 C      3.9082     4.0000     0.0918     3.9210     3.9210     0.0000
 14 H      0.9393     1.0000     0.0607     1.0224     1.0224     0.0000
 15 H      0.9458     1.0000     0.0542     1.0211     1.0211     0.0000
 16 H      0.9395     1.0000     0.0605     1.0221     1.0221     0.0000
 17 H      0.9561     1.0000     0.0439     1.0485     1.0485     0.0000
 18 H      0.9702     1.0000     0.0298     1.0435     1.0435     0.0000
 19 H      0.9713     1.0000     0.0287     1.0438     1.0438     0.0000
 20 H      0.9623     1.0000     0.0377     1.0482     1.0482    -0.0000
 21 H      0.9423     1.0000     0.0577     1.0225     1.0225     0.0000
 22 H      0.9360     1.0000     0.0640     1.0217     1.0217     0.0000
 23 H      0.9415     1.0000     0.0585     1.0235     1.0235     0.0000

  Mayer bond orders larger than 0.100000
B(  0-C ,  1-O ) :   0.9037 B(  0-C , 14-H ) :   0.9910 B(  0-C , 15-H ) :   0.9945 
B(  0-C , 16-H ) :   0.9999 B(  1-O ,  2-C ) :   1.1167 B(  2-C ,  3-O ) :   1.8724 
B(  2-C ,  4-C ) :   1.0377 B(  4-C ,  5-C ) :   1.4480 B(  4-C ,  9-C ) :   1.3934 
B(  5-C ,  6-C ) :   1.4263 B(  5-C , 17-H ) :   0.9840 B(  6-C ,  7-C ) :   1.4405 
B(  6-C , 18-H ) :   0.9926 B(  7-C ,  8-C ) :   1.4316 B(  7-C , 19-H ) :   0.9925 
B(  8-C ,  9-C ) :   1.4291 B(  8-C , 20-H ) :   0.9844 B(  9-C , 10-C ) :   1.0470 
B( 10-C , 11-O ) :   1.8914 B( 10-C , 12-O ) :   1.1003 B( 12-O , 13-C ) :   0.8994 
B( 13-C , 21-H ) :   0.9934 B( 13-C , 22-H ) :   0.9989 B( 13-C , 23-H ) :   0.9923 


-------
TIMINGS
-------

Total SCF time: 0 days 0 hours 0 min 56 sec 

Total time                  ....      56.842 sec
Sum of individual times     ....      54.798 sec  ( 96.4%)

SCF preparation             ....       2.275 sec  (  4.0%)
Fock matrix formation       ....      51.133 sec  ( 90.0%)
  Startup                   ....       0.133 sec  (  0.3% of F)
  Split-RI-J                ....       1.719 sec  (  3.4% of F)
  Chain of spheres X        ....      23.364 sec  ( 45.7% of F)
  XC integration            ....      25.125 sec  ( 49.1% of F)
    XC Preparation          ....       0.000 sec  (  0.0% of XC)
    Basis function eval.    ....       0.500 sec  (  2.0% of XC)
    Density eval.           ....       0.206 sec  (  0.8% of XC)
    XC-Functional eval.     ....       0.180 sec  (  0.7% of XC)
    XC-Potential eval.      ....       0.263 sec  (  1.0% of XC)
Diagonalization             ....       0.000 sec  (  0.0%)
Density matrix formation    ....       0.265 sec  (  0.5%)
Total Energy calculation    ....       0.261 sec  (  0.5%)
Population analysis         ....       0.087 sec  (  0.2%)
Orbital Transformation      ....       0.064 sec  (  0.1%)
Orbital Orthonormalization  ....       0.000 sec  (  0.0%)
DIIS solution               ....       0.411 sec  (  0.7%)
SOSCF solution              ....       0.302 sec  (  0.5%)
Finished LeanSCF after  56.9 sec

Maximum memory used throughout the entire LEANSCF-calculation: 39.4 MB


           ************************************************************
           *        Program running with 40 parallel MPI-processes    *
           *              working on a common directory               *
           ************************************************************

------------------------------------------------------------------------------
                         ORCA PROPERTY INTEGRAL CALCULATIONS
------------------------------------------------------------------------------

GBWName                                   ... ./output/dimethyl_phthalate/dimethyl_phthalate.gbw
Number of atoms                           ...     24
Number of basis functions                 ...    232
Max core memory                           ...   1024 MB

Dipole integrals                          ... YES
Quadrupole integrals                      ...  NO
Linear momentum integrals                 ...  NO
Angular momentum integrals                ...  NO
Higher moments length integrals           ...  NO
Higher moments velocity integrals         ...  NO
Kinetic energy integrals                  ...  NO
GIAO right hand sides                     ...  NO
GIAO dipole derivative integrals          ...  NO
SOC integrals                             ...  NO
EPR diamagnetic integrals (GIAO)          ...  NO
EPR gauge integrals                       ...  NO
Field gradient integrals                  ...  NO (   0 nuclei)
Spin-dipole/Fermi contact integrals       ...  NO (   0 nuclei)
Contact density integrals                 ...  NO (   0 nuclei)
Nucleus-orbit integrals                   ...  NO (   0 nuclei)
Geometric perturbations                   ...  NO (  24 nuclei)

Choice of electric origin   ... Center of mass
Position of electric origin ... (  0.2836, -0.2429,  0.1707) 
Choice of magnetic origin   ... GIAO
Position of magnetic origin ... (  0.0000,  0.0000,  0.0000) 

Calculating integrals                     ... Electric Dipole (Length)     done (  0.1 sec)

Property integrals calculated in   0.1 sec

Maximum memory used throughout the entire PROPINT-calculation: 16.9 MB


-------------------------------------------------------------------------------
                          DFT DISPERSION CORRECTION                            
                                                                               
                                DFTD4 V3.4.0                                   
-------------------------------------------------------------------------------
The wB97X-3c composite method is recognized
Using three-body term ABC
Active option DFTDOPT                   ...         5   

-------------------------   ----------------
Dispersion correction           -0.030724169
-------------------------   ----------------


-------------------------   --------------------
FINAL SINGLE POINT ENERGY      -127.186243476087
-------------------------   --------------------



           ************************************************************
           *        Program running with 40 parallel MPI-processes    *
           *              working on a common directory               *
           ************************************************************
------------------------------------------------------------------------------
                         ORCA SCF GRADIENT CALCULATION
------------------------------------------------------------------------------

Nuc. rep. gradient        (SHARK) ... done (  0.0 sec)
HCore & Overlap gradient  (SHARK) ... done (  0.0 sec)
ECP gradient              (SHARK) ... done (  0.4 sec)
Split-RIJ-J gradient      (SHARK) ... done (  0.5 sec)
COSX-gradient                     ... done (  5.6 sec)
XC gradient                       ... done (  1.7 sec)
Dispersion correction             ... done (  0.1 sec)

-------------------
DISPERSION GRADIENT
-------------------

   1   C   :    0.000312163    0.000487552   -0.000160353
   2   O   :    0.000346001    0.000373705   -0.000262268
   3   C   :    0.000536513    0.000075218   -0.000022246
   4   O   :    0.000553046   -0.000106059    0.000185940
   5   C   :    0.000321314   -0.000159021   -0.000031929
[...]
 11:    144.97   0.000348    1.76  0.000750  ( 0.023554  0.003583  0.013505)
 12:    154.68   0.000238    1.20  0.000481  ( 0.018626  0.011340  0.002350)
 13:    168.45   0.000082    0.41  0.000151  ( 0.008713  0.008138  0.003053)
 14:    219.42   0.000177    0.90  0.000252  (-0.005480  0.010754 -0.010308)
 15:    257.15   0.000339    1.72  0.000412  (-0.002304  0.011142  0.016806)
 16:    293.98   0.001703    8.61  0.001808  (-0.018036 -0.026949  0.027508)
 17:    315.87   0.000686    3.47  0.000678  (-0.020556  0.014763 -0.006120)
 18:    344.66   0.003318   16.77  0.003004  (-0.030229  0.045709 -0.000913)
 19:    379.62   0.002417   12.21  0.001987  (-0.043820 -0.003826  0.007212)
 20:    406.06   0.000183    0.92  0.000140  ( 0.009738  0.003007 -0.006050)
 21:    431.47   0.000170    0.86  0.000123  (-0.003012 -0.009815 -0.004218)
 22:    550.49   0.000559    2.82  0.000317  ( 0.005293  0.016918 -0.001625)
 23:    576.70   0.001327    6.71  0.000718  ( 0.009719  0.017752 -0.017568)
 24:    679.65   0.001140    5.76  0.000524  (-0.000034  0.022824 -0.001642)
 25:    722.73   0.001689    8.54  0.000729  (-0.026296  0.002710  0.005528)
 26:    735.50   0.002180   11.02  0.000925  (-0.008084 -0.007479  0.028349)
 27:    770.60   0.017588   88.88  0.007123  (-0.008442 -0.017720  0.082081)
 28:    822.12   0.003378   17.07  0.001282  ( 0.031312 -0.008473  0.015171)
 29:    838.12   0.001143    5.78  0.000426  (-0.000774 -0.020158 -0.004313)
 30:    857.97   0.003255   16.45  0.001184  (-0.016615 -0.024061 -0.018137)
 31:    876.24   0.000562    2.84  0.000200  (-0.010901  0.007433  0.005098)
 32:    929.45   0.000098    0.50  0.000033  (-0.002805  0.000241 -0.005009)
 33:   1006.09   0.000614    3.10  0.000190  (-0.008017 -0.000335 -0.011222)
 34:   1035.59   0.000417    2.11  0.000126  (-0.004664 -0.009649 -0.003279)
 35:   1037.28   0.001260    6.37  0.000379  (-0.008751 -0.015006 -0.008786)
 36:   1040.43   0.002832   14.31  0.000849  ( 0.018062  0.013356  0.018566)
 37:   1098.01   0.003051   15.42  0.000867  ( 0.011215  0.026971  0.003727)
 38:   1140.87   0.009943   50.25  0.002720  ( 0.050525 -0.008983 -0.009286)
 39:   1192.09   0.010682   53.98  0.002796  (-0.037538 -0.030144  0.021878)
 40:   1198.99   0.008904   45.00  0.002318  ( 0.007860 -0.047196  0.005321)
 41:   1203.38   0.006817   34.45  0.001768  ( 0.018241 -0.037801  0.002450)
 42:   1206.50   0.002335   11.80  0.000604  ( 0.005654 -0.023808 -0.002283)
 43:   1207.75   0.000686    3.47  0.000177  ( 0.004285 -0.011892  0.004194)
 44:   1248.54   0.002693   13.61  0.000673  ( 0.025026 -0.000503 -0.006823)
 45:   1254.97   0.011058   55.88  0.002750  ( 0.019019 -0.045895  0.016782)
 46:   1324.08   0.011339   57.30  0.002672  (-0.034208 -0.034545  0.017577)
 47:   1346.13   0.016324   82.49  0.003784  (-0.056727  0.023629  0.002817)
 48:   1368.75   0.059173  299.04  0.013491  ( 0.104965 -0.043774 -0.023606)
 49:   1378.63   0.099963  505.17  0.022627  (-0.005517  0.145663 -0.037138)
 50:   1503.81   0.004769   24.10  0.000990  (-0.023619 -0.020479  0.003525)
 51:   1507.28   0.007867   39.76  0.001629  (-0.019528  0.034303  0.008411)
 52:   1516.72   0.000861    4.35  0.000177  (-0.003392  0.012389  0.003487)
 53:   1517.46   0.003895   19.69  0.000801  ( 0.012179  0.005531 -0.024943)
 54:   1523.69   0.003166   16.00  0.000648  ( 0.018387  0.017052 -0.004428)
 55:   1526.45   0.003740   18.90  0.000765  (-0.009728  0.019678 -0.016816)
 56:   1528.99   0.002301   11.63  0.000470  ( 0.019496 -0.005678  0.007570)
 57:   1576.06   0.006673   33.72  0.001321  (-0.018475  0.029782 -0.009639)
 58:   1694.95   0.003367   17.02  0.000620  ( 0.011051 -0.022308  0.000479)
 59:   1719.37   0.001376    6.95  0.000250  ( 0.015584  0.002257 -0.001346)
 60:   1865.38   0.052359  264.60  0.008759  (-0.054778 -0.058590 -0.048227)
 61:   1874.12   0.069850  352.99  0.011631  (-0.082697  0.012469 -0.068092)
 62:   3130.09   0.006223   31.45  0.000620  (-0.014448 -0.019802  0.004420)
 63:   3132.16   0.006487   32.78  0.000646  ( 0.014847 -0.020191 -0.004268)
 64:   3233.45   0.001076    5.44  0.000104  (-0.006781  0.002170  0.007293)
 65:   3234.95   0.001191    6.02  0.000115  ( 0.003296  0.005039 -0.008870)
 66:   3257.76   0.000161    0.82  0.000015  (-0.003643  0.001445 -0.000307)
 67:   3258.43   0.000779    3.94  0.000075  (-0.001952  0.006585 -0.005237)
 68:   3259.80   0.000735    3.72  0.000070  ( 0.007859 -0.001475  0.002541)
 69:   3270.79   0.000551    2.78  0.000053  (-0.003447 -0.006279 -0.001104)
 70:   3281.00   0.000640    3.23  0.000061  (-0.001481  0.007310  0.002290)
 71:   3291.13   0.000477    2.41  0.000045  ( 0.003070  0.005950  0.000618)

* The epsilon (eps) is given for a Dirac delta lineshape.
** The dipole moment derivative (T) already includes vibrational overlap.

The first frequency considered to be a vibration is 6
The total number of vibrations considered is 66


--------------------------
THERMOCHEMISTRY AT 298.15K
--------------------------

Temperature         ...   298.15 K
Pressure            ...     1.00 atm
Total Mass          ...   194.19 AMU
Quasi RRHO          ...     True
Cut-Off Frequency   ...     1.00 cm^-1

Throughout the following assumptions are being made:
  (1) The electronic state is orbitally nondegenerate
  (2) There are no thermally accessible electronically excited states
  (3) Hindered rotations indicated by low frequency modes are not
      treated as such but are treated as vibrations and this may
      cause some error
  (4) All equations used are the standard statistical mechanics
      equations for an ideal gas
  (5) All vibrations are strictly harmonic

freq.      26.29  E(vib)   ...       0.56 
freq.      77.21  E(vib)   ...       0.49 
freq.      85.47  E(vib)   ...       0.48 
freq.      96.51  E(vib)   ...       0.47 
freq.     128.47  E(vib)   ...       0.43 
freq.     144.97  E(vib)   ...       0.41 
freq.     154.68  E(vib)   ...       0.40 
freq.     168.45  E(vib)   ...       0.38 
freq.     219.42  E(vib)   ...       0.33 
freq.     257.15  E(vib)   ...       0.30 
freq.     293.98  E(vib)   ...       0.27 
freq.     315.87  E(vib)   ...       0.25 
freq.     344.66  E(vib)   ...       0.23 
freq.     379.62  E(vib)   ...       0.21 
freq.     406.06  E(vib)   ...       0.19 
freq.     431.47  E(vib)   ...       0.18 
freq.     550.49  E(vib)   ...       0.12 
freq.     576.70  E(vib)   ...       0.11 
freq.     679.65  E(vib)   ...       0.08 
freq.     722.73  E(vib)   ...       0.07 
freq.     735.50  E(vib)   ...       0.06 
freq.     770.60  E(vib)   ...       0.05 
freq.     822.12  E(vib)   ...       0.05 
freq.     838.12  E(vib)   ...       0.04 
freq.     857.97  E(vib)   ...       0.04 
freq.     876.24  E(vib)   ...       0.04 
freq.     929.45  E(vib)   ...       0.03 
freq.    1006.09  E(vib)   ...       0.02 
freq.    1035.59  E(vib)   ...       0.02 
freq.    1037.28  E(vib)   ...       0.02 
freq.    1040.43  E(vib)   ...       0.02 
freq.    1098.01  E(vib)   ...       0.02 
freq.    1140.87  E(vib)   ...       0.01 
freq.    1192.09  E(vib)   ...       0.01 
freq.    1198.99  E(vib)   ...       0.01 
freq.    1203.38  E(vib)   ...       0.01 
freq.    1206.50  E(vib)   ...       0.01 
freq.    1207.75  E(vib)   ...       0.01 
freq.    1248.54  E(vib)   ...       0.01 
freq.    1254.97  E(vib)   ...       0.01 
freq.    1324.08  E(vib)   ...       0.01 
freq.    1346.13  E(vib)   ...       0.01 
freq.    1368.75  E(vib)   ...       0.01 
freq.    1378.63  E(vib)   ...       0.01 
freq.    1503.81  E(vib)   ...       0.00 
freq.    1507.28  E(vib)   ...       0.00 
freq.    1516.72  E(vib)   ...       0.00 
freq.    1517.46  E(vib)   ...       0.00 
freq.    1523.69  E(vib)   ...       0.00 
freq.    1526.45  E(vib)   ...       0.00 
freq.    1528.99  E(vib)   ...       0.00 
freq.    1576.06  E(vib)   ...       0.00 
freq.    1694.95  E(vib)   ...       0.00 
freq.    1719.37  E(vib)   ...       0.00 
freq.    1865.38  E(vib)   ...       0.00 
freq.    1874.12  E(vib)   ...       0.00 
freq.    3130.09  E(vib)   ...       0.00 
freq.    3132.16  E(vib)   ...       0.00 
freq.    3233.45  E(vib)   ...       0.00 
freq.    3234.95  E(vib)   ...       0.00 
freq.    3257.76  E(vib)   ...       0.00 
freq.    3258.43  E(vib)   ...       0.00 
freq.    3259.80  E(vib)   ...       0.00 
freq.    3270.79  E(vib)   ...       0.00 
freq.    3281.00  E(vib)   ...       0.00 
freq.    3291.13  E(vib)   ...       0.00 

------------
INNER ENERGY
------------

The inner energy is: U= E(el) + E(ZPE) + E(vib) + E(rot) + E(trans)
    E(el)   - is the total energy from the electronic structure calculation
              = E(kin-el) + E(nuc-el) + E(el-el) + E(nuc-nuc)
    E(ZPE)  - the the zero temperature vibrational energy from the frequency calculation
    E(vib)  - the the finite temperature correction to E(ZPE) due to population
              of excited vibrational states
    E(rot)  - is the rotational thermal energy
    E(trans)- is the translational thermal energy

Summary of contributions to the inner energy U:
Electronic energy                ...   -127.22453812 Eh
Zero point energy                ...      0.19109684 Eh     119.91 kcal/mol
Thermal vibrational correction   ...      0.01031734 Eh       6.47 kcal/mol
Thermal rotational correction    ...      0.00141627 Eh       0.89 kcal/mol
Thermal translational correction ...      0.00141627 Eh       0.89 kcal/mol
-----------------------------------------------------------------------
Total thermal energy                   -127.02029139 Eh


Summary of corrections to the electronic energy:
(perhaps to be used in another calculation)
Total thermal correction                  0.01314989 Eh       8.25 kcal/mol
Non-thermal (ZPE) correction              0.19109684 Eh     119.91 kcal/mol
-----------------------------------------------------------------------
Total correction                          0.20424673 Eh     128.17 kcal/mol


--------
ENTHALPY
--------

The enthalpy is H = U + kB*T
                kB is Boltzmann's constant
Total thermal energy              ...   -127.02029139 Eh 
Thermal Enthalpy correction       ...      0.00094421 Eh       0.59 kcal/mol
-----------------------------------------------------------------------
Total Enthalpy                    ...   -127.01934719 Eh


Note: Only C1 symmetry has been detected, increase convergence thresholds 
      if your molecule has a higher symmetry. Symmetry factor of 1.0 is   
      used for the rotational entropy correction. 
 

Note: Rotational entropy computed according to Herzberg 
Infrared and Raman Spectra, Chapter V,1, Van Nostrand Reinhold, 1945 
Point Group:  C1, Symmetry Number:   1  
Rotational constants in cm-1:     0.025483     0.024845     0.013673 

Vibrational entropy computed according to the QRRHO of S. Grimme
Chem.Eur.J. 2012 18 9955 using a reference frequency of 100.0 cm-1


-------
ENTROPY
-------

The entropy contributions are T*S = T*(S(el)+S(vib)+S(rot)+S(trans))
     S(el)   - electronic entropy
     S(vib)  - vibrational entropy
     S(rot)  - rotational entropy
     S(trans)- translational entropy
The entropies will be listed as multiplied by the temperature to get
units of energy

Electronic entropy                ...      0.00000000 Eh      0.00 kcal/mol
Vibrational entropy               ...      0.01849021 Eh     11.60 kcal/mol
Rotational entropy                ...      0.01501406 Eh      9.42 kcal/mol
Translational entropy             ...      0.01981115 Eh     12.43 kcal/mol
-----------------------------------------------------------------------
Final entropy term                ...      0.05331541 Eh     33.46 kcal/mol

In case the symmetry of your molecule has not been determined correctly
or in case you have a reason to use a different symmetry number we print 
out the resulting rotational entropy values for sn=1,12:

 non-linear molecules -----------------------------------
|  sn= 1 | S(rot)=       0.01501406 Eh      9.42 kcal/mol|
|  sn= 2 | S(rot)=       0.01435960 Eh      9.01 kcal/mol|
|  sn= 3 | S(rot)=       0.01397677 Eh      8.77 kcal/mol|
|  sn= 4 | S(rot)=       0.01370515 Eh      8.60 kcal/mol|
|  sn= 5 | S(rot)=       0.01349446 Eh      8.47 kcal/mol|
|  sn= 6 | S(rot)=       0.01332232 Eh      8.36 kcal/mol|
|  sn= 7 | S(rot)=       0.01317677 Eh      8.27 kcal/mol|
|  sn= 8 | S(rot)=       0.01305069 Eh      8.19 kcal/mol|
|  sn= 9 | S(rot)=       0.01293948 Eh      8.12 kcal/mol|
|  sn=10 | S(rot)=       0.01284000 Eh      8.06 kcal/mol|
|  sn=11 | S(rot)=       0.01275001 Eh      8.00 kcal/mol|
|  sn=12 | S(rot)=       0.01266786 Eh      7.95 kcal/mol|
 linear molecules ---------------------------------------
|  Dinfh | S(rot)=       0.00937856 Eh      5.89 kcal/mol|
|  Cinfv | S(rot)=       0.01003302 Eh      6.30 kcal/mol|
 --------------------------------------------------------


-------------------
GIBBS FREE ENERGY
-------------------

The Gibbs free energy is G = H - T*S

Total enthalpy                    ...   -127.01934719 Eh 
Total entropy correction          ...     -0.05331541 Eh    -33.46 kcal/mol
-----------------------------------------------------------------------
Final Gibbs free energy         ...   -127.07266260 Eh

For completeness - the Gibbs free energy minus the electronic energy
G-E(el)                           ...      0.15187552 Eh     95.30 kcal/mol


Maximum memory used throughout the entire PROP-calculation: 118.2 MB

--------------------------------
SUGGESTED CITATIONS FOR THIS RUN
--------------------------------

Below you find a list of papers that are relevant to this ORCA run
We neither can nor want to force you to cite these papers, but we appreciate if you do
You receive ORCA, which is the product of decades of hard work by many enthusiastic individuals, for free
The only thing we kindly ask in return is that you cite our papers,
We deeply appreciate it, if you show your appreciation for ORCA by not just citing the generic ORCA reference.

Please note that relegating all ORCA citations to the supporting information does *not* help us.
SI sections are not indexed - citations you put there will not count into any citation statistics
But we need these citations in order to attract the funding resources that allow us to do what we are doing

Therefore, if you are a happy ORCA user, please consider citing a few of the papers listed below in the main body of your paper

In addition to the list printed below, the program has created the file ./output/dimethyl_phthalate/dimethyl_phthalate.bibtex that contains the list in bibtex format
You can import this file easily into all common literature databanks and citation aid programs


List of essential papers. We consider these as the minimum necessary citations

  1. Neese,F.
     Software update: the ORCA program system, version 5.0
     WIRES Comput. Molec. Sci., 2022 12(1)e1606
     doi.org/10.1002/wcms.1606
  2. Mueller,M.; Hansen,A.; Grimme,S.
     wB97X-3c: A composite range-separated hybrid DFT method with a molecule-optimized polarized valence double-zeta basis set
     J. Chem. Phys., 2023 158 014103
     doi.org/10.1063/5.0133026

List of papers to cite with high priority. The work reported in these papers was absolutely
necessary for this run to complete.
Our perspective: the developers of density functionals and basis sets usually get cited in chemistry papers
Good! But without the algorithms to do something with them, the functionals or basis sets would not do anything.
Hence, in our opinion, the algorithm design and method developments papers are equally worthy of getting cited

  1. Neese,F.
     An improvement of the resolution of the identity approximation for the formation of the Coulomb matrix
     J. Comp. Chem., 2003 24(14)1740-1747
     doi.org/10.1002/jcc.10318
  2. Neese,F.; Wennmohs,F.; Hansen,A.; Becker,U.
     Efficient, approximate and parallel Hartree-Fock and hybrid DFT calculations. A 'chain-of-spheres' algorithm for the Hartree-Fock exchange
     Chem. Phys., 2009 356(1-3)98-109
     doi.org/10.1016/j.chemphys.2008.10.036
  3. Bykov,D.; Petrenko,T.; Izsak,R.; Kossmann,S.; Becker,U.; Valeev,E.; Neese,F.
     Efficient implementation of the analytic second derivatives of Hartree-Fock and hybrid DFT energies: a detailed analysis of different approximations
     Molec. Phys., 2015 113 1961-1977
     doi.org/10.1080/00268976.2015.1025114
  4. Helmich-Paris,B.; de Souza,B.; Neese,F.; Izsák,R.
     An improved chain of spheres for exchange algorithm
     J. Chem. Phys., 2021 155 104109
     doi.org/doi: 10.1063/5.0058766.
  5. Neese,F.
     The SHARK Integral Generation and Digestion System
     J. Comp. Chem., 2022  1-16
     doi.org/10.1002/jcc.26942
  6. Caldeweyher,E.; Bannwarth,C.; Grimme,S.
     Extension of the D3 dispersion coefficient model
     J. Chem. Phys., 2017 147 034112
     doi.org/10.1063/1.4993215
  7. Caldeweyher,E.; Ehlert,S.; Hansen,A.; Neugebauer,H.; Spicher,S.; Bannwarth,C.; Grimme,S.
     A generally applicable atomic-charge dependent London dispersion correction
     J. Chem. Phys., 2019 150 154122
     doi.org/10.1063/1.5090222
  8. Caldeweyher,E.; Mewes,J.; Ehlert,S.; Grimme,S.
     Extension and evaluation of the D4 London-dispersion model for periodic systems
     Phys. Chem. Chem. Phys., 2020 22(16)8499-8512
     doi.org/10.1039/D0CP00502A
  9. Wittmann,L.; Gordiy,I.; Friede,M.; Helmich-Paris,B.; Grimme,S.; Hansen,A.; Bursch,M.
     Extension of the D3 and D4 London Dispersion Corrections to the full Actinides Series
     Phys. Chem. Chem. Phys., 2024 26(32)21379-21394
     doi.org/https://doi.org/10.1039/D4CP01514B 

List of suggested additional citations. These are papers that are important in the 'surrounding' of 
of this run, or papers that preceded the highly important papers. If you like your results we are grateful for a citation.

  1. Izsak,R.; Neese,F.
     An overlap fitted chain of spheres exchange method
     J. Chem. Phys., 2011 135 144105
     doi.org/10.1063/1.3646921
  2. Izsak,R.; Hansen,A.; Neese,F.
     The resolution of identity and chain of spheres approximations for the LPNO-CCSD singles Fock term
     Molec. Phys., 2012 110 2413-2417
     doi.org/10.1080/00268976.2012.687466
  3. Neese,F.
     The ORCA program system
     WIRES Comput. Molec. Sci., 2012 2(1)73-78
     doi.org/10.1002/wcms.81
  4. Izsak,R.; Neese,F.; Klopper,W.
     Robust fitting techniques in the chain of spheres approximation to the Fock exchange: The role of the complementary space
     J. Chem. Phys., 2013 139 
     doi.org/10.1063/1.4819264
  5. Neese,F.
     Software update: the ORCA program system, version 4.0
     WIRES Comput. Molec. Sci., 2018 8(1)1-6
     doi.org/10.1002/wcms.1327
  6. Neese,F.; Wennmohs,F.; Becker,U.; Riplinger,C.
     The ORCA quantum chemistry program package
     J. Chem. Phys., 2020 152 Art. No. L224108
     doi.org/10.1063/5.0004608

List of optional additional citations

  1. Neese,F.
     Approximate second-order SCF convergence for spin unrestricted wavefunctions
     Chem. Phys. Lett., 2000 325(1-3)93-98
     doi.org/10.1016/s0009-2614(00)00662-x

Timings for individual modules:

Sum of individual times          ...     1072.260 sec (=  17.871 min)
Startup calculation              ...       59.009 sec (=   0.983 min)   5.5 %
SCF iterations                   ...      695.594 sec (=  11.593 min)  64.9 %
Property integrals               ...       53.684 sec (=   0.895 min)   5.0 %
SCF Response                     ...       40.126 sec (=   0.669 min)   3.7 %
Property calculations            ...       92.643 sec (=   1.544 min)   8.6 %
SCF Gradient evaluation          ...      130.908 sec (=   2.182 min)  12.2 %
Geometry relaxation              ...        0.297 sec (=   0.005 min)   0.0 %
                             ****ORCA TERMINATED NORMALLY****
TOTAL RUN TIME: 0 days 0 hours 17 minutes 59 seconds 666 msec
