
                                 *****************
                                 * O   R   C   A *
                                 *****************

                                            #,                                       
                                            ###                                      
                                            ####                                     
                                            #####                                    
                                            ######                                   
                                           ########,                                 
                                     ,,################,,,,,                         
                               ,,#################################,,                 
                          ,,##########################################,,             
                       ,#########################################, ''#####,          
                    ,#############################################,,   '####,        
                  ,##################################################,,,,####,       
                ,###########''''           ''''###############################       
              ,#####''   ,,,,##########,,,,          '''####'''          '####       
            ,##' ,,,,###########################,,,                        '##       
           ' ,,###''''                  '''############,,,                           
         ,,##''                                '''############,,,,        ,,,,,,###''
      ,#''                                            '''#######################'''  
     '                                                          ''''####''''         
             ,#######,   #######,   ,#######,      ##                                
            ,#'     '#,  ##    ##  ,#'     '#,    #''#        ,####,   ,####,        
            ##       ##  ##   ,#'  ##            #'  '#       #'       #'  '#        
            ##       ##  #######   ##           ,######,      #####,   #    #        
            '#,     ,#'  ##    ##  '#,     ,#' ,#      #,     #,   #   #,  ,#        
             '#######'   ##     ##  '#######'  #'      '#     '####' # '####'        



                #########################################################
                #                        -***-                          #
                #          Department of theory and spectroscopy        #
                #                                                       #
                #                      Frank Neese                      #
                #                                                       #
                #     Directorship, Architecture, Infrastructure        #
                #                    SHARK, DRIVERS                     #
                #        Core code/Algorithms in most modules           #
                #                                                       #
                #        Max Planck Institute fuer Kohlenforschung      #
                #                Kaiser Wilhelm Platz 1                 #
                #                 D-45470 Muelheim/Ruhr                 #
                #                      Germany                          #
                #                                                       #
                #                  All rights reserved                  #
                #                        -***-                          #
                #########################################################


                         Program Version 6.0.1  -  RELEASE   -


 With contributions from (in alphabetic order):
[Max-Planck-Institut fuer Kohlenforschung]                               
  Daniel Aravena         : Magnetic Suceptibility                        
  Michael Atanasov       : Ab Initio Ligand Field Theory (pilot matlab implementation)
  Alexander A. Auer      : GIAO ZORA, VPT2 properties, NMR spectrum      
  Ute Becker             : All parallelization in ORCA, NUMFREQ, NUMCALC 
  Giovanni Bistoni       : ED, misc. LED, open-shell LED, HFLD           
  Martin Brehm           : Molecular dynamics                            
  Dmytro Bykov           : pre 5.0 version of the SCF Hessian            
  Marcos Casanova-Páez   : Triplet and SCS-CIS(D). UHF-(DLPNO)-IP/EA/STEOM-CCSD. UHF-CVS-IP/STEOM-CCSD   
  Vijay G. Chilkuri      : MRCI spin determinant printing, contributions to CSF-ICE 
  Pauline Colinet        : FMM embedding                                 
  Dipayan Datta          : RHF DLPNO-CCSD density                        
  Achintya Kumar Dutta   : EOM-CC, STEOM-CC                              
  Nicolas Foglia         : Exact transition moments, OPA infrastructure, MCD improvements    
  Dmitry Ganyushin       : Spin-Orbit,Spin-Spin,Magnetic field MRCI      
  Miquel Garcia-Rates    : C-PCM and meta-GGA Hessian, CCSD/C-PCM, Gaussian charge scheme 
  Tiago L. C. Gouveia    : GS-ROHF, GS-ROCIS                             
  Yang Guo               : DLPNO-NEVPT2, F12-NEVPT2, CIM, IAO-localization        
  Andreas Hansen         : Spin unrestricted coupled pair/coupled cluster methods 
  Ingolf Harden          : AUTO-CI MPn and infrastructure                
  Benjamin Helmich-Paris : MC-RPA, TRAH-(SCF,CASSCF), AVAS, COSX integrals, SCF dyn. polar. 
  Lee Huntington         : MR-EOM, pCC                                   
  Robert Izsak           : Overlap fitted RIJCOSX, COSX-SCS-MP3, EOM     
  Riya Kayal             : Wick's Theorem for AUTO-CI, AUTO-CI UHF-CCSDT 
  Emily Kempfer          : AUTO-CI, RHF CISDT and CCSDT                  
  Christian Kollmar      : KDIIS, OOCD, Brueckner-CCSD(T), CCSD density, CASPT2, CASPT2-K, improved NEVPT2 
  Axel Koslowski         : Symmetry handling                             
  Simone Kossmann        : meta-GGA functionals, TD-DFT gradient, OOMP2, (MP2 Hessian; deprecated post 5.0) 
  Lucas Lang             : DCDCAS                                        
  Marvin Lechner         : AUTO-CI (C++ implementation), FIC-MRCC        
  Spencer Leger          : CASSCF response                               
  Dagmar Lenk            : GEPOL surface, SMD, ORCA-2-JSON               
  Dimitrios Liakos       : Extrapolation schemes; Compound Job, initial MDCI parallelization 
  Dimitrios Manganas     : Further ROCIS development; embedding schemes. LFT, Crystal Embedding 
  Dimitrios Pantazis     : SARC Basis sets                               
  Anastasios Papadopoulos: AUTO-CI, single reference methods and gradients 
  Taras Petrenko         : pre 6.0 DFT Hessian and TD-DFT gradient, (ASA, deprecated), ECA, 1-Electron XAS/XES, NRVS 
  Peter Pinski           : DLPNO-MP2, DLPNO-MP2 Gradient                 
  Christoph Reimann      : Effective Core Potentials                     
  Marius Retegan         : Local ZFS, SOC                                
  Christoph Riplinger    : Optimizer, TS searches, QM/MM, DLPNO-CCSD(T), (RO)-DLPNO pert. Triples 
  Michael Roemelt        : Original ROCIS implementation                 
  Masaaki Saitow         : Open-shell DLPNO-CCSD energy and density      
  Barbara Sandhoefer     : DKH picture change effects                    
  Kantharuban Sivalingam : CASSCF convergence/infrastructure, NEVPT2 and variants, FIC-MRCI 
  Bernardo de Souza      : ESD, SOC TD-DFT                               
  Georgi L. Stoychev     : AutoAux, RI-MP2 NMR, DLPNO-MP2 response, X2C  
  Van Anh Tran           : RI-MP2 g-tensors                              
  Willem Van den Heuvel  : Paramagnetic NMR                              
  Zikuan Wang            : NOTCH, Electric field optimization            
  Frank Wennmohs         : Technical directorship and infrastructure     
  Hang Xu                : AUTO-CI-Response properties                   
                                                                         
[FACCTs GmbH]                                                            
  Markus Bursch, Miquel Garcia-Rates, Christoph Riplinger, Bernardo de Souza, Georgi L. Stoychev 
                                                                 
  APM, Basis sets (HGBS, AHGBS, def-TZVP (Ac-Lr), def2-XVPD (La-Lu)), CI-OPT, improved COSX, DLPNO-Multilevel,           
  DOCKER, DRACO, updates on ESD, GOAT, IRC, LR-CPCM, MBIS, meta-GGA TD-DFT gradient, ML-optimized integration grids, 
  MM, NACMEs, nearIR, NEB, NEB-TS, NL-DFT gradient (VV10), 2- and 3-layer-ONIOM, interface openCOSMO-RS, QMMM,   
  Crystal-QMMM, SF, symmetry and pop. for TD-DFT, r2SCAN hybrids, SOLVATOR                                   
                                                                         
[Other institutions]                                                     
  V. Asgeirsson          : NEB                                           
  Christoph Bannwarth    : sTDA-DFT, sTD-DFT, PBEh-3c, B97-3c, D3        
  Sebastian Ehlert       : rSCAN, r2SCAN, r2SCAN-3c, D4, dhf basis sets  
  Marvin Friede          : D4 for Fr, Ra, Ac-Lr                          
  Lars Goerigk           : TD-DFT with DH, B97 family of functionals     
  Stefan Grimme          : VdW corrections, initial TS optimization, DFT functionals, gCP, sTDA/sTD-DF 
  Waldemar Hujo          : DFT-NL                                        
  H. Jonsson             : NEB                                           
  Holger Kruse           : gCP                                           
  Marcel Mueller         : wB97X-3c, vDZP basis set                      
  Hagen Neugebauer       : wr2SCAN                                       
  Tobias Risthaus        : range-separated hybrid DFT                    
  Lukas Wittmann         : regularized MP2, r2SCAN double-hybrids, wr2SCAN        
                                                                         
We gratefully acknowledge several colleagues who have allowed us to      
interface, adapt or use parts of their codes:                            
  Ed Valeev, F. Pavosevic, A. Kumar             : LibInt (2-el integral package), F12 methods 
  Garnet Chan, S. Sharma, J. Yang, R. Olivares  : DMRG                   
  Ulf Ekstrom                                   : XCFun DFT Library      
  Mihaly Kallay                                 : mrcc  (arbitrary order and MRCC methods)
  Frank Weinhold                                : gennbo (NPA and NBO analysis)           
  Simon Mueller                                 : openCOSMO-RS                            
  Christopher J. Cramer and Donald G. Truhlar   : smd solvation model                     
  S Lehtola, MJT Oliveira, MAL Marques          : LibXC Library                           
  Liviu Ungur et al                             : ANISO software                          


 Your calculation uses the libint2 library for the computation of 2-el integrals
 For citations please refer to: http://libint.valeyev.net

 Your ORCA version has been built with support for libXC version: 6.2.2
 For citations please refer to: https://libxc.gitlab.io

 This ORCA versions uses:
   CBLAS   interface :  Fast vector & matrix operations
   LAPACKE interface :  Fast linear algebra routines
   SCALAPACK package :  Parallel linear algebra routines
   Shared memory     :  Shared parallel matrices
   BLAS/LAPACK       :  OpenBLAS 0.3.27  USE64BITINT DYNAMIC_ARCH NO_AFFINITY SkylakeX SINGLE_THREADED
        Core in use  :  SkylakeX
   Copyright (c) 2011-2014, The OpenBLAS Project


Your calculation utilizes the atom-pairwise dispersion correction
based on EEQ partial charges (D4)


================================================================================

cite the ECPs for C  [vDZP-ECP], S  [vDZP-ECP] as follows:
   B-Ne (ecp-2-mwb), Al-Ar (ecp-10-mwb), Ga-Kr (ecp-28-mwb), Y-Cd (ecp-28-mwb), In-Xe (ecp-46-mwb):
     A. Bergner, M. Dolg, W. Küchle, H. Stoll, and H. Preuß, Mol. Phys. 80, 1431 (1993)., T. Leininger, A. Berning, A. Nicklass, H. Stoll, H.-J. Werner, and H.-J.Flad, Chem. Phys. 217, 19 (1997).
   Na-Mg, K-Ca, Rb-Sr, Cs-Ba (CRENBL):
     L. Fernandez Pacios and P. A. Christiansen, J. Chem. Phys. 82, 2664 (1985)., M. M. Hurley, L. F. Pacios, P. A. Christiansen, R. B. Ross, and W. C. Ermler, J. Chem. Phys. 84, 6840 (1986)., L. A. LaJohn, P. A. Christiansen, R. B. Ross, T. Atashroo, and W. C. Ermler, J. Chem. Phys. 87, 2812 (1987)., R. B. Ross, J. M. Powers, T. Atashroo, W. C. Ermler, L. A. LaJohn, and P. A. Christiansen, J. Chem. Phys. 93, 6654 (1990). 
   Sc-Zn (ecp-10-mdf):
     M. Dolg, U. Wedig, H. Stoll, and H. Preuss, J. Chem. Phys. 86, 866 (1986). 
   Y-Cd (ecp-28-mwb), Hf-Hg (ecp-60-mwb):
     D. Andrae, U. Häußermann, M. Dolg, H. Stoll, and H. Preuß, Theor. Chim. Acta 77, 123 (1990). 
   La (ecp-46-mwb):
     M. Dolg, H. Stoll, and H. Preuss, J. Chem. Phys. 90, 1730 (1989)., M. Dolg, H. Stoll, and H. Preuss, Theor. Chim. Acta 85, 441 (1993).
   Ce-Lu (SBKJC-ecp):
     T. R. Cundari and W. J. Stevens, J. Chem. Phys. 98, 5555 (1993).
   Tl-Rn (ecp-78-mwb):
     W. Küchle, M. Dolg, H. Stoll, and H. Preuss, Mol. Phys. 74, 1245 (1991).

ECP parameters for C  [vDZP-ECP], S  [vDZP-ECP] have been obtained from:
MM, AH, SG, J. Chem. Phys. 158, 014103 (2023), 10.1063/5.0133026

----- Orbital basis set information -----
Your calculation utilizes the basis: vDZP
   Marcel Mueller, Andreas Hansen, Stefan Grimme 
   J. Chem. Phys. 158, 014103 (2023). DOI: 10.1063/5.0133026

----- AuxJ basis set information -----
Your calculation utilizes the auxiliary basis: def2/J
   F. Weigend, Phys. Chem. Chem. Phys. 8, 1057 (2006).

================================================================================
                                        WARNINGS
                       Please study these warnings very carefully!
================================================================================

WARNING: Frozen-Core approximation turned on, but there are no core electrons.
  ===> : Turning off frozen-core approximation


WARNING: Geometry Optimization
  ===> : Switching off AutoStart
         For restart on a previous wavefunction, please use MOREAD

================================================================================
                                       INPUT FILE
================================================================================
NAME = ./output/diallyl_sulfide/diallyl_sulfide.inp
|  1> ! wB97X-3c OPT FREQ TightSCF
|  2> %pal
|  3>   nprocs 40
|  4> end
|  5> * xyz 0 1
|  6> C      2.573048    -1.251526    -0.319929
|  7> C      2.279799     0.038300    -0.507347
|  8> C      1.509817     0.833297     0.507641
|  9> S     -0.070830     1.402993    -0.205054
| 10> C     -0.923482    -0.207344    -0.069841
| 11> C     -2.336836    -0.083759    -0.555864
| 12> C     -3.249360     0.622945     0.117155
| 13> H      3.125181    -1.797267    -1.078045
| 14> H      2.264969    -1.772969     0.581171
| 15> H      2.594990     0.525367    -1.425354
| 16> H      2.109448     1.726580     0.779188
| 17> H      1.327568     0.256060     1.440078
| 18> H     -0.394204    -0.956159    -0.695451
| 19> H     -0.921471    -0.557809     0.984561
| 20> H     -2.631910    -0.604473    -1.462099
| 21> H     -2.988368     1.141419     1.034940
| 22> H     -4.268358     0.684344    -0.250740
| 23> *
| 24> 
| 25>                          ****END OF INPUT****
================================================================================

                       *****************************
                       * Geometry Optimization Run *
                       *****************************

Geometry optimization settings:
Update method            Update   .... BFGS
Choice of coordinates    CoordSys .... (2022) Redundant Internals
Initial Hessian          InHess   .... Almloef's Model
Max. no of cycles        MaxIter  .... 51

Convergence Tolerances:
Energy Change            TolE     ....  5.0000e-06 Eh
Max. Gradient            TolMAXG  ....  3.0000e-04 Eh/bohr
RMS Gradient             TolRMSG  ....  1.0000e-04 Eh/bohr
Max. Displacement        TolMAXD  ....  4.0000e-03 bohr
RMS Displacement         TolRMSD  ....  2.0000e-03 bohr
Strict Convergence                .... False

------------------------------------------------------------------------------
                        ORCA OPTIMIZATION COORDINATE SETUP
------------------------------------------------------------------------------

The optimization will be done in redundant internal coordinates (2022)
Making redundant internal coordinates   ...  (2022 redundants) done
Evaluating the initial hessian          ...  (Almloef) done
Evaluating the coordinates              ...  done
Calculating the B-matrix                .... done
Calculating the G-matrix                .... done
Diagonalizing the G-matrix              .... done
Small eigenvalue found = 1.154e-02
Small eigenvalue found = 2.389e-02
The first mode is                       ....   20
The number of degrees of freedom        ....   45

    -----------------------------------------------------------------
                    Redundant Internal Coordinates


    -----------------------------------------------------------------
         Definition                    Initial Value    Approx d2E/dq
    -----------------------------------------------------------------
      1. B(C   1,C   0)                  1.3360         0.762020   
      2. B(C   2,C   1)                  1.5017         0.414509   
      3. B(S   3,C   2)                  1.8251         0.340688   
      4. B(C   4,S   3)                  1.8272         0.338111   
      5. B(C   5,C   4)                  1.4997         0.417580   
      6. B(C   6,C   5)                  1.3361         0.761692   
      7. B(H   7,C   0)                  1.0851         0.366652   
      8. B(H   8,C   0)                  1.0857         0.365801   
      9. B(H   9,C   1)                  1.0860         0.365480   
     10. B(H  10,C   2)                  1.1096         0.335062   
     11. B(H  11,C   2)                  1.1117         0.332520   
     12. B(H  12,C   4)                  1.1101         0.334510   
     13. B(H  13,C   4)                  1.1111         0.333214   
     14. B(H  14,C   5)                  1.0860         0.365383   
     15. B(H  15,C   6)                  1.0859         0.365514   
     16. B(H  16,C   6)                  1.0851         0.366621   
     17. A(H   7,C   0,H   8)          118.8615         0.292387   
     18. A(C   1,C   0,H   7)          119.9509         0.366652   
     19. A(C   1,C   0,H   8)          121.1872         0.366506   
     20. A(C   0,C   1,H   9)          119.2031         0.366451   
     21. A(C   0,C   1,C   2)          121.9278         0.419065   
     22. A(C   2,C   1,H   9)          118.8643         0.330732   
     23. A(S   3,C   2,H  11)          110.3426         0.331232   
     24. A(C   1,C   2,H  11)          112.0912         0.325616   
     25. A(S   3,C   2,H  10)          108.1974         0.331650   
     26. A(C   1,C   2,H  10)          108.3312         0.326025   
     27. A(C   1,C   2,S   3)          110.2052         0.383399   
     28. A(H  10,C   2,H  11)          107.5381         0.284025   
     29. A(C   2,S   3,C   4)           95.7479         0.389869   
     30. A(H  12,C   4,H  13)          108.7341         0.284044   
     31. A(S   3,C   4,H  13)          110.3264         0.330931   
     32. A(C   5,C   4,H  12)          108.8017         0.326332   
     33. A(S   3,C   4,H  12)          109.2879         0.331143   
     34. A(C   5,C   4,H  13)          109.5870         0.326124   
     35. A(S   3,C   4,C   5)          110.0708         0.383385   
     36. A(C   6,C   5,H  14)          119.2338         0.366407   
     37. A(C   4,C   5,C   6)          121.6017         0.419585   
     38. A(C   4,C   5,H  14)          119.1419         0.331122   
     39. A(H  15,C   6,H  16)          119.0268         0.292347   
     40. A(C   5,C   6,H  16)          120.0345         0.366620   
     41. A(C   5,C   6,H  15)          120.9387         0.366429   
     42. D(H   9,C   1,C   0,H   8)   -179.3764         0.041540   
     43. D(C   2,C   1,C   0,H   8)     -0.1871         0.041540   
     44. D(H   9,C   1,C   0,H   7)      0.3715         0.041540   
     45. D(C   2,C   1,C   0,H   7)    179.5607         0.041540   
     46. D(H  10,C   2,C   1,C   0)    124.6415         0.012716   
     47. D(H  11,C   2,C   1,C   0)      6.1469         0.012716   
     48. D(S   3,C   2,C   1,C   0)   -117.1620         0.012716   
     49. D(H  10,C   2,C   1,H   9)    -56.1665         0.012716   
     50. D(S   3,C   2,C   1,H   9)     62.0299         0.012716   
     51. D(C   4,S   3,C   2,H  11)    -47.4378         0.003351   
     52. D(C   4,S   3,C   2,H  10)   -164.8367         0.003351   
     53. D(C   4,S   3,C   2,C   1)     76.8846         0.003351   
     54. D(H  13,C   4,S   3,C   2)     57.2032         0.003322   
     55. D(H  12,C   4,S   3,C   2)    -62.3025         0.003322   
     56. D(C   5,C   4,S   3,C   2)    178.2648         0.003322   
     57. D(H  14,C   5,C   4,H  12)     -6.7328         0.012899   
     58. D(H  14,C   5,C   4,S   3)    112.9956         0.012899   
     59. D(C   6,C   5,C   4,H  13)     52.7583         0.012899   
     60. D(C   6,C   5,C   4,H  12)    171.5264         0.012899   
     61. D(C   6,C   5,C   4,S   3)    -68.7452         0.012899   
     62. D(H  16,C   6,C   5,H  14)     -0.9151         0.041501   
     63. D(H  16,C   6,C   5,C   4)   -179.1727         0.041501   
     64. D(H  15,C   6,C   5,H  14)    179.0246         0.041501   
     65. D(H  15,C   6,C   5,C   4)      0.7670         0.041501   
    -----------------------------------------------------------------

Number of atoms                         .... 17
Number of degrees of freedom            .... 65


         *************************************************************
         *                GEOMETRY OPTIMIZATION CYCLE   1            *
         *************************************************************
---------------------------------
CARTESIAN COORDINATES (ANGSTROEM)
---------------------------------
  C      2.573048   -1.251526   -0.319929
  C      2.279799    0.038300   -0.507347
  C      1.509817    0.833297    0.507641
  S     -0.070830    1.402993   -0.205054
  C     -0.923482   -0.207344   -0.069841
  C     -2.336836   -0.083759   -0.555864
  C     -3.249360    0.622945    0.117155
  H      3.125181   -1.797267   -1.078045
  H      2.264969   -1.772969    0.581171
  H      2.594990    0.525367   -1.425354
  H      2.109448    1.726580    0.779188
  H      1.327568    0.256060    1.440078
  H     -0.394204   -0.956159   -0.695451
  H     -0.921471   -0.557809    0.984561
  H     -2.631910   -0.604473   -1.462099
  H     -2.988368    1.141419    1.034940
  H     -4.268358    0.684344   -0.250740

----------------------------
CARTESIAN COORDINATES (A.U.)
----------------------------
  NO LB      ZA    FRAG     MASS         X           Y           Z
   0 C     4.0000*   0    12.011    4.862356   -2.365041   -0.604578
   1 C     4.0000*   0    12.011    4.308196    0.072377   -0.958747
   2 C     4.0000*   0    12.011    2.853141    1.574703    0.959302
   3 S     6.0000*   0    32.060   -0.133849    2.651273   -0.387496
   4 C     4.0000*   0    12.011   -1.745128   -0.391823   -0.131980
   5 C     4.0000*   0    12.011   -4.415980   -0.158282   -1.050431
   6 C     4.0000*   0    12.011   -6.140401    1.177195    0.221391
   7 H     1.0000    0     1.008    5.905736   -3.396342   -2.037210
   8 H     1.0000    0     1.008    4.280171   -3.350426    1.098254
   9 H     1.0000    0     1.008    4.903820    0.992800   -2.693529
  10 H     1.0000    0     1.008    3.986279    3.262763    1.472452
  11 H     1.0000    0     1.008    2.508740    0.483883    2.721353
  12 H     1.0000    0     1.008   -0.744938   -1.806879   -1.314212
  13 H     1.0000    0     1.008   -1.741328   -1.054106    1.860551
  14 H     1.0000    0     1.008   -4.973589   -1.142288   -2.762967
  15 H     1.0000    0     1.008   -5.647197    2.156969    1.955753
  16 H     1.0000    0     1.008   -8.066028    1.293223   -0.473830
* core charge reduced due to ECP

--------------------------------
INTERNAL COORDINATES (ANGSTROEM)
--------------------------------
 C      0   0   0     0.000000000000     0.00000000     0.00000000
 C      1   0   0     1.335953439683     0.00000000     0.00000000
 C      2   1   0     1.501696757164   121.92778601     0.00000000
 S      3   2   1     1.825084281355   110.20518381   242.83795646
 C      4   3   2     1.827151674613    95.74785765    76.88463295
 C      5   4   3     1.499687013370   110.07078864   178.26478603
 C      6   5   4     1.336070794738   121.60169424   291.25479263
 H      1   2   3     1.085091681945   119.95085070   179.56074237
 H      1   2   3     1.085724036065   121.18721350   359.81285110
 H      2   1   3     1.085963388434   119.20308432   180.81071822
 H      3   2   1     1.109616883189   108.33118558   124.64153154
 H      3   2   1     1.111690609450   112.09118426     6.14687078
 H      5   4   3     1.110066204156   109.28788001   297.69750146
 H      5   4   3     1.111122557574   110.32635686    57.20316706
 H      6   5   4     1.086035731685   119.14194165   112.99561663
 H      7   6   5     1.085938036430   120.93871314     0.76695863
 H      7   6   5     1.085114506506   120.03449716   180.82730385

---------------------------
INTERNAL COORDINATES (A.U.)
---------------------------
 C      0   0   0     0.000000000000     0.00000000     0.00000000
 C      1   0   0     2.524586128671     0.00000000     0.00000000
 C      2   1   0     2.837795607238   121.92778601     0.00000000
 S      3   2   1     3.448909463086   110.20518381   242.83795646
 C      4   3   2     3.452816270155    95.74785765    76.88463295
 C      5   4   3     2.833997741867   110.07078864   178.26478603
 C      6   5   4     2.524807897586   121.60169424   291.25479263
 H      1   2   3     2.050526109072   119.95085070   179.56074237
 H      1   2   3     2.051721085179   121.18721350   359.81285110
 H      2   1   3     2.052173395605   119.20308432   180.81071822
 H      3   2   1     2.096872022803   108.33118558   124.64153154
 H      3   2   1     2.100790797512   112.09118426     6.14687078
 H      5   4   3     2.097721116376   109.28788001   297.69750146
 H      5   4   3     2.099717335037   110.32635686    57.20316706
 H      6   5   4     2.052310104538   119.14194165   112.99561663
 H      7   6   5     2.052125487261   120.93871314     0.76695863
 H      7   6   5     2.050569241242   120.03449716   180.82730385

---------------------
BASIS SET INFORMATION
---------------------
There are 3 groups of distinct atoms

 Group   1 Type C   : 6s6p2d contracted to 2s2p1d pattern {42/42/2}
 Group   2 Type S   : 6s6p2d contracted to 2s2p1d pattern {42/42/2}
 Group   3 Type H   : 8s2p contracted to 2s1p pattern {53/2}

Atom   0C    basis set group =>   1
Atom   1C    basis set group =>   1
Atom   2C    basis set group =>   1
Atom   3S    basis set group =>   2
Atom   4C    basis set group =>   1
Atom   5C    basis set group =>   1
Atom   6C    basis set group =>   1
Atom   7H    basis set group =>   3
Atom   8H    basis set group =>   3
Atom   9H    basis set group =>   3
Atom  10H    basis set group =>   3
Atom  11H    basis set group =>   3
Atom  12H    basis set group =>   3
Atom  13H    basis set group =>   3
Atom  14H    basis set group =>   3
Atom  15H    basis set group =>   3
Atom  16H    basis set group =>   3
---------------------------------
AUXILIARY/J BASIS SET INFORMATION
---------------------------------
There are 3 groups of distinct atoms

 Group   1 Type C   : 12s5p4d2f1g contracted to 6s4p3d1f1g pattern {711111/2111/211/2/1}
 Group   2 Type S   : 14s5p5d2f1g contracted to 8s4p3d1f1g pattern {71111111/2111/311/2/1}
 Group   3 Type H   : 5s2p1d contracted to 3s1p1d pattern {311/2/1}

Atom   0C    basis set group =>   1
Atom   1C    basis set group =>   1
Atom   2C    basis set group =>   1
Atom   3S    basis set group =>   2
Atom   4C    basis set group =>   1
Atom   5C    basis set group =>   1
Atom   6C    basis set group =>   1
Atom   7H    basis set group =>   3
Atom   8H    basis set group =>   3
Atom   9H    basis set group =>   3
Atom  10H    basis set group =>   3
Atom  11H    basis set group =>   3
Atom  12H    basis set group =>   3
Atom  13H    basis set group =>   3
Atom  14H    basis set group =>   3
Atom  15H    basis set group =>   3
Atom  16H    basis set group =>   3
-------------------------
ECP PARAMETER INFORMATION
-------------------------

 Group 1, Type C  ECP vDZP-ECP (replacing 2 core electrons, lmax=3)
 Group 2, Type S  ECP vDZP-ECP (replacing 10 core electrons, lmax=3)

Atom   0C    ECP group =>   1
Atom   1C    ECP group =>   1
Atom   2C    ECP group =>   1
Atom   3S    ECP group =>   2
Atom   4C    ECP group =>   1
Atom   5C    ECP group =>   1
Atom   6C    ECP group =>   1



           ************************************************************
           *        Program running with 40 parallel MPI-processes    *
           *              working on a common directory               *
           ************************************************************
------------------------------------------------------------------------------
                             ORCA STARTUP CALCULATIONS
                           -- RI-GTO INTEGRALS CHOSEN --
------------------------------------------------------------------------------
------------------------------------------------------------------------------
                   ___                                                        
                  /   \      - P O W E R E D   B Y -                         
                 /     \                                                     
                 |  |  |   _    _      __       _____    __    __             
                 |  |  |  | |  | |    /  \     |  _  \  |  |  /  |          
                  \  \/   | |  | |   /    \    | | | |  |  | /  /          
                 / \  \   | |__| |  /  /\  \   | |_| |  |  |/  /          
                |  |  |   |  __  | /  /__\  \  |    /   |      \           
                |  |  |   | |  | | |   __   |  |    \   |  |\   \          
                \     /   | |  | | |  |  |  |  | |\  \  |  | \   \       
                 \___/    |_|  |_| |__|  |__|  |_| \__\ |__|  \__/        
                                                                              
                      - O R C A' S   B I G   F R I E N D -                    
                                      &                                       
                       - I N T E G R A L  F E E D E R -                       
                                                                              
 v1 FN, 2020, v2 2021, v3 2022-2024                                           
------------------------------------------------------------------------------


----------------------
SHARK INTEGRAL PACKAGE
----------------------

Number of atoms                             ...     17
Number of basis functions                   ...    141
Number of shells                            ...     65
Maximum angular momentum                    ...      2
Integral batch strategy                     ... SHARK/LIBINT Hybrid
RI-J (if used) integral strategy            ... SPLIT-RIJ (Revised 2003 algorithm where possible)
Printlevel                                  ...      1
Contraction scheme used                     ... SEGMENTED contraction
Prescreening option                         ... SCHWARTZ
   Thresh                                   ... 2.500e-11
   Tcut                                     ... 2.500e-12
   Tpresel                                  ... 2.500e-12 
Coulomb Range Separation                    ... NOT USED
Exchange Range Separation                   ... Long Range
   Mu parameter                             ... 3.000e-01
   Scaling (regular/separated)              ... 1.670e-01 8.330e-01
Multipole approximations                    ... NOT USED
Finite Nucleus Model                        ... NOT USED
CABS basis                                  ... NOT available
Auxiliary Coulomb fitting basis             ... AVAILABLE
   # of basis functions in Aux-J            ...    455
   # of shells in Aux-J                     ...    157
   Maximum angular momentum in Aux-J        ...      4
Auxiliary J/K fitting basis                 ... NOT available
Auxiliary Correlation fitting basis         ... NOT available
Auxiliary 'external' fitting basis          ... NOT available

Checking pre-screening integrals            ... done (  0.0 sec) Dimension = 65
Check shell pair data                       ... done (  0.0 sec)
Shell pair information
Shell pair cut-off parameter TPreSel        ...   2.5e-12
Total number of shell pairs                 ...      2145
Shell pairs after pre-screening             ...      2142
Total number of primitive shell pairs       ...     19946
Primitive shell pairs kept                  ...     16582
          la=0 lb=0:    595 shell pairs
          la=1 lb=0:    814 shell pairs
          la=1 lb=1:    299 shell pairs
          la=2 lb=0:    238 shell pairs
          la=2 lb=1:    168 shell pairs
          la=2 lb=2:     28 shell pairs

Calculating one electron integrals          ... done (  0.0 sec)
Calculating ECP integrals                   ... done (  0.1 sec)
Calculating RI/J V-Matrix + Cholesky decomp.... done (  0.0 sec)
Calculating Nuclear repulsion               ... done (  0.0 sec) ENN=    148.022693202987 Eh

Diagonalization of the overlap matrix:
Smallest eigenvalue                        ... 1.861e-03
Time for diagonalization                   ...    0.003 sec
Threshold for overlap eigenvalues          ... 1.000e-07
Number of eigenvalues below threshold      ... 0
Time for construction of square roots      ...    0.003 sec
Total time needed                          ...    0.009 sec

-------------------
DFT GRID GENERATION
-------------------

General Integration Accuracy     IntAcc      ... 4.388
Radial Grid Type                 RadialGrid  ... OptM3 with GC (2021)
Angular Grid (max. ang.)         AngularGrid ... 4 (Lebedev-302)
Angular grid pruning method      GridPruning ... 4 (adaptive)
Weight generation scheme         WeightScheme... mBecke (2022)
Basis function cutoff            BFCut       ... 1.0000e-11
Integration weight cutoff        WCut        ... 1.0000e-14
Partially contracted basis set               ... off
Rotationally invariant grid construction     ... off
Angular grids for H and He will be reduced by one unit

Total number of grid points                  ...    75785
Total number of batches                      ...     1193
Average number of points per batch           ...       63
Average number of grid points per atom       ...     4458

--------------------
COSX GRID GENERATION
--------------------

GRIDX 1
-------
General Integration Accuracy     IntAcc      ... 3.816
Radial Grid Type                 RadialGrid  ... OptM3 with GC (2021)
Angular Grid (max. ang.)         AngularGrid ... 1 (Lebedev-50)
Angular grid pruning method      GridPruning ... 4 (adaptive)
Weight generation scheme         WeightScheme... mBecke (2022)
Basis function cutoff            BFCut       ... 1.0000e-11
Integration weight cutoff        WCut        ... 1.0000e-14
Partially contracted basis set               ... on
Rotationally invariant grid construction     ... off
Angular grids for H and He will be reduced by one unit

Total number of grid points                  ...    10747
Total number of batches                      ...       93
Average number of points per batch           ...      115
Average number of grid points per atom       ...      632
UseSFitting                                  ... on

GRIDX 2
-------
General Integration Accuracy     IntAcc      ... 4.020
Radial Grid Type                 RadialGrid  ... OptM3 with GC (2021)
Angular Grid (max. ang.)         AngularGrid ... 2 (Lebedev-110)
Angular grid pruning method      GridPruning ... 4 (adaptive)
Weight generation scheme         WeightScheme... mBecke (2022)
Basis function cutoff            BFCut       ... 1.0000e-11
Integration weight cutoff        WCut        ... 1.0000e-14
Partially contracted basis set               ... on
Rotationally invariant grid construction     ... off
Angular grids for H and He will be reduced by one unit

Total number of grid points                  ...    20488
Total number of batches                      ...      167
Average number of points per batch           ...      122
Average number of grid points per atom       ...     1205
UseSFitting                                  ... on

GRIDX 3
-------
General Integration Accuracy     IntAcc      ... 4.338
Radial Grid Type                 RadialGrid  ... OptM3 with GC (2021)
Angular Grid (max. ang.)         AngularGrid ... 3 (Lebedev-194)
Angular grid pruning method      GridPruning ... 4 (adaptive)
Weight generation scheme         WeightScheme... mBecke (2022)
Basis function cutoff            BFCut       ... 1.0000e-11
Integration weight cutoff        WCut        ... 1.0000e-14
Partially contracted basis set               ... on
Rotationally invariant grid construction     ... off
Angular grids for H and He will be reduced by one unit

Total number of grid points                  ...    45350
Total number of batches                      ...      362
Average number of points per batch           ...      125
Average number of grid points per atom       ...     2668
UseSFitting                                  ... on
Initializing property integral containers    ... done (  0.0 sec)

SHARK setup successfully completed in   2.2 seconds

Maximum memory used throughout the entire STARTUP-calculation: 21.8 MB


           ************************************************************
           *        Program running with 40 parallel MPI-processes    *
           *              working on a common directory               *
           ************************************************************
-------------------------------------------------------------------------------
                                 ORCA GUESS
                   Start orbitals & Density for SCF / CASSCF
-------------------------------------------------------------------------------

------------
SCF SETTINGS
------------
Hamiltonian:
 Density Functional     Method          .... DFT(GTOs)
 Exchange Functional    Exchange        .... WB97X-V
 Correlation Functional Correlation     .... WB97X-V
 Gradients option       PostSCFGGA      .... off
 Hybrid DFT is turned on
   Fraction HF Exchange ScalHFX         ....  0.167000
   Scaling of DF-GGA-X  ScalDFX         ....  0.000000
   Scaling of DF-GGA-C  ScalDFC         ....  1.000000
   Scaling of DF-LDA-C  ScalLDAC        ....  1.000000
   Perturbative correction              ....  0.000000
 Long-range corrected/Screened/Range-Separated Hybrid DFT is turned on
   Amount of maximum screened exact exchange              ....  0.833000
   Range separation parameter mu (erf(mu*r12)/r12)        ....  0.300000
   NL short-range parameter             ....  6.000000
   NL long-range parameter              ....  0.010000
 RI-approximation to the Coulomb term is turned on
   Number of AuxJ basis functions       .... 455
   RIJ-COSX (HFX calculated with COS-X)).... on


General Settings:
 Integral files         IntName         .... ./output/diallyl_sulfide/diallyl_sulfide
 Hartree-Fock type      HFTyp           .... RHF
 Total Charge           Charge          ....    0
 Multiplicity           Mult            ....    1
 Number of Electrons    NEL             ....   40
 Basis Dimension        Dim             ....  141
 Nuclear Repulsion      ENuc            ....    148.0226932030 Eh

Convergence Acceleration:
 AO-DIIS                CNVDIIS         .... on
   Start iteration      DIISMaxIt       ....    12
   Startup error        DIISStart       ....  0.200000
   # of expansion vecs  DIISMaxEq       ....     5
   Bias factor          DIISBfac        ....   1.050
   Max. coefficient     DIISMaxC        ....  10.000
 MO-DIIS                CNVKDIIS        .... off
 Trust-Rad. Augm. Hess. CNVTRAH         .... auto
   Auto Start mean grad. ratio tolernc. ....  1.125000
   Auto Start start iteration           ....    50
   Auto Start num. interpolation iter.  ....    10
   Max. Number of Micro iterations      ....    24
   Max. Number of Macro iterations      .... Maxiter - #DIIS iter
   Number of Davidson start vectors     ....     2
   Converg. threshold    (grad. norm)   ....   1.000e-05
   Grad. Scal. Fac. for Micro threshold ....   0.100
   Minimum threshold for Micro iter.    ....   1.000e-02
   NR start threshold (gradient norm)   ....   1.000e-04
   Initial trust radius                 ....   0.400
   Minimum AH scaling param. (alpha)    ....   1.000
   Maximum AH scaling param. (alpha)    .... 1000.000
   Quad. conv. algorithm                .... NR
   White noise on init. David. guess    .... on
   Maximum white noise                  ....   0.010
   Pseudo random numbers                .... off
   Inactive MOs                         .... canonical
   Orbital update algorithm             .... Taylor
   Preconditioner                       .... Diag
   Full preconditioner red. dimension   ....   250
 SOSCF                  CNVSOSCF        .... on
   Start iteration      SOSCFMaxIt      ....   150
   Startup grad/error   SOSCFStart      ....  0.003300
   Hessian update       SOSCFHessUp     .... L-BFGS
 Level Shifting         CNVShift        .... on
   Level shift para.    LevelShift      ....    0.2500
   Turn off err/grad.   ShiftErr        ....    0.0010
 Zerner damping         CNVZerner       .... off
 Static damping         CNVDamp         .... on
   Fraction old density DampFac         ....    0.7000
   Max. Damping (<1)    DampMax         ....    0.9800
   Min. Damping (>=0)   DampMin         ....    0.0000
   Turn off err/grad.   DampErr         ....    0.1000

SCF Procedure:
 Maximum # iterations   MaxIter         ....   125
 SCF integral mode      SCFMode         .... Direct
   Integral package                     .... SHARK and LIBINT hybrid scheme
 Reset frequency        DirectResetFreq ....    20
 Integral Threshold     Thresh          ....  2.500e-11 Eh
 Primitive CutOff       TCut            ....  2.500e-12 Eh

Convergence Tolerance:
 Convergence Check Mode ConvCheckMode   .... Total+1el-Energy
 Convergence forced     ConvForced      .... 0
 Energy Change          TolE            ....  1.000e-08 Eh
 1-El. energy change                    ....  1.000e-05 Eh
 Orbital Gradient       TolG            ....  1.000e-05
 Orbital Rotation angle TolX            ....  1.000e-05
 DIIS Error             TolErr          ....  5.000e-07

------------------------------
INITIAL GUESS: MODEL POTENTIAL
------------------------------
Loading Hartree-Fock densities                     ... done
Atomic calculation to generate a density for atom 0 (C  with ECP)
  Multiplicity assumed   :    1
  Atomic configuration   : 1s2 2s2 2p2 
  Number of open shells  : 1
  Command: /home/aspe232/Project/Software/ORCA/6_0_1/build/orca ./output/diallyl_sulfide/diallyl_sulfide_atom6.inp "" > ./output/diallyl_sulfide/diallyl_sulfide_atom6.out
Returned from the atomic calculation with res=0
Atomic calculation to generate a density for atom 3 (S  with ECP)
  Multiplicity assumed   :    3
  Atomic configuration   : 1s2 2s2 2p6 3s2 3p4 
  Number of open shells  : 1
  Command: /home/aspe232/Project/Software/ORCA/6_0_1/build/orca ./output/diallyl_sulfide/diallyl_sulfide_atom16.inp "" > ./output/diallyl_sulfide/diallyl_sulfide_atom16.out
Returned from the atomic calculation with res=0
Calculating cut-offs                               ... done
Initializing the effective Hamiltonian             ... done
Setting up the integral package (SHARK)            ... done
Starting the Coulomb interaction                   ... done (   0.0 sec)
Making the grid                                    ... done (   0.4 sec)
Mapping shells                                     ... done
Starting the XC term evaluation                    ... done (   0.1 sec)
  promolecular density results
     # of electrons  =     61.995076907
     EX              =    -40.698827723
     EC              =     -2.641552504
     EX+EC           =    -43.340380226
Transforming the Hamiltonian                       ... done (   0.0 sec)
Diagonalizing the Hamiltonian                      ... done (   0.0 sec)
Back transforming the eigenvectors                 ... done (   0.0 sec)
Now organizing SCF variables                       ... done
                      ------------------
                      INITIAL GUESS DONE (   1.8 sec)
                      ------------------
             **** ENERGY FILE WAS UPDATED (./output/diallyl_sulfide/diallyl_sulfide.en.tmp) ****
Finished Guess after   2.1 sec
Maximum memory used throughout the entire GUESS-calculation: 12.3 MB


           ************************************************************
           *        Program running with 40 parallel MPI-processes    *
           *              working on a common directory               *
           ************************************************************

-------------------------------------------------------------------------------------------
                                      ORCA LEAN-SCF
                              memory conserving SCF solver
-------------------------------------------------------------------------------------------

----------------------------------------D-I-I-S--------------------------------------------
Iteration    Energy (Eh)           Delta-E    RMSDP     MaxDP     DIISErr   Damp  Time(sec)
-------------------------------------------------------------------------------------------
               ***  Starting incremental Fock matrix formation  ***
    1    -50.0548033318378600     0.00e+00  4.26e-03  7.14e-02  1.68e-01  0.700   2.0
    2    -50.1750603371501711    -1.20e-01  3.19e-03  5.42e-02  1.05e-01  0.700   2.5
                               ***Turning on AO-DIIS***
    3    -50.2383157115376093    -6.33e-02  1.67e-03  4.41e-02  5.62e-02  0.700   2.0
    4    -50.2755497559647893    -3.72e-02  3.66e-03  1.13e-01  3.49e-02  0.000   1.7
    5    -50.3540274206244476    -7.85e-02  3.44e-04  8.38e-03  4.38e-03  0.000   2.0
                              *** Initializing SOSCF ***
---------------------------------------S-O-S-C-F--------------------------------------
Iteration    Energy (Eh)           Delta-E    RMSDP     MaxDP     MaxGrad    Time(sec)
--------------------------------------------------------------------------------------
    6    -50.3543562855382163    -3.29e-04  1.84e-04  3.66e-03  1.64e-03     2.2
               *** Restarting incremental Fock matrix formation ***
    7    -50.3543878551731154    -3.16e-05  1.28e-04  2.82e-03  1.12e-03     1.9
    8    -50.3544131252684224    -2.53e-05  9.83e-05  2.16e-03  5.10e-04     2.6
    9    -50.3544188318296904    -5.71e-06  2.63e-05  4.41e-04  1.57e-04     2.0
   10    -50.3544197934978399    -9.62e-07  5.71e-06  9.41e-05  1.89e-05     2.8
   11    -50.3544198181601246    -2.47e-08  2.14e-06  4.37e-05  1.22e-05     2.5
   12    -50.3544198294488012    -1.13e-08  8.50e-07  2.33e-05  3.67e-06     2.2
   13    -50.3544198253680122     4.08e-09  2.81e-07  8.56e-06  1.07e-06     1.9
                 **** Energy Check signals convergence ****

               *****************************************************
               *                     SUCCESS                       *
               *           SCF CONVERGED AFTER  13 CYCLES          *
               *****************************************************

Recomputing exchange energy using gridx3       ... done (    1.347 sec)
Old exchange energy                            :     -7.473766370 Eh
New exchange energy                            :     -7.473767722 Eh
Exchange energy change after final integration :     -0.000001352 Eh
Total energy after final integration           :    -50.354421177 Eh
             **** ENERGY FILE WAS UPDATED (./output/diallyl_sulfide/diallyl_sulfide.en.tmp) ****

----------------
TOTAL SCF ENERGY
----------------

Total Energy       :        -50.35442117731611 Eh           -1370.21346 eV

Components:
Nuclear Repulsion  :        148.02269320298731 Eh            4027.90226 eV
Electronic Energy  :       -198.37711302835532 Eh           -5398.11568 eV
One Electron Energy:       -367.77435840137861 Eh          -10007.64907 eV
Two Electron Energy:        169.39724537302328 Eh            4609.53339 eV

Virial components:
Potential Energy   :        -85.42177856020422 Eh           -2324.44477 eV
Kinetic Energy     :         35.06735738288810 Eh             954.23131 eV
Virial Ratio       :          2.43593429717312

DFT components:
N(Alpha)           :       20.000005629370 electrons
N(Beta)            :       20.000005629370 electrons
N(Total)           :       40.000011258740 electrons
E(X)               :       -7.416800252210 Eh       
E(C)               :       -1.453067712598 Eh       
E(XC)              :       -8.869867964808 Eh       

---------------
SCF CONVERGENCE
---------------

  Last Energy change         ...   -4.0808e-09  Tolerance :   1.0000e-08
  Last MAX-Density change    ...    8.5579e-06  Tolerance :   1.0000e-07
  Last RMS-Density change    ...    2.8072e-07  Tolerance :   5.0000e-09
  Last DIIS Error            ...    1.6447e-03  Tolerance :   5.0000e-07
  Last Orbital Gradient      ...    1.0665e-06  Tolerance :   1.0000e-05
  Last Orbital Rotation      ...    3.6987e-06  Tolerance :   1.0000e-05


----------------
ORBITAL ENERGIES
----------------

  NO   OCC          E(Eh)            E(eV) 
   0   2.0000      -0.972950       -26.4753 
   1   2.0000      -0.936660       -25.4878 
   2   2.0000      -0.882060       -24.0021 
   3   2.0000      -0.821240       -22.3471 
   4   2.0000      -0.749253       -20.3882 
   5   2.0000      -0.687266       -18.7015 
   6   2.0000      -0.676460       -18.4074 
   7   2.0000      -0.601992       -16.3810 
   8   2.0000      -0.592596       -16.1253 
   9   2.0000      -0.562557       -15.3080 
  10   2.0000      -0.546058       -14.8590 
  11   2.0000      -0.516588       -14.0571 
  12   2.0000      -0.512597       -13.9485 
  13   2.0000      -0.493920       -13.4403 
  14   2.0000      -0.472189       -12.8489 
  15   2.0000      -0.454526       -12.3683 
  16   2.0000      -0.424476       -11.5506 
  17   2.0000      -0.371991       -10.1224 
  18   2.0000      -0.361852        -9.8465 
  19   2.0000      -0.323300        -8.7974 
  20   0.0000       0.068765         1.8712 
  21   0.0000       0.079472         2.1626 
  22   0.0000       0.090470         2.4618 
  23   0.0000       0.094063         2.5596 
  24   0.0000       0.097573         2.6551 
  25   0.0000       0.112139         3.0515 
  26   0.0000       0.121939         3.3181 
  27   0.0000       0.128924         3.5082 
  28   0.0000       0.144269         3.9257 
  29   0.0000       0.157377         4.2824 
  30   0.0000       0.166362         4.5269 
*Only the first 10 virtual orbitals were printed.

                    ********************************
                    * MULLIKEN POPULATION ANALYSIS *
                    ********************************

-----------------------
MULLIKEN ATOMIC CHARGES
-----------------------
   0 C :   -0.052191
   1 C :   -0.023538
   2 C :   -0.153948
   3 S :    0.013512
   4 C :   -0.156485
   5 C :   -0.035481
   6 C :   -0.027602
   7 H :    0.032660
   8 H :    0.026377
   9 H :    0.025269
  10 H :    0.076811
  11 H :    0.049061
  12 H :    0.074401
  13 H :    0.069275
  14 H :    0.016345
  15 H :    0.031322
  16 H :    0.034214
Sum of atomic charges:    0.0000000

--------------------------------
MULLIKEN REDUCED ORBITAL CHARGES
--------------------------------
  0 C s       :     1.013217  s :     1.013217
      pz      :     1.002598  p :     2.973611
      px      :     0.990239
      py      :     0.980774
      dz2     :     0.008115  d :     0.065364
      dxz     :     0.005864
      dyz     :     0.026562
      dx2y2   :     0.008339
      dxy     :     0.016485

  1 C s       :     1.062581  s :     1.062581
      pz      :     0.959660  p :     2.864080
      px      :     0.935261
      py      :     0.969159
      dz2     :     0.016815  d :     0.096878
      dxz     :     0.009392
      dyz     :     0.031237
      dx2y2   :     0.015901
      dxy     :     0.023532

  2 C s       :     1.059330  s :     1.059330
      pz      :     1.010407  p :     2.992646
      px      :     0.923477
      py      :     1.058762
      dz2     :     0.020700  d :     0.101972
      dxz     :     0.020789
      dyz     :     0.021303
      dx2y2   :     0.015122
      dxy     :     0.024058

  3 S s       :     1.809657  s :     1.809657
      pz      :     1.787249  p :     4.046467
      px      :     1.040278
      py      :     1.218941
      dz2     :     0.015912  d :     0.130364
      dxz     :     0.021678
      dyz     :     0.012298
      dx2y2   :     0.037968
      dxy     :     0.042507

  4 C s       :     1.058811  s :     1.058811
      pz      :     1.091814  p :     2.996587
      px      :     0.975786
      py      :     0.928986
      dz2     :     0.018105  d :     0.101088
      dxz     :     0.016738
      dyz     :     0.023012
      dx2y2   :     0.019775
      dxy     :     0.023458

  5 C s       :     1.051928  s :     1.051928
      pz      :     0.975503  p :     2.888705
      px      :     0.922189
      py      :     0.991013
      dz2     :     0.019240  d :     0.094849
      dxz     :     0.022755
      dyz     :     0.011509
      dx2y2   :     0.021567
      dxy     :     0.019777

  6 C s       :     1.014321  s :     1.014321
      pz      :     0.990780  p :     2.947774
      px      :     0.986475
      py      :     0.970519
      dz2     :     0.015514  d :     0.065507
      dxz     :     0.013675
      dyz     :     0.009647
      dx2y2   :     0.018261
      dxy     :     0.008410

  7 H s       :     0.917700  s :     0.917700
      pz      :     0.018396  p :     0.049641
      px      :     0.017347
      py      :     0.013897

  8 H s       :     0.923427  s :     0.923427
      pz      :     0.022281  p :     0.050196
      px      :     0.014187
      py      :     0.013729

  9 H s       :     0.927621  s :     0.927621
      pz      :     0.021758  p :     0.047110
      px      :     0.012490
      py      :     0.012863

 10 H s       :     0.878742  s :     0.878742
      pz      :     0.010309  p :     0.044447
      px      :     0.014763
      py      :     0.019375

 11 H s       :     0.907186  s :     0.907186
      pz      :     0.019979  p :     0.043754
      px      :     0.010782
      py      :     0.012992

 12 H s       :     0.880875  s :     0.880875
      pz      :     0.013778  p :     0.044724
      px      :     0.014462
      py      :     0.016485

 13 H s       :     0.887205  s :     0.887205
      pz      :     0.022641  p :     0.043520
      px      :     0.009370
      py      :     0.011509

 14 H s       :     0.935682  s :     0.935682
      pz      :     0.021746  p :     0.047973
      px      :     0.010923
      py      :     0.015303

 15 H s       :     0.918824  s :     0.918824
      pz      :     0.022444  p :     0.049854
      px      :     0.011118
      py      :     0.016292

 16 H s       :     0.915883  s :     0.915883
      pz      :     0.012925  p :     0.049903
      px      :     0.024242
      py      :     0.012737



                     *******************************
                     * LOEWDIN POPULATION ANALYSIS *
                     *******************************

----------------------
LOEWDIN ATOMIC CHARGES
----------------------
   0 C :   -0.078077
   1 C :   -0.071108
   2 C :   -0.241434
   3 S :    0.372311
   4 C :   -0.235086
   5 C :   -0.076720
   6 C :   -0.061602
   7 H :    0.036172
   8 H :    0.032296
   9 H :    0.043472
  10 H :    0.046784
  11 H :    0.041153
  12 H :    0.036468
  13 H :    0.037946
  14 H :    0.040878
  15 H :    0.038403
  16 H :    0.038145

-------------------------------
LOEWDIN REDUCED ORBITAL CHARGES
-------------------------------
  0 C s       :     0.833331  s :     0.833331
      pz      :     1.031619  p :     3.027836
      px      :     0.947116
      py      :     1.049101
      dz2     :     0.027237  d :     0.216910
      dxz     :     0.017694
      dyz     :     0.093294
      dx2y2   :     0.030065
      dxy     :     0.048621

  1 C s       :     0.818997  s :     0.818997
      pz      :     0.992903  p :     2.936621
      px      :     0.893884
      py      :     1.049835
      dz2     :     0.055311  d :     0.315489
      dxz     :     0.030122
      dyz     :     0.104714
      dx2y2   :     0.055422
      dxy     :     0.069920

  2 C s       :     0.818827  s :     0.818827
      pz      :     1.044365  p :     3.095306
      px      :     0.981823
      py      :     1.069118
      dz2     :     0.065791  d :     0.327301
      dxz     :     0.066699
      dyz     :     0.066593
      dx2y2   :     0.049715
      dxy     :     0.078503

  3 S s       :     1.459599  s :     1.459599
      pz      :     1.707697  p :     4.010166
      px      :     1.044051
      py      :     1.258418
      dz2     :     0.020198  d :     0.157924
      dxz     :     0.026754
      dyz     :     0.015206
      dx2y2   :     0.044705
      dxy     :     0.051061

  4 C s       :     0.817227  s :     0.817227
      pz      :     1.095897  p :     3.090682
      px      :     0.998071
      py      :     0.996714
      dz2     :     0.061569  d :     0.327177
      dxz     :     0.051264
      dyz     :     0.069871
      dx2y2   :     0.064917
      dxy     :     0.079555

  5 C s       :     0.815514  s :     0.815514
      pz      :     1.007731  p :     2.950460
      px      :     0.996008
      py      :     0.946722
      dz2     :     0.061855  d :     0.310746
      dxz     :     0.072479
      dyz     :     0.040954
      dx2y2   :     0.068562
      dxy     :     0.066897

  6 C s       :     0.834570  s :     0.834570
      pz      :     1.014243  p :     3.010211
      px      :     1.052981
      py      :     0.942986
      dz2     :     0.051075  d :     0.216821
      dxz     :     0.041128
      dyz     :     0.037804
      dx2y2   :     0.058941
      dxy     :     0.027873

  7 H s       :     0.811159  s :     0.811159
      pz      :     0.055939  p :     0.152669
      px      :     0.052378
      py      :     0.044351

  8 H s       :     0.816069  s :     0.816069
      pz      :     0.063040  p :     0.151635
      px      :     0.045899
      py      :     0.042696

  9 H s       :     0.807218  s :     0.807218
      pz      :     0.065000  p :     0.149310
      px      :     0.042173
      py      :     0.042137

 10 H s       :     0.799572  s :     0.799572
      pz      :     0.042457  p :     0.153643
      px      :     0.050648
      py      :     0.060538

 11 H s       :     0.810535  s :     0.810535
      pz      :     0.063255  p :     0.148313
      px      :     0.036957
      py      :     0.048101

 12 H s       :     0.808087  s :     0.808087
      pz      :     0.049603  p :     0.155446
      px      :     0.048012
      py      :     0.057831

 13 H s       :     0.809691  s :     0.809691
      pz      :     0.070646  p :     0.152364
      px      :     0.038395
      py      :     0.043323

 14 H s       :     0.807876  s :     0.807876
      pz      :     0.063896  p :     0.151246
      px      :     0.038524
      py      :     0.048826

 15 H s       :     0.812405  s :     0.812405
      pz      :     0.062234  p :     0.149192
      px      :     0.039413
      py      :     0.047546

 16 H s       :     0.810124  s :     0.810124
      pz      :     0.043616  p :     0.151730
      px      :     0.065726
      py      :     0.042389



                      *****************************
                      * MAYER POPULATION ANALYSIS *
                      *****************************

  NA   - Mulliken gross atomic population
  ZA   - Total nuclear charge
  QA   - Mulliken gross atomic charge
  VA   - Mayer's total valence
  BVA  - Mayer's bonded valence
  FA   - Mayer's free valence

  ATOM       NA         ZA         QA         VA         BVA        FA
  0 C      4.0522     4.0000    -0.0522     3.9841     3.9841     0.0000
  1 C      4.0235     4.0000    -0.0235     4.0126     4.0126    -0.0000
  2 C      4.1539     4.0000    -0.1539     4.0050     4.0050     0.0000
  3 S      5.9865     6.0000     0.0135     1.9702     1.9702    -0.0000
  4 C      4.1565     4.0000    -0.1565     4.0013     4.0013    -0.0000
  5 C      4.0355     4.0000    -0.0355     4.0348     4.0348     0.0000
  6 C      4.0276     4.0000    -0.0276     3.9822     3.9822     0.0000
  7 H      0.9673     1.0000     0.0327     1.0403     1.0403     0.0000
  8 H      0.9736     1.0000     0.0264     1.0430     1.0430     0.0000
  9 H      0.9747     1.0000     0.0253     1.0489     1.0489    -0.0000
 10 H      0.9232     1.0000     0.0768     1.0213     1.0213     0.0000
 11 H      0.9509     1.0000     0.0491     1.0426     1.0426     0.0000
 12 H      0.9256     1.0000     0.0744     1.0035     1.0035    -0.0000
 13 H      0.9307     1.0000     0.0693     1.0122     1.0122    -0.0000
 14 H      0.9837     1.0000     0.0163     1.0525     1.0525     0.0000
 15 H      0.9687     1.0000     0.0313     1.0474     1.0474     0.0000
 16 H      0.9658     1.0000     0.0342     1.0394     1.0394     0.0000

  Mayer bond orders larger than 0.100000
B(  0-C ,  1-C ) :   1.9252 B(  0-C ,  7-H ) :   0.9999 B(  0-C ,  8-H ) :   0.9987 
B(  1-C ,  2-C ) :   1.0232 B(  1-C ,  9-H ) :   1.0038 B(  2-C ,  3-S ) :   0.9681 
B(  2-C , 10-H ) :   0.9959 B(  2-C , 11-H ) :   0.9964 B(  3-S ,  4-C ) :   0.9661 
B(  4-C ,  5-C ) :   1.0350 B(  4-C , 12-H ) :   0.9940 B(  4-C , 13-H ) :   0.9872 
B(  5-C ,  6-C ) :   1.9333 B(  5-C , 14-H ) :   1.0091 B(  6-C , 15-H ) :   0.9973 
B(  6-C , 16-H ) :   0.9995 

-------
TIMINGS
-------

Total SCF time: 0 days 0 hours 0 min 32 sec 

Total time                  ....      32.599 sec
Sum of individual times     ....      31.123 sec  ( 95.5%)

SCF preparation             ....       1.363 sec  (  4.2%)
Fock matrix formation       ....      28.301 sec  ( 86.8%)
  Startup                   ....       0.250 sec  (  0.9% of F)
  Split-RI-J                ....       0.726 sec  (  2.6% of F)
  Chain of spheres X        ....       9.414 sec  ( 33.3% of F)
  XC integration            ....      17.181 sec  ( 60.7% of F)
    XC Preparation          ....       0.000 sec  (  0.0% of XC)
    Basis function eval.    ....       0.248 sec  (  1.4% of XC)
    Density eval.           ....       0.070 sec  (  0.4% of XC)
    XC-Functional eval.     ....       0.127 sec  (  0.7% of XC)
    XC-Potential eval.      ....       0.100 sec  (  0.6% of XC)
Diagonalization             ....       0.000 sec  (  0.0%)
Density matrix formation    ....       0.251 sec  (  0.8%)
Total Energy calculation    ....       0.500 sec  (  1.5%)
Population analysis         ....       0.042 sec  (  0.1%)
Orbital Transformation      ....       0.044 sec  (  0.1%)
Orbital Orthonormalization  ....       0.000 sec  (  0.0%)
DIIS solution               ....       0.390 sec  (  1.2%)
SOSCF solution              ....       0.232 sec  (  0.7%)
Finished LeanSCF after  32.6 sec

Maximum memory used throughout the entire LEANSCF-calculation: 20.8 MB


           ************************************************************
           *        Program running with 40 parallel MPI-processes    *
           *              working on a common directory               *
           ************************************************************

------------------------------------------------------------------------------
                         ORCA PROPERTY INTEGRAL CALCULATIONS
------------------------------------------------------------------------------

GBWName                                   ... ./output/diallyl_sulfide/diallyl_sulfide.gbw
Number of atoms                           ...     17
Number of basis functions                 ...    141
Max core memory                           ...   1024 MB

Dipole integrals                          ... YES
Quadrupole integrals                      ...  NO
Linear momentum integrals                 ...  NO
Angular momentum integrals                ...  NO
Higher moments length integrals           ...  NO
Higher moments velocity integrals         ...  NO
Kinetic energy integrals                  ...  NO
GIAO right hand sides                     ...  NO
GIAO dipole derivative integrals          ...  NO
SOC integrals                             ...  NO
EPR diamagnetic integrals (GIAO)          ...  NO
EPR gauge integrals                       ...  NO
Field gradient integrals                  ...  NO (   0 nuclei)
Spin-dipole/Fermi contact integrals       ...  NO (   0 nuclei)
Contact density integrals                 ...  NO (   0 nuclei)
Nucleus-orbit integrals                   ...  NO (   0 nuclei)
Geometric perturbations                   ...  NO (  17 nuclei)

Choice of electric origin   ... Center of mass
Position of electric origin ... ( -0.0632,  0.7121, -0.2749) 
Choice of magnetic origin   ... GIAO
Position of magnetic origin ... (  0.0000,  0.0000,  0.0000) 

Calculating integrals                     ... Electric Dipole (Length)     done (  0.0 sec)

Property integrals calculated in   0.0 sec

Maximum memory used throughout the entire PROPINT-calculation: 10.5 MB


-------------------------------------------------------------------------------
                          DFT DISPERSION CORRECTION                            
                                                                               
                                DFTD4 V3.4.0                                   
-------------------------------------------------------------------------------
The wB97X-3c composite method is recognized
Using three-body term ABC
Active option DFTDOPT                   ...         5   

-------------------------   ----------------
Dispersion correction           -0.017713920
-------------------------   ----------------


-------------------------   --------------------
FINAL SINGLE POINT ENERGY       -50.372135097155
-------------------------   --------------------



           ************************************************************
           *        Program running with 40 parallel MPI-processes    *
           *              working on a common directory               *
           ************************************************************
------------------------------------------------------------------------------
                         ORCA SCF GRADIENT CALCULATION
------------------------------------------------------------------------------

Nuc. rep. gradient        (SHARK) ... done (  0.0 sec)
HCore & Overlap gradient  (SHARK) ... done (  0.0 sec)
ECP gradient              (SHARK) ... done (  0.2 sec)
Split-RIJ-J gradient      (SHARK) ... done (  0.2 sec)
COSX-gradient                     ... done (  2.5 sec)
XC gradient                       ... done (  0.9 sec)
Dispersion correction             ... done (  0.1 sec)

-------------------
DISPERSION GRADIENT
-------------------

   1   C   :    0.000461811   -0.000451080   -0.000076456
   2   C   :    0.000533061   -0.000061044   -0.000132436
   3   C   :    0.000262524    0.000282536    0.000233763
   4   S   :    0.000090910    0.000857609   -0.000048716
   5   C   :   -0.000276113   -0.000228216    0.000000487
   6   C   :   -0.000387646   -0.000206106   -0.000135728
   7   C   :   -0.000566340    0.000048228    0.000091562
   8   H   :    0.000056302   -0.000077119   -0.000033004
   9   H   :    0.000107642   -0.000137200    0.000015980
  10   H   :    0.000120601    0.000002788   -0.000097484
  11   H   :    0.000061304    0.000107534    0.000058660
  12   H   :    0.000074815    0.000049816    0.000131571
  13   H   :   -0.000119221   -0.000105160   -0.000072223
  14   H   :   -0.000086975   -0.000091034    0.000088250
  15   H   :   -0.000087145   -0.000055774   -0.000082470
  16   H   :   -0.000149299    0.000041230    0.000057489
  17   H   :   -0.000096230    0.000022991    0.000000755

Difference to translation invariance:
           :   -0.0000000000    0.0000000000    0.0000000000

Difference to rotation invariance:
           :   -0.0000000000   -0.0000000000    0.0000000000

Norm of the Dispersion gradient    ...    0.0016019596
RMS gradient                       ...    0.0002243192
MAX gradient                       ...    0.0008576094

------------------
CARTESIAN GRADIENT
------------------

   1   C   :    0.001333648   -0.012966101    0.006852173
   2   C   :   -0.000689918    0.018910752   -0.013974760
   3   C   :   -0.011881491   -0.007302781    0.001948396
   4   S   :   -0.001735732    0.009777464   -0.010221448
   5   C   :   -0.001436879    0.012838674    0.006098272
   6   C   :    0.011843384   -0.010014611   -0.013548159
   7   C   :   -0.006107994    0.009600902    0.010817291
   8   H   :    0.001108960    0.001362130   -0.003303612
   9   H   :   -0.001387212    0.000093358    0.002172643
  10   H   :    0.002504230   -0.002613010   -0.002888983
  11   H   :    0.010931113    0.007173580    0.002116523
  12   H   :   -0.001668433   -0.007062282    0.013292721
  13   H   :    0.003039683   -0.009850062   -0.010572127
  14   H   :   -0.002796595   -0.006545390    0.012637679
  15   H   :   -0.003236460   -0.001920854   -0.000545104
  16   H   :    0.001953633    0.000152904    0.002028377
  17   H   :   -0.001773934   -0.001634672   -0.002909882

Difference to translation invariance:
           :   -0.0000000000    0.0000000000   -0.0000000000

Difference to rotation invariance:
           :   -0.0000557523    0.0001529568   -0.0000144635

Norm of the Cartesian gradient     ...    0.0543903506
RMS gradient                       ...    0.0076161725
MAX gradient                       ...    0.0189107520

-------
TIMINGS
-------

Total SCF gradient time     ....        3.898 sec

Densities                   ....       0.001 sec  (  0.0%)
One electron gradient       ....       0.024 sec  (  0.6%)
RI-J Coulomb gradient       ....       0.215 sec  (  5.5%)
COSX gradient               ....       2.520 sec  ( 64.6%)
XC gradient                 ....       0.891 sec  ( 22.9%)

Maximum memory used throughout the entire SCFGRAD-calculation: 30.4 MB
------------------------------------------------------------------------------
                         ORCA GEOMETRY RELAXATION STEP
------------------------------------------------------------------------------

Reading the OPT-File                    .... done
Getting information on internals        .... done
Copying old internal coords+grads       .... done
Making the new internal coordinates     .... (2022 redundants) done
Validating the new internal coordinates .... (2022 redundants) done
Calculating the B-matrix                .... done
Calculating the G,G- and P matrices     .... done
Transforming gradient to internals      .... done
Projecting the internal gradient        .... done
Number of atoms                         ....  17
Number of internal coordinates          ....  65
Current Energy                          ....   -50.372135097 Eh
Current gradient norm                   ....     0.054390351 Eh/bohr
Maximum allowed component of the step   ....  0.300
Current trust radius                    ....  0.300
Evaluating the initial hessian          ....  (Almloef) done
Projecting the Hessian                  .... done
Forming the augmented Hessian           .... done
Diagonalizing the augmented Hessian     .... done
Last element of RFO vector              ....  0.958738398
Lowest eigenvalues of augmented Hessian:
 -0.005974624  0.003333954  0.003935256  0.012716260  0.012985974
Length of the computed step             ....  0.296524881
The final length of the internal step   ....  0.296524881
Converting the step to Cartesian space:
 Initial RMS(Int)=    0.0367793850
Transforming coordinates:
 Iter   0:  RMS(Cart)=    0.0959394764 RMS(Int)=    1.3402835038
 Iter   5:  RMS(Cart)=    0.0000014253 RMS(Int)=    0.0000005325
done
Storing new coordinates                 .... done

                                .--------------------.
          ----------------------|Geometry convergence|-------------------------
          Item                value                   Tolerance       Converged
          ---------------------------------------------------------------------
          RMS gradient        0.0055029286            0.0001000000      NO
          MAX gradient        0.0150924967            0.0003000000      NO
          RMS step            0.0367793850            0.0020000000      NO
          MAX step            0.1244635713            0.0040000000      NO
          ........................................................
          Max(Bonds)      0.0236      Max(Angles)    2.13
          Max(Dihed)        7.13      Max(Improp)    0.00
          ---------------------------------------------------------------------

The optimization has not yet converged - more geometry cycles are needed


    ---------------------------------------------------------------------------
                         Redundant Internal Coordinates
                            (Angstroem and degrees)

        Definition                    Value    dE/dq     Step     New-Value
    ----------------------------------------------------------------------------
     1. B(C   1,C   0)                1.3360  0.012147 -0.0084    1.3276   
     2. B(C   2,C   1)                1.5017  0.006464 -0.0081    1.4936   
     3. B(S   3,C   2)                1.8251  0.003400 -0.0052    1.8199   
     4. B(C   4,S   3)                1.8272  0.006100 -0.0094    1.8178   
     5. B(C   5,C   4)                1.4997 -0.001488  0.0019    1.5015   
     6. B(C   6,C   5)                1.3361  0.013345 -0.0092    1.3269   
     7. B(H   7,C   0)                1.0851  0.002187 -0.0031    1.0820   
     8. B(H   8,C   0)                1.0857  0.002152 -0.0031    1.0827   
     9. B(H   9,C   1)                1.0860  0.001996 -0.0028    1.0831   
    10. B(H  10,C   2)                1.1096  0.012200 -0.0189    1.0907   
    11. B(H  11,C   2)                1.1117  0.015092 -0.0236    1.0881   
    12. B(H  12,C   4)                1.1101  0.014053 -0.0218    1.0882   
    13. B(H  13,C   4)                1.1111  0.014051 -0.0219    1.0892   
    14. B(H  14,C   5)                1.0860  0.002257 -0.0032    1.0828   
    15. B(H  15,C   6)                1.0859  0.002255 -0.0032    1.0827   
    16. B(H  16,C   6)                1.0851  0.002561 -0.0036    1.0815   
    17. A(H   7,C   0,H   8)          118.86  0.003035   -0.54    118.32   
    18. A(C   1,C   0,H   7)          119.95 -0.003184    0.53    120.48   
    19. A(C   1,C   0,H   8)          121.19  0.000148    0.01    121.20   
    20. A(C   0,C   1,H   9)          119.20 -0.000335    0.15    119.35   
    21. A(C   0,C   1,C   2)          121.93 -0.007884    1.14    123.07   
    22. A(C   2,C   1,H   9)          118.86  0.008223   -1.30    117.57   
    23. A(S   3,C   2,H  11)          110.34  0.003167   -0.72    109.62   
    24. A(C   1,C   2,H  11)          112.09  0.004260   -0.77    111.32   
    25. A(S   3,C   2,H  10)          108.20  0.006414   -1.04    107.15   
    26. A(C   1,C   2,H  10)          108.33 -0.004129    1.19    109.52   
    27. A(C   1,C   2,S   3)          110.21 -0.008797    1.42    111.62   
    28. A(H  10,C   2,H  11)          107.54 -0.000692   -0.09    107.45   
    29. A(C   2,S   3,C   4)           95.75 -0.014700    2.13     97.88   
    30. A(H  12,C   4,H  13)          108.73  0.000815   -0.30    108.43   
    31. A(S   3,C   4,H  13)          110.33  0.003968   -0.97    109.35   
    32. A(C   5,C   4,H  12)          108.80 -0.004280    1.10    109.91   
    33. A(S   3,C   4,H  12)          109.29  0.002468   -0.47    108.82   
    34. A(C   5,C   4,H  13)          109.59 -0.002605    0.53    110.12   
    35. A(S   3,C   4,C   5)          110.07 -0.000451    0.13    110.20   
    36. A(C   6,C   5,H  14)          119.23  0.001536   -0.14    119.10   
    37. A(C   4,C   5,C   6)          121.60 -0.007805    1.14    122.74   
    38. A(C   4,C   5,H  14)          119.14  0.006225   -0.95    118.19   
    39. A(H  15,C   6,H  16)          119.03  0.003006   -0.53    118.49   
    40. A(C   5,C   6,H  16)          120.03 -0.002683    0.45    120.48   
    41. A(C   5,C   6,H  15)          120.94 -0.000323    0.09    121.02   
    42. D(H   9,C   1,C   0,H   8)   -179.38 -0.000021    0.00   -179.38   
    43. D(C   2,C   1,C   0,H   8)     -0.19  0.000389   -0.44     -0.63   
    44. D(H   9,C   1,C   0,H   7)      0.37 -0.000338    0.38      0.75   
    45. D(C   2,C   1,C   0,H   7)    179.56  0.000072   -0.06    179.50   
    46. D(H  10,C   2,C   1,C   0)    124.64 -0.000492    0.29    124.93   
    47. D(H  11,C   2,C   1,C   0)      6.15  0.000467    0.10      6.25   
    48. D(S   3,C   2,C   1,C   0)   -117.16 -0.000232    0.55   -116.61   
    49. D(H  10,C   2,C   1,H   9)    -56.17 -0.000150   -0.14    -56.31   
    50. D(S   3,C   2,C   1,H   9)     62.03  0.000110    0.11     62.14   
    51. D(C   4,S   3,C   2,H  11)    -47.44  0.002123   -6.63    -54.07   
    52. D(C   4,S   3,C   2,H  10)   -164.84 -0.002595   -5.51   -170.35   
    53. D(C   4,S   3,C   2,C   1)     76.88  0.003608   -7.13     69.75   
    54. D(H  13,C   4,S   3,C   2)     57.20  0.001079    5.09     62.30   
    55. D(H  12,C   4,S   3,C   2)    -62.30 -0.003890    6.35    -55.95   
    56. D(C   5,C   4,S   3,C   2)    178.26  0.000109    5.21    183.47   
    57. D(H  14,C   5,C   4,H  12)     -6.73  0.000904   -2.87     -9.60   
    58. D(H  14,C   5,C   4,S   3)    113.00  0.001018   -2.69    110.31   
    59. D(C   6,C   5,C   4,H  13)     52.76  0.002305   -1.45     51.31   
    60. D(C   6,C   5,C   4,H  12)    171.53 -0.000767   -0.85    170.68   
    61. D(C   6,C   5,C   4,S   3)    -68.75 -0.000653   -0.66    -69.41   
    62. D(H  16,C   6,C   5,H  14)     -0.92 -0.000604    0.77     -0.14   
    63. D(H  16,C   6,C   5,C   4)   -179.17  0.000988   -1.24   -180.41   
    64. D(H  15,C   6,C   5,H  14)    179.02 -0.001218    1.51    180.54   
    65. D(H  15,C   6,C   5,C   4)      0.77  0.000374   -0.50      0.27   
    ----------------------------------------------------------------------------

Geometry step timings:
Preparation and reading OPT file:      0.001 s ( 4.612 %)
Internal coordinates            :      0.000 s ( 0.603 %)
B/P matrices and projection     :      0.001 s ( 8.674 %)
Hessian update/contruction      :      0.005 s (47.911 %)
Making the step                 :      0.001 s (10.093 %)
Converting the step to Cartesian:      0.000 s ( 2.129 %)
Storing new data                :      0.000 s ( 1.073 %)
Checking convergence            :      0.000 s ( 0.080 %)
Final printing                  :      0.003 s (24.701 %)
Total time                      :      0.011 s

Time for energy+gradient        :     42.792 s
Time for complete geometry iter :     43.215 s

[...]
      8      -0.005107  -0.000250  -0.000049
      9       0.000050  -0.000005   0.000005
     10      -0.000019  -0.000012   0.000003
     11       0.000026   0.000013  -0.000007
     12       0.002643  -0.000098  -0.000779
     13      -0.001812   0.000181   0.000204
     14      -0.004050   0.000110   0.000628
     15       0.004333  -0.000012  -0.001122
     16       0.002842  -0.000011  -0.000849
     17      -0.036995  -0.000034   0.010890
     18      -0.007029   0.000226   0.051741
     19      -0.000163  -0.000050  -0.011152
     20       0.010193   0.000384   0.083651
     21      -0.017439  -0.278700   0.001200
     22       0.030304   0.482165  -0.002089
     23       0.035298   0.540045  -0.002336
     24       0.036464  -0.098144   0.000409
     25       0.084690  -0.240339   0.001043
     26      -0.203258   0.554486  -0.002402
     27      -0.141062  -0.018873   0.000122
     28      -0.305907  -0.042208   0.000264
     29       0.783179   0.105625  -0.000658
     30      -0.048442  -0.002695  -0.000094
     31      -0.072025  -0.005020  -0.000126
     32      -0.007711  -0.000081  -0.000027
     33      -0.005248  -0.001401  -0.000124
     34      -0.031917  -0.001506  -0.000187
     35       0.075448   0.009413   0.000359
     36      -0.020909   0.001326   0.003508
     37       0.028076  -0.001910  -0.003700
     38       0.013671  -0.001553  -0.002600
     39      -0.005001  -0.000230  -0.001113
     40      -0.006568   0.000144   0.001955
     41       0.036389   0.000076  -0.009694
     42      -0.018105   0.000065   0.005620
     43      -0.036193  -0.000052   0.009305
     44       0.420068   0.000364  -0.108883
     45       0.008236   0.000210   0.050178
     46       0.009234   0.000200   0.044444
     47      -0.125415  -0.002889  -0.624253
     48       0.036594  -0.002771  -0.652112
     49      -0.005099   0.000396   0.088460
     50       0.022678  -0.001671  -0.388194


-----------
IR SPECTRUM
-----------

 Mode   freq       eps      Int      T**2         TX        TY        TZ
       cm**-1   L/(mol*cm) km/mol    a.u.
----------------------------------------------------------------------------
  6:     48.05   0.000027    0.14  0.000178  (-0.012650 -0.001635 -0.003971)
  7:     67.41   0.000045    0.23  0.000207  (-0.002822  0.011423  0.008252)
  8:     92.54   0.000170    0.86  0.000573  ( 0.009728 -0.015743 -0.015197)
  9:    118.59   0.000350    1.77  0.000921  (-0.015417 -0.001477  0.026099)
 10:    201.99   0.000028    0.14  0.000043  ( 0.002496  0.005532 -0.002519)
 11:    285.63   0.000453    2.29  0.000495  ( 0.006999 -0.018037 -0.010988)
 12:    337.89   0.000621    3.14  0.000574  (-0.023492 -0.003614  0.002955)
 13:    420.50   0.000103    0.52  0.000076  ( 0.001403  0.008581  0.000761)
 14:    429.11   0.000329    1.66  0.000239  ( 0.015308 -0.000158 -0.002225)
 15:    610.85   0.000656    3.31  0.000335  (-0.013221  0.011969  0.004119)
 16:    634.76   0.002416   12.21  0.001188  ( 0.020771  0.026615  0.006944)
 17:    790.04   0.001555    7.86  0.000614  (-0.021436  0.012340 -0.001545)
 18:    815.31   0.001934    9.77  0.000740  ( 0.019484  0.018975  0.000755)
 19:    902.67   0.000939    4.74  0.000325  (-0.002591  0.007849 -0.016008)
 20:    923.87   0.001426    7.21  0.000482  ( 0.021628  0.002200 -0.003004)
 21:    966.63   0.009121   46.09  0.002945  ( 0.051754  0.007515  0.014479)
 22:    970.82   0.009514   48.08  0.003058  (-0.012836 -0.053475 -0.005807)
 23:    974.34   0.000892    4.51  0.000286  (-0.013293  0.008710  0.005755)
 24:    989.43   0.000601    3.04  0.000189  (-0.002002 -0.013593  0.000823)
 25:   1045.74   0.002349   11.87  0.000701  ( 0.004935  0.025838  0.003006)
 26:   1046.58   0.003050   15.41  0.000909  ( 0.028178  0.007904  0.007277)
 27:   1115.37   0.000537    2.71  0.000150  (-0.010753 -0.004681 -0.003549)
 28:   1130.98   0.000170    0.86  0.000047  (-0.004106  0.003803  0.003935)
 29:   1254.91   0.001421    7.18  0.000353  ( 0.018575 -0.002835 -0.000544)
 30:   1261.47   0.000541    2.73  0.000134  ( 0.011524 -0.000597  0.000804)
 31:   1295.31   0.002615   13.22  0.000630  ( 0.024439 -0.002565  0.005113)
 32:   1300.81   0.001942    9.81  0.000466  (-0.007935 -0.018575  0.007606)
 33:   1347.88   0.000051    0.26  0.000012  ( 0.003016  0.000437 -0.001553)
 34:   1349.85   0.000103    0.52  0.000024  (-0.001147  0.002190  0.004216)
 35:   1467.97   0.000897    4.53  0.000191  ( 0.001179  0.013194  0.003911)
 36:   1472.74   0.001108    5.60  0.000235  ( 0.012546  0.000521 -0.008784)
 37:   1501.40   0.002989   15.11  0.000621  (-0.010690  0.007023 -0.021395)
 38:   1519.47   0.000511    2.58  0.000105  ( 0.001803 -0.005995  0.008108)
 39:   1763.88   0.002527   12.77  0.000447  (-0.007646  0.019712  0.000246)
 40:   1769.52   0.002919   14.75  0.000515  (-0.022345  0.000021  0.003928)
 41:   3120.13   0.002529   12.78  0.000253  (-0.004456 -0.011780  0.009714)
 42:   3124.20   0.002550   12.89  0.000255  ( 0.009658  0.004228  0.011982)
 43:   3187.22   0.000885    4.47  0.000087  ( 0.003603 -0.003712  0.007739)
 44:   3189.82   0.000002    0.01  0.000000  (-0.000096 -0.000265 -0.000329)
 45:   3205.80   0.001114    5.63  0.000108  ( 0.001671 -0.007983  0.006479)
 46:   3209.68   0.001133    5.72  0.000110  (-0.006503 -0.000275  0.008232)
 47:   3231.76   0.000592    2.99  0.000057  (-0.006214 -0.001293 -0.004108)
 48:   3231.85   0.001074    5.43  0.000104  ( 0.002155  0.001399 -0.009855)
 49:   3306.61   0.000685    3.46  0.000065  ( 0.003020 -0.001148 -0.007361)
 50:   3310.28   0.000680    3.44  0.000064  ( 0.003995 -0.000854  0.006887)

* The epsilon (eps) is given for a Dirac delta lineshape.
** The dipole moment derivative (T) already includes vibrational overlap.

The first frequency considered to be a vibration is 6
The total number of vibrations considered is 45


--------------------------
THERMOCHEMISTRY AT 298.15K
--------------------------

Temperature         ...   298.15 K
Pressure            ...     1.00 atm
Total Mass          ...   114.21 AMU
Quasi RRHO          ...     True
Cut-Off Frequency   ...     1.00 cm^-1

Throughout the following assumptions are being made:
  (1) The electronic state is orbitally nondegenerate
  (2) There are no thermally accessible electronically excited states
  (3) Hindered rotations indicated by low frequency modes are not
      treated as such but are treated as vibrations and this may
      cause some error
  (4) All equations used are the standard statistical mechanics
      equations for an ideal gas
  (5) All vibrations are strictly harmonic

freq.      48.05  E(vib)   ...       0.53 
freq.      67.41  E(vib)   ...       0.50 
freq.      92.54  E(vib)   ...       0.47 
freq.     118.59  E(vib)   ...       0.44 
freq.     201.99  E(vib)   ...       0.35 
freq.     285.63  E(vib)   ...       0.28 
freq.     337.89  E(vib)   ...       0.24 
freq.     420.50  E(vib)   ...       0.18 
freq.     429.11  E(vib)   ...       0.18 
freq.     610.85  E(vib)   ...       0.10 
freq.     634.76  E(vib)   ...       0.09 
freq.     790.04  E(vib)   ...       0.05 
freq.     815.31  E(vib)   ...       0.05 
freq.     902.67  E(vib)   ...       0.03 
freq.     923.87  E(vib)   ...       0.03 
freq.     966.63  E(vib)   ...       0.03 
freq.     970.82  E(vib)   ...       0.03 
freq.     974.34  E(vib)   ...       0.03 
freq.     989.43  E(vib)   ...       0.02 
freq.    1045.74  E(vib)   ...       0.02 
freq.    1046.58  E(vib)   ...       0.02 
freq.    1115.37  E(vib)   ...       0.01 
freq.    1130.98  E(vib)   ...       0.01 
freq.    1254.91  E(vib)   ...       0.01 
freq.    1261.47  E(vib)   ...       0.01 
freq.    1295.31  E(vib)   ...       0.01 
freq.    1300.81  E(vib)   ...       0.01 
freq.    1347.88  E(vib)   ...       0.01 
freq.    1349.85  E(vib)   ...       0.01 
freq.    1467.97  E(vib)   ...       0.00 
freq.    1472.74  E(vib)   ...       0.00 
freq.    1501.40  E(vib)   ...       0.00 
freq.    1519.47  E(vib)   ...       0.00 
freq.    1763.88  E(vib)   ...       0.00 
freq.    1769.52  E(vib)   ...       0.00 
freq.    3120.13  E(vib)   ...       0.00 
freq.    3124.20  E(vib)   ...       0.00 
freq.    3187.22  E(vib)   ...       0.00 
freq.    3189.82  E(vib)   ...       0.00 
freq.    3205.80  E(vib)   ...       0.00 
freq.    3209.68  E(vib)   ...       0.00 
freq.    3231.76  E(vib)   ...       0.00 
freq.    3231.85  E(vib)   ...       0.00 
freq.    3306.61  E(vib)   ...       0.00 
freq.    3310.28  E(vib)   ...       0.00 

------------
INNER ENERGY
------------

The inner energy is: U= E(el) + E(ZPE) + E(vib) + E(rot) + E(trans)
    E(el)   - is the total energy from the electronic structure calculation
              = E(kin-el) + E(nuc-el) + E(el-el) + E(nuc-nuc)
    E(ZPE)  - the the zero temperature vibrational energy from the frequency calculation
    E(vib)  - the the finite temperature correction to E(ZPE) due to population
              of excited vibrational states
    E(rot)  - is the rotational thermal energy
    E(trans)- is the translational thermal energy

Summary of contributions to the inner energy U:
Electronic energy                ...    -50.37918025 Eh
Zero point energy                ...      0.14658110 Eh      91.98 kcal/mol
Thermal vibrational correction   ...      0.00594435 Eh       3.73 kcal/mol
Thermal rotational correction    ...      0.00141627 Eh       0.89 kcal/mol
Thermal translational correction ...      0.00141627 Eh       0.89 kcal/mol
-----------------------------------------------------------------------
Total thermal energy                    -50.22382226 Eh


Summary of corrections to the electronic energy:
(perhaps to be used in another calculation)
Total thermal correction                  0.00877689 Eh       5.51 kcal/mol
Non-thermal (ZPE) correction              0.14658110 Eh      91.98 kcal/mol
-----------------------------------------------------------------------
Total correction                          0.15535800 Eh      97.49 kcal/mol


--------
ENTHALPY
--------

The enthalpy is H = U + kB*T
                kB is Boltzmann's constant
Total thermal energy              ...    -50.22382226 Eh 
Thermal Enthalpy correction       ...      0.00094421 Eh       0.59 kcal/mol
-----------------------------------------------------------------------
Total Enthalpy                    ...    -50.22287805 Eh


Note: Only C1 symmetry has been detected, increase convergence thresholds 
      if your molecule has a higher symmetry. Symmetry factor of 1.0 is   
      used for the rotational entropy correction. 
 

Note: Rotational entropy computed according to Herzberg 
Infrared and Raman Spectra, Chapter V,1, Van Nostrand Reinhold, 1945 
Point Group:  C1, Symmetry Number:   1  
Rotational constants in cm-1:     0.144076     0.035921     0.030879 

Vibrational entropy computed according to the QRRHO of S. Grimme
Chem.Eur.J. 2012 18 9955 using a reference frequency of 100.0 cm-1


-------
ENTROPY
-------

The entropy contributions are T*S = T*(S(el)+S(vib)+S(rot)+S(trans))
     S(el)   - electronic entropy
     S(vib)  - vibrational entropy
     S(rot)  - rotational entropy
     S(trans)- translational entropy
The entropies will be listed as multiplied by the temperature to get
units of energy

Electronic entropy                ...      0.00000000 Eh      0.00 kcal/mol
Vibrational entropy               ...      0.01057882 Eh      6.64 kcal/mol
Rotational entropy                ...      0.01363761 Eh      8.56 kcal/mol
Translational entropy             ...      0.01905937 Eh     11.96 kcal/mol
-----------------------------------------------------------------------
Final entropy term                ...      0.04327580 Eh     27.16 kcal/mol

In case the symmetry of your molecule has not been determined correctly
or in case you have a reason to use a different symmetry number we print 
out the resulting rotational entropy values for sn=1,12:

 non-linear molecules -----------------------------------
|  sn= 1 | S(rot)=       0.01363761 Eh      8.56 kcal/mol|
|  sn= 2 | S(rot)=       0.01298315 Eh      8.15 kcal/mol|
|  sn= 3 | S(rot)=       0.01260032 Eh      7.91 kcal/mol|
|  sn= 4 | S(rot)=       0.01232869 Eh      7.74 kcal/mol|
|  sn= 5 | S(rot)=       0.01211801 Eh      7.60 kcal/mol|
|  sn= 6 | S(rot)=       0.01194586 Eh      7.50 kcal/mol|
|  sn= 7 | S(rot)=       0.01180032 Eh      7.40 kcal/mol|
|  sn= 8 | S(rot)=       0.01167424 Eh      7.33 kcal/mol|
|  sn= 9 | S(rot)=       0.01156303 Eh      7.26 kcal/mol|
|  sn=10 | S(rot)=       0.01146355 Eh      7.19 kcal/mol|
|  sn=11 | S(rot)=       0.01137356 Eh      7.14 kcal/mol|
|  sn=12 | S(rot)=       0.01129141 Eh      7.09 kcal/mol|
 linear molecules ---------------------------------------
|  Dinfh | S(rot)=       0.00860937 Eh      5.40 kcal/mol|
|  Cinfv | S(rot)=       0.00926382 Eh      5.81 kcal/mol|
 --------------------------------------------------------


-------------------
GIBBS FREE ENERGY
-------------------

The Gibbs free energy is G = H - T*S

Total enthalpy                    ...    -50.22287805 Eh 
Total entropy correction          ...     -0.04327580 Eh    -27.16 kcal/mol
-----------------------------------------------------------------------
Final Gibbs free energy         ...    -50.26615385 Eh

For completeness - the Gibbs free energy minus the electronic energy
G-E(el)                           ...      0.11302641 Eh     70.92 kcal/mol


Maximum memory used throughout the entire PROP-calculation: 56.1 MB

--------------------------------
SUGGESTED CITATIONS FOR THIS RUN
--------------------------------

Below you find a list of papers that are relevant to this ORCA run
We neither can nor want to force you to cite these papers, but we appreciate if you do
You receive ORCA, which is the product of decades of hard work by many enthusiastic individuals, for free
The only thing we kindly ask in return is that you cite our papers,
We deeply appreciate it, if you show your appreciation for ORCA by not just citing the generic ORCA reference.

Please note that relegating all ORCA citations to the supporting information does *not* help us.
SI sections are not indexed - citations you put there will not count into any citation statistics
But we need these citations in order to attract the funding resources that allow us to do what we are doing

Therefore, if you are a happy ORCA user, please consider citing a few of the papers listed below in the main body of your paper

In addition to the list printed below, the program has created the file ./output/diallyl_sulfide/diallyl_sulfide.bibtex that contains the list in bibtex format
You can import this file easily into all common literature databanks and citation aid programs


List of essential papers. We consider these as the minimum necessary citations

  1. Neese,F.
     Software update: the ORCA program system, version 5.0
     WIRES Comput. Molec. Sci., 2022 12(1)e1606
     doi.org/10.1002/wcms.1606
  2. Mueller,M.; Hansen,A.; Grimme,S.
     wB97X-3c: A composite range-separated hybrid DFT method with a molecule-optimized polarized valence double-zeta basis set
     J. Chem. Phys., 2023 158 014103
     doi.org/10.1063/5.0133026

List of papers to cite with high priority. The work reported in these papers was absolutely
necessary for this run to complete.
Our perspective: the developers of density functionals and basis sets usually get cited in chemistry papers
Good! But without the algorithms to do something with them, the functionals or basis sets would not do anything.
Hence, in our opinion, the algorithm design and method developments papers are equally worthy of getting cited

  1. Neese,F.
     An improvement of the resolution of the identity approximation for the formation of the Coulomb matrix
     J. Comp. Chem., 2003 24(14)1740-1747
     doi.org/10.1002/jcc.10318
  2. Neese,F.; Wennmohs,F.; Hansen,A.; Becker,U.
     Efficient, approximate and parallel Hartree-Fock and hybrid DFT calculations. A 'chain-of-spheres' algorithm for the Hartree-Fock exchange
     Chem. Phys., 2009 356(1-3)98-109
     doi.org/10.1016/j.chemphys.2008.10.036
  3. Bykov,D.; Petrenko,T.; Izsak,R.; Kossmann,S.; Becker,U.; Valeev,E.; Neese,F.
     Efficient implementation of the analytic second derivatives of Hartree-Fock and hybrid DFT energies: a detailed analysis of different approximations
     Molec. Phys., 2015 113 1961-1977
     doi.org/10.1080/00268976.2015.1025114
  4. Helmich-Paris,B.; de Souza,B.; Neese,F.; Izsák,R.
     An improved chain of spheres for exchange algorithm
     J. Chem. Phys., 2021 155 104109
     doi.org/doi: 10.1063/5.0058766.
  5. Neese,F.
     The SHARK Integral Generation and Digestion System
     J. Comp. Chem., 2022  1-16
     doi.org/10.1002/jcc.26942
  6. Caldeweyher,E.; Bannwarth,C.; Grimme,S.
     Extension of the D3 dispersion coefficient model
     J. Chem. Phys., 2017 147 034112
     doi.org/10.1063/1.4993215
  7. Caldeweyher,E.; Ehlert,S.; Hansen,A.; Neugebauer,H.; Spicher,S.; Bannwarth,C.; Grimme,S.
     A generally applicable atomic-charge dependent London dispersion correction
     J. Chem. Phys., 2019 150 154122
     doi.org/10.1063/1.5090222
  8. Caldeweyher,E.; Mewes,J.; Ehlert,S.; Grimme,S.
     Extension and evaluation of the D4 London-dispersion model for periodic systems
     Phys. Chem. Chem. Phys., 2020 22(16)8499-8512
     doi.org/10.1039/D0CP00502A
  9. Wittmann,L.; Gordiy,I.; Friede,M.; Helmich-Paris,B.; Grimme,S.; Hansen,A.; Bursch,M.
     Extension of the D3 and D4 London Dispersion Corrections to the full Actinides Series
     Phys. Chem. Chem. Phys., 2024 26(32)21379-21394
     doi.org/https://doi.org/10.1039/D4CP01514B 

List of suggested additional citations. These are papers that are important in the 'surrounding' of 
of this run, or papers that preceded the highly important papers. If you like your results we are grateful for a citation.

  1. Izsak,R.; Neese,F.
     An overlap fitted chain of spheres exchange method
     J. Chem. Phys., 2011 135 144105
     doi.org/10.1063/1.3646921
  2. Izsak,R.; Hansen,A.; Neese,F.
     The resolution of identity and chain of spheres approximations for the LPNO-CCSD singles Fock term
     Molec. Phys., 2012 110 2413-2417
     doi.org/10.1080/00268976.2012.687466
  3. Neese,F.
     The ORCA program system
     WIRES Comput. Molec. Sci., 2012 2(1)73-78
     doi.org/10.1002/wcms.81
  4. Izsak,R.; Neese,F.; Klopper,W.
     Robust fitting techniques in the chain of spheres approximation to the Fock exchange: The role of the complementary space
     J. Chem. Phys., 2013 139 
     doi.org/10.1063/1.4819264
  5. Neese,F.
     Software update: the ORCA program system, version 4.0
     WIRES Comput. Molec. Sci., 2018 8(1)1-6
     doi.org/10.1002/wcms.1327
  6. Neese,F.; Wennmohs,F.; Becker,U.; Riplinger,C.
     The ORCA quantum chemistry program package
     J. Chem. Phys., 2020 152 Art. No. L224108
     doi.org/10.1063/5.0004608

List of optional additional citations

  1. Neese,F.
     Approximate second-order SCF convergence for spin unrestricted wavefunctions
     Chem. Phys. Lett., 2000 325(1-3)93-98
     doi.org/10.1016/s0009-2614(00)00662-x

Timings for individual modules:

Sum of individual times          ...      446.992 sec (=   7.450 min)
Startup calculation              ...       33.202 sec (=   0.553 min)   7.4 %
SCF iterations                   ...      296.231 sec (=   4.937 min)  66.3 %
Property integrals               ...       21.418 sec (=   0.357 min)   4.8 %
SCF Response                     ...       18.611 sec (=   0.310 min)   4.2 %
Property calculations            ...       29.879 sec (=   0.498 min)   6.7 %
SCF Gradient evaluation          ...       47.510 sec (=   0.792 min)  10.6 %
Geometry relaxation              ...        0.141 sec (=   0.002 min)   0.0 %
                             ****ORCA TERMINATED NORMALLY****
TOTAL RUN TIME: 0 days 0 hours 7 minutes 32 seconds 830 msec
