
                                 *****************
                                 * O   R   C   A *
                                 *****************

                                            #,                                       
                                            ###                                      
                                            ####                                     
                                            #####                                    
                                            ######                                   
                                           ########,                                 
                                     ,,################,,,,,                         
                               ,,#################################,,                 
                          ,,##########################################,,             
                       ,#########################################, ''#####,          
                    ,#############################################,,   '####,        
                  ,##################################################,,,,####,       
                ,###########''''           ''''###############################       
              ,#####''   ,,,,##########,,,,          '''####'''          '####       
            ,##' ,,,,###########################,,,                        '##       
           ' ,,###''''                  '''############,,,                           
         ,,##''                                '''############,,,,        ,,,,,,###''
      ,#''                                            '''#######################'''  
     '                                                          ''''####''''         
             ,#######,   #######,   ,#######,      ##                                
            ,#'     '#,  ##    ##  ,#'     '#,    #''#        ,####,   ,####,        
            ##       ##  ##   ,#'  ##            #'  '#       #'       #'  '#        
            ##       ##  #######   ##           ,######,      #####,   #    #        
            '#,     ,#'  ##    ##  '#,     ,#' ,#      #,     #,   #   #,  ,#        
             '#######'   ##     ##  '#######'  #'      '#     '####' # '####'        



                #########################################################
                #                        -***-                          #
                #          Department of theory and spectroscopy        #
                #                                                       #
                #                      Frank Neese                      #
                #                                                       #
                #     Directorship, Architecture, Infrastructure        #
                #                    SHARK, DRIVERS                     #
                #        Core code/Algorithms in most modules           #
                #                                                       #
                #        Max Planck Institute fuer Kohlenforschung      #
                #                Kaiser Wilhelm Platz 1                 #
                #                 D-45470 Muelheim/Ruhr                 #
                #                      Germany                          #
                #                                                       #
                #                  All rights reserved                  #
                #                        -***-                          #
                #########################################################


                         Program Version 6.0.1  -  RELEASE   -


 With contributions from (in alphabetic order):
[Max-Planck-Institut fuer Kohlenforschung]                               
  Daniel Aravena         : Magnetic Suceptibility                        
  Michael Atanasov       : Ab Initio Ligand Field Theory (pilot matlab implementation)
  Alexander A. Auer      : GIAO ZORA, VPT2 properties, NMR spectrum      
  Ute Becker             : All parallelization in ORCA, NUMFREQ, NUMCALC 
  Giovanni Bistoni       : ED, misc. LED, open-shell LED, HFLD           
  Martin Brehm           : Molecular dynamics                            
  Dmytro Bykov           : pre 5.0 version of the SCF Hessian            
  Marcos Casanova-Páez   : Triplet and SCS-CIS(D). UHF-(DLPNO)-IP/EA/STEOM-CCSD. UHF-CVS-IP/STEOM-CCSD   
  Vijay G. Chilkuri      : MRCI spin determinant printing, contributions to CSF-ICE 
  Pauline Colinet        : FMM embedding                                 
  Dipayan Datta          : RHF DLPNO-CCSD density                        
  Achintya Kumar Dutta   : EOM-CC, STEOM-CC                              
  Nicolas Foglia         : Exact transition moments, OPA infrastructure, MCD improvements    
  Dmitry Ganyushin       : Spin-Orbit,Spin-Spin,Magnetic field MRCI      
  Miquel Garcia-Rates    : C-PCM and meta-GGA Hessian, CCSD/C-PCM, Gaussian charge scheme 
  Tiago L. C. Gouveia    : GS-ROHF, GS-ROCIS                             
  Yang Guo               : DLPNO-NEVPT2, F12-NEVPT2, CIM, IAO-localization        
  Andreas Hansen         : Spin unrestricted coupled pair/coupled cluster methods 
  Ingolf Harden          : AUTO-CI MPn and infrastructure                
  Benjamin Helmich-Paris : MC-RPA, TRAH-(SCF,CASSCF), AVAS, COSX integrals, SCF dyn. polar. 
  Lee Huntington         : MR-EOM, pCC                                   
  Robert Izsak           : Overlap fitted RIJCOSX, COSX-SCS-MP3, EOM     
  Riya Kayal             : Wick's Theorem for AUTO-CI, AUTO-CI UHF-CCSDT 
  Emily Kempfer          : AUTO-CI, RHF CISDT and CCSDT                  
  Christian Kollmar      : KDIIS, OOCD, Brueckner-CCSD(T), CCSD density, CASPT2, CASPT2-K, improved NEVPT2 
  Axel Koslowski         : Symmetry handling                             
  Simone Kossmann        : meta-GGA functionals, TD-DFT gradient, OOMP2, (MP2 Hessian; deprecated post 5.0) 
  Lucas Lang             : DCDCAS                                        
  Marvin Lechner         : AUTO-CI (C++ implementation), FIC-MRCC        
  Spencer Leger          : CASSCF response                               
  Dagmar Lenk            : GEPOL surface, SMD, ORCA-2-JSON               
  Dimitrios Liakos       : Extrapolation schemes; Compound Job, initial MDCI parallelization 
  Dimitrios Manganas     : Further ROCIS development; embedding schemes. LFT, Crystal Embedding 
  Dimitrios Pantazis     : SARC Basis sets                               
  Anastasios Papadopoulos: AUTO-CI, single reference methods and gradients 
  Taras Petrenko         : pre 6.0 DFT Hessian and TD-DFT gradient, (ASA, deprecated), ECA, 1-Electron XAS/XES, NRVS 
  Peter Pinski           : DLPNO-MP2, DLPNO-MP2 Gradient                 
  Christoph Reimann      : Effective Core Potentials                     
  Marius Retegan         : Local ZFS, SOC                                
  Christoph Riplinger    : Optimizer, TS searches, QM/MM, DLPNO-CCSD(T), (RO)-DLPNO pert. Triples 
  Michael Roemelt        : Original ROCIS implementation                 
  Masaaki Saitow         : Open-shell DLPNO-CCSD energy and density      
  Barbara Sandhoefer     : DKH picture change effects                    
  Kantharuban Sivalingam : CASSCF convergence/infrastructure, NEVPT2 and variants, FIC-MRCI 
  Bernardo de Souza      : ESD, SOC TD-DFT                               
  Georgi L. Stoychev     : AutoAux, RI-MP2 NMR, DLPNO-MP2 response, X2C  
  Van Anh Tran           : RI-MP2 g-tensors                              
  Willem Van den Heuvel  : Paramagnetic NMR                              
  Zikuan Wang            : NOTCH, Electric field optimization            
  Frank Wennmohs         : Technical directorship and infrastructure     
  Hang Xu                : AUTO-CI-Response properties                   
                                                                         
[FACCTs GmbH]                                                            
  Markus Bursch, Miquel Garcia-Rates, Christoph Riplinger, Bernardo de Souza, Georgi L. Stoychev 
                                                                 
  APM, Basis sets (HGBS, AHGBS, def-TZVP (Ac-Lr), def2-XVPD (La-Lu)), CI-OPT, improved COSX, DLPNO-Multilevel,           
  DOCKER, DRACO, updates on ESD, GOAT, IRC, LR-CPCM, MBIS, meta-GGA TD-DFT gradient, ML-optimized integration grids, 
  MM, NACMEs, nearIR, NEB, NEB-TS, NL-DFT gradient (VV10), 2- and 3-layer-ONIOM, interface openCOSMO-RS, QMMM,   
  Crystal-QMMM, SF, symmetry and pop. for TD-DFT, r2SCAN hybrids, SOLVATOR                                   
                                                                         
[Other institutions]                                                     
  V. Asgeirsson          : NEB                                           
  Christoph Bannwarth    : sTDA-DFT, sTD-DFT, PBEh-3c, B97-3c, D3        
  Sebastian Ehlert       : rSCAN, r2SCAN, r2SCAN-3c, D4, dhf basis sets  
  Marvin Friede          : D4 for Fr, Ra, Ac-Lr                          
  Lars Goerigk           : TD-DFT with DH, B97 family of functionals     
  Stefan Grimme          : VdW corrections, initial TS optimization, DFT functionals, gCP, sTDA/sTD-DF 
  Waldemar Hujo          : DFT-NL                                        
  H. Jonsson             : NEB                                           
  Holger Kruse           : gCP                                           
  Marcel Mueller         : wB97X-3c, vDZP basis set                      
  Hagen Neugebauer       : wr2SCAN                                       
  Tobias Risthaus        : range-separated hybrid DFT                    
  Lukas Wittmann         : regularized MP2, r2SCAN double-hybrids, wr2SCAN        
                                                                         
We gratefully acknowledge several colleagues who have allowed us to      
interface, adapt or use parts of their codes:                            
  Ed Valeev, F. Pavosevic, A. Kumar             : LibInt (2-el integral package), F12 methods 
  Garnet Chan, S. Sharma, J. Yang, R. Olivares  : DMRG                   
  Ulf Ekstrom                                   : XCFun DFT Library      
  Mihaly Kallay                                 : mrcc  (arbitrary order and MRCC methods)
  Frank Weinhold                                : gennbo (NPA and NBO analysis)           
  Simon Mueller                                 : openCOSMO-RS                            
  Christopher J. Cramer and Donald G. Truhlar   : smd solvation model                     
  S Lehtola, MJT Oliveira, MAL Marques          : LibXC Library                           
  Liviu Ungur et al                             : ANISO software                          


 Your calculation uses the libint2 library for the computation of 2-el integrals
 For citations please refer to: http://libint.valeyev.net

 Your ORCA version has been built with support for libXC version: 6.2.2
 For citations please refer to: https://libxc.gitlab.io

 This ORCA versions uses:
   CBLAS   interface :  Fast vector & matrix operations
   LAPACKE interface :  Fast linear algebra routines
   SCALAPACK package :  Parallel linear algebra routines
   Shared memory     :  Shared parallel matrices
   BLAS/LAPACK       :  OpenBLAS 0.3.27  USE64BITINT DYNAMIC_ARCH NO_AFFINITY SkylakeX SINGLE_THREADED
        Core in use  :  SkylakeX
   Copyright (c) 2011-2014, The OpenBLAS Project


Your calculation utilizes the atom-pairwise dispersion correction
based on EEQ partial charges (D4)


================================================================================

cite the ECPs for C  [vDZP-ECP], O  [vDZP-ECP] as follows:
   B-Ne (ecp-2-mwb), Al-Ar (ecp-10-mwb), Ga-Kr (ecp-28-mwb), Y-Cd (ecp-28-mwb), In-Xe (ecp-46-mwb):
     A. Bergner, M. Dolg, W. Küchle, H. Stoll, and H. Preuß, Mol. Phys. 80, 1431 (1993)., T. Leininger, A. Berning, A. Nicklass, H. Stoll, H.-J. Werner, and H.-J.Flad, Chem. Phys. 217, 19 (1997).
   Na-Mg, K-Ca, Rb-Sr, Cs-Ba (CRENBL):
     L. Fernandez Pacios and P. A. Christiansen, J. Chem. Phys. 82, 2664 (1985)., M. M. Hurley, L. F. Pacios, P. A. Christiansen, R. B. Ross, and W. C. Ermler, J. Chem. Phys. 84, 6840 (1986)., L. A. LaJohn, P. A. Christiansen, R. B. Ross, T. Atashroo, and W. C. Ermler, J. Chem. Phys. 87, 2812 (1987)., R. B. Ross, J. M. Powers, T. Atashroo, W. C. Ermler, L. A. LaJohn, and P. A. Christiansen, J. Chem. Phys. 93, 6654 (1990). 
   Sc-Zn (ecp-10-mdf):
     M. Dolg, U. Wedig, H. Stoll, and H. Preuss, J. Chem. Phys. 86, 866 (1986). 
   Y-Cd (ecp-28-mwb), Hf-Hg (ecp-60-mwb):
     D. Andrae, U. Häußermann, M. Dolg, H. Stoll, and H. Preuß, Theor. Chim. Acta 77, 123 (1990). 
   La (ecp-46-mwb):
     M. Dolg, H. Stoll, and H. Preuss, J. Chem. Phys. 90, 1730 (1989)., M. Dolg, H. Stoll, and H. Preuss, Theor. Chim. Acta 85, 441 (1993).
   Ce-Lu (SBKJC-ecp):
     T. R. Cundari and W. J. Stevens, J. Chem. Phys. 98, 5555 (1993).
   Tl-Rn (ecp-78-mwb):
     W. Küchle, M. Dolg, H. Stoll, and H. Preuss, Mol. Phys. 74, 1245 (1991).

ECP parameters for C  [vDZP-ECP], O  [vDZP-ECP] have been obtained from:
MM, AH, SG, J. Chem. Phys. 158, 014103 (2023), 10.1063/5.0133026

----- Orbital basis set information -----
Your calculation utilizes the basis: vDZP
   Marcel Mueller, Andreas Hansen, Stefan Grimme 
   J. Chem. Phys. 158, 014103 (2023). DOI: 10.1063/5.0133026

----- AuxJ basis set information -----
Your calculation utilizes the auxiliary basis: def2/J
   F. Weigend, Phys. Chem. Chem. Phys. 8, 1057 (2006).

================================================================================
                                        WARNINGS
                       Please study these warnings very carefully!
================================================================================

WARNING: Frozen-Core approximation turned on, but there are no core electrons.
  ===> : Turning off frozen-core approximation


WARNING: Geometry Optimization
  ===> : Switching off AutoStart
         For restart on a previous wavefunction, please use MOREAD

================================================================================
                                       INPUT FILE
================================================================================
NAME = ./output/_e_p_mentha_1_7_8_dien_2_ol/_e_p_mentha_1_7_8_dien_2_ol.inp
|  1> ! wB97X-3c OPT FREQ TightSCF
|  2> %pal
|  3>   nprocs 40
|  4> end
|  5> * xyz 0 1
|  6> C     -3.068098     0.373943    -0.178073
|  7> C     -1.683999    -0.217019    -0.249299
|  8> C     -1.422103    -1.124703    -1.206265
|  9> C     -0.612264     0.257368     0.725208
| 10> C      0.246762     1.385529     0.112718
| 11> C      1.410659     0.835291    -0.715494
| 12> C      2.309452    -0.058421     0.148389
| 13> C      1.509832    -1.079482     0.925577
| 14> C      0.217884    -0.898705     1.248225
| 15> O      3.236281    -0.710693    -0.678679
| 16> H     -3.806769    -0.425884     0.040780
| 17> H     -3.324143     0.851002    -1.147929
| 18> H     -3.140658     1.146810     0.615350
| 19> H     -0.441831    -1.577969    -1.305962
| 20> H     -2.196016    -1.436013    -1.901780
| 21> H     -1.122971     0.691883     1.612052
| 22> H     -0.379914     2.051741    -0.520085
| 23> H      0.661428     2.012120     0.933556
| 24> H      2.010106     1.683961    -1.110682
| 25> H      1.022820     0.266974    -1.587051
| 26> H      2.846748     0.590716     0.878695
| 27> H      2.028411    -1.944385     1.328919
| 28> H     -0.278217    -1.653717     1.851283
| 29> H      3.976599    -1.020348    -0.093501
| 30> *
| 31> 
| 32>                          ****END OF INPUT****
================================================================================

                       *****************************
                       * Geometry Optimization Run *
                       *****************************

Geometry optimization settings:
Update method            Update   .... BFGS
Choice of coordinates    CoordSys .... (2022) Redundant Internals
Initial Hessian          InHess   .... Almloef's Model
Max. no of cycles        MaxIter  .... 72

Convergence Tolerances:
Energy Change            TolE     ....  5.0000e-06 Eh
Max. Gradient            TolMAXG  ....  3.0000e-04 Eh/bohr
RMS Gradient             TolRMSG  ....  1.0000e-04 Eh/bohr
Max. Displacement        TolMAXD  ....  4.0000e-03 bohr
RMS Displacement         TolRMSD  ....  2.0000e-03 bohr
Strict Convergence                .... False

------------------------------------------------------------------------------
                        ORCA OPTIMIZATION COORDINATE SETUP
------------------------------------------------------------------------------

The optimization will be done in redundant internal coordinates (2022)
Making redundant internal coordinates   ...  (2022 redundants) done
Evaluating the initial hessian          ...  (Almloef) done
Evaluating the coordinates              ...  done
Calculating the B-matrix                .... done
Calculating the G-matrix                .... done
Diagonalizing the G-matrix              .... done
Small eigenvalue found = 2.165e-02
The first mode is                       ....   50
The number of degrees of freedom        ....   66

    -----------------------------------------------------------------
                    Redundant Internal Coordinates


    -----------------------------------------------------------------
         Definition                    Initial Value    Approx d2E/dq
    -----------------------------------------------------------------
      1. B(C   1,C   0)                  1.5067         0.407012   
      2. B(C   2,C   1)                  1.3447         0.737878   
      3. B(C   3,C   1)                  1.5242         0.381557   
      4. B(C   4,C   3)                  1.5446         0.354054   
      5. B(C   5,C   4)                  1.5308         0.372476   
      6. B(C   6,C   5)                  1.5339         0.368263   
      7. B(C   7,C   6)                  1.5119         0.399193   
      8. B(C   8,C   7)                  1.3438         0.740254   
      9. B(C   8,C   3)                  1.5163         0.392842   
     10. B(O   9,C   6)                  1.4030         0.533428   
     11. B(H  10,C   0)                  1.1105         0.333953   
     12. B(H  11,C   0)                  1.1107         0.333671   
     13. B(H  12,C   0)                  1.1100         0.334586   
     14. B(H  13,C   2)                  1.0846         0.367336   
     15. B(H  14,C   2)                  1.0861         0.365307   
     16. B(H  15,C   3)                  1.1118         0.332376   
     17. B(H  16,C   4)                  1.1122         0.331891   
     18. B(H  17,C   4)                  1.1128         0.331159   
     19. B(H  18,C   5)                  1.1116         0.332577   
     20. B(H  19,C   5)                  1.1104         0.334085   
     21. B(H  20,C   6)                  1.1151         0.328400   
     22. B(H  21,C   7)                  1.0861         0.365264   
     23. B(H  22,C   8)                  1.0862         0.365157   
     24. B(H  23,O   9)                  0.9932         0.460302   
     25. A(C   1,C   0,H  12)          111.5272         0.324972   
     26. A(C   1,C   0,H  10)          109.7470         0.324870   
     27. A(H  10,C   0,H  11)          109.1522         0.284031   
     28. A(H  10,C   0,H  12)          108.4894         0.284152   
     29. A(C   1,C   0,H  11)          109.8127         0.324825   
     30. A(H  11,C   0,H  12)          108.0599         0.284115   
     31. A(C   2,C   1,C   3)          121.8787         0.410583   
     32. A(C   0,C   1,C   2)          118.5102         0.415318   
     33. A(C   0,C   1,C   3)          119.5794         0.370068   
     34. A(H  13,C   2,H  14)          117.7348         0.292410   
     35. A(C   1,C   2,H  14)          120.6922         0.364407   
     36. A(C   1,C   2,H  13)          121.5699         0.364752   
     37. A(C   4,C   3,H  15)          106.6375         0.317300   
     38. A(C   1,C   3,H  15)          107.9765         0.321199   
     39. A(C   8,C   3,H  15)          105.9214         0.322736   
     40. A(C   4,C   3,C   8)          112.9024         0.363142   
     41. A(C   1,C   3,C   4)          111.3975         0.361339   
     42. A(C   1,C   3,C   8)          111.6036         0.367823   
     43. A(H  16,C   4,H  17)          106.9994         0.283425   
     44. A(C   3,C   4,H  17)          109.0263         0.317111   
     45. A(C   5,C   4,H  16)          109.6264         0.319860   
     46. A(C   3,C   4,H  16)          110.4722         0.317225   
     47. A(C   3,C   4,C   5)          112.0151         0.359858   
     48. A(C   5,C   4,H  17)          108.5514         0.319745   
     49. A(C   4,C   5,H  18)          109.1426         0.319968   
     50. A(C   4,C   5,C   6)          110.5015         0.362281   
     51. A(C   6,C   5,H  19)          110.3961         0.319610   
     52. A(C   4,C   5,H  19)          110.0634         0.320204   
     53. A(C   6,C   5,H  18)          109.2113         0.319374   
     54. A(H  18,C   5,H  19)          107.4605         0.283903   
     55. A(C   5,C   6,C   7)          111.9058         0.366600   
     56. A(C   7,C   6,O   9)          109.7805         0.388401   
     57. A(C   5,C   6,O   9)          109.0231         0.382985   
     58. A(O   9,C   6,H  20)          109.7801         0.336756   
     59. A(C   7,C   6,H  20)          108.1383         0.322947   
     60. A(C   5,C   6,H  20)          108.1806         0.318716   
     61. A(C   6,C   7,C   8)          122.7527         0.414125   
     62. A(C   8,C   7,H  21)          118.4885         0.364600   
     63. A(C   6,C   7,H  21)          118.4347         0.328649   
     64. A(C   3,C   8,C   7)          123.0989         0.412947   
     65. A(C   7,C   8,H  22)          118.6127         0.364582   
     66. A(C   3,C   8,H  22)          118.1258         0.327765   
     67. A(C   6,O   9,H  23)          106.8598         0.353316   
     68. D(C   2,C   1,C   0,H  11)    -57.1570         0.012276   
     69. D(C   3,C   1,C   0,H  11)    120.8316         0.012276   
     70. D(C   2,C   1,C   0,H  10)     62.8323         0.012276   
     71. D(C   2,C   1,C   0,H  12)   -176.9151         0.012276   
     72. D(C   3,C   1,C   0,H  10)   -119.1790         0.012276   
     73. D(H  14,C   2,C   1,C   0)     -0.9657         0.038708   
     74. D(H  13,C   2,C   1,C   3)      1.7497         0.038708   
     75. D(H  14,C   2,C   1,C   3)   -178.9057         0.038708   
     76. D(H  13,C   2,C   1,C   0)    179.6898         0.038708   
     77. D(C   4,C   3,C   1,C   2)     83.4510         0.010858   
     78. D(C   8,C   3,C   1,C   0)    138.3234         0.010858   
     79. D(C   4,C   3,C   1,C   0)    -94.4676         0.010858   
     80. D(H  15,C   3,C   1,C   0)     22.3040         0.010858   
     81. D(C   8,C   3,C   1,C   2)    -43.7580         0.010858   
     82. D(C   5,C   4,C   3,C   1)    -86.0187         0.010081   
     83. D(H  16,C   4,C   3,H  15)    -81.0773         0.010081   
     84. D(H  16,C   4,C   3,C   8)    163.0070         0.010081   
     85. D(H  16,C   4,C   3,C   1)     36.5070         0.010081   
     86. D(C   5,C   4,C   3,H  15)    156.3970         0.010081   
     87. D(C   5,C   4,C   3,C   8)     40.4813         0.010081   
     88. D(H  18,C   5,C   4,H  17)    -58.1275         0.011082   
     89. D(H  18,C   5,C   4,H  16)     58.4290         0.011082   
     90. D(H  18,C   5,C   4,C   3)   -178.5656         0.011082   
     91. D(C   6,C   5,C   4,C   3)    -58.4560         0.011082   
     92. D(C   6,C   5,C   4,H  16)    178.5387         0.011082   
     93. D(C   6,C   5,C   4,H  17)     61.9821         0.011082   
     94. D(O   9,C   6,C   5,C   4)    170.8067         0.010848   
     95. D(C   7,C   6,C   5,H  19)    -72.8164         0.010848   
     96. D(C   7,C   6,C   5,H  18)    169.2429         0.010848   
     97. D(O   9,C   6,C   5,H  18)    -69.1249         0.010848   
     98. D(C   7,C   6,C   5,C   4)     49.1745         0.010848   
     99. D(O   9,C   6,C   5,H  19)     48.8158         0.010848   
    100. D(H  21,C   7,C   6,O   9)     40.6464         0.011828   
    101. D(H  21,C   7,C   6,C   5)    161.8419         0.011828   
    102. D(C   8,C   7,C   6,H  20)     94.2519         0.011828   
    103. D(C   8,C   7,C   6,O   9)   -145.9959         0.011828   
    104. D(C   8,C   7,C   6,C   5)    -24.8005         0.011828   
    105. D(H  22,C   8,C   7,H  21)     -3.6112         0.038982   
    106. D(H  22,C   8,C   7,C   6)   -176.9655         0.038982   
    107. D(C   3,C   8,C   7,H  21)   -178.8845         0.038982   
    108. D(C   3,C   8,C   7,C   6)      7.7613         0.038982   
    109. D(H  22,C   8,C   3,C   4)    169.3481         0.011473   
    110. D(H  22,C   8,C   3,C   1)    -64.2619         0.011473   
    111. D(C   7,C   8,C   3,H  15)   -131.6991         0.011473   
    112. D(C   7,C   8,C   3,C   4)    -15.3570         0.011473   
    113. D(C   7,C   8,C   3,C   1)    111.0330         0.011473   
    114. D(H  23,O   9,C   6,H  20)     42.7116         0.022610   
    115. D(H  23,O   9,C   6,C   7)    -76.0334         0.022610   
    116. D(H  23,O   9,C   6,C   5)    161.0530         0.022610   
    -----------------------------------------------------------------

Number of atoms                         .... 24
Number of degrees of freedom            .... 116


         *************************************************************
         *                GEOMETRY OPTIMIZATION CYCLE   1            *
         *************************************************************
---------------------------------
CARTESIAN COORDINATES (ANGSTROEM)
---------------------------------
  C     -3.068098    0.373943   -0.178073
  C     -1.683999   -0.217019   -0.249299
  C     -1.422103   -1.124703   -1.206265
  C     -0.612264    0.257368    0.725208
  C      0.246762    1.385529    0.112718
  C      1.410659    0.835291   -0.715494
  C      2.309452   -0.058421    0.148389
  C      1.509832   -1.079482    0.925577
  C      0.217884   -0.898705    1.248225
  O      3.236281   -0.710693   -0.678679
  H     -3.806769   -0.425884    0.040780
  H     -3.324143    0.851002   -1.147929
  H     -3.140658    1.146810    0.615350
  H     -0.441831   -1.577969   -1.305962
  H     -2.196016   -1.436013   -1.901780
  H     -1.122971    0.691883    1.612052
  H     -0.379914    2.051741   -0.520085
  H      0.661428    2.012120    0.933556
  H      2.010106    1.683961   -1.110682
  H      1.022820    0.266974   -1.587051
  H      2.846748    0.590716    0.878695
  H      2.028411   -1.944385    1.328919
  H     -0.278217   -1.653717    1.851283
  H      3.976599   -1.020348   -0.093501

----------------------------
CARTESIAN COORDINATES (A.U.)
----------------------------
  NO LB      ZA    FRAG     MASS         X           Y           Z
   0 C     4.0000*   0    12.011   -5.797865    0.706650   -0.336509
   1 C     4.0000*   0    12.011   -3.182297   -0.410106   -0.471107
   2 C     4.0000*   0    12.011   -2.687385   -2.125381   -2.279510
   3 C     4.0000*   0    12.011   -1.157011    0.486355    1.370445
   4 C     4.0000*   0    12.011    0.466313    2.618270    0.213006
   5 C     4.0000*   0    12.011    2.665759    1.578471   -1.352088
   6 C     4.0000*   0    12.011    4.364232   -0.110400    0.280415
   7 C     4.0000*   0    12.011    2.853169   -2.039925    1.749087
   8 C     4.0000*   0    12.011    0.411741   -1.698306    2.358803
   9 O     6.0000*   0    15.999    6.115685   -1.343015   -1.282517
  10 H     1.0000    0     1.008   -7.193751   -0.804804    0.077063
  11 H     1.0000    0     1.008   -6.281720    1.608161   -2.169271
  12 H     1.0000    0     1.008   -5.934984    2.167157    1.162843
  13 H     1.0000    0     1.008   -0.834940   -2.981929   -2.467911
  14 H     1.0000    0     1.008   -4.149869   -2.713671   -3.593843
  15 H     1.0000    0     1.008   -2.122108    1.307469    3.046337
  16 H     1.0000    0     1.008   -0.717933    3.877229   -0.982818
  17 H     1.0000    0     1.008    1.249918    3.802356    1.764165
  18 H     1.0000    0     1.008    3.798550    3.182225   -2.098885
  19 H     1.0000    0     1.008    1.932850    0.504508   -2.999092
  20 H     1.0000    0     1.008    5.379574    1.116291    1.660493
  21 H     1.0000    0     1.008    3.833141   -3.674355    2.511293
  22 H     1.0000    0     1.008   -0.525754   -3.125072    3.498418
  23 H     1.0000    0     1.008    7.514683   -1.928178   -0.176691
* core charge reduced due to ECP

--------------------------------
INTERNAL COORDINATES (ANGSTROEM)
--------------------------------
 C      0   0   0     0.000000000000     0.00000000     0.00000000
 C      1   0   0     1.506664949589     0.00000000     0.00000000
 C      2   1   0     1.344716953053   118.51016501     0.00000000
 C      2   1   3     1.524245002958   119.57939497   177.98861911
 C      4   2   1     1.544608983108   111.39752012   265.53241222
 C      5   4   2     1.530801489481   112.01512910   273.98126894
 C      6   5   4     1.533898247434   110.50153073   301.54403643
 C      7   6   5     1.511945401615   111.90582833    49.17445799
 C      8   7   6     1.343842137432   122.75270634   335.19952954
 O      7   6   5     1.403036789913   109.02310215   170.80665368
 H      1   2   3     1.110520018630   109.74703190    62.83234119
 H      1   2   3     1.110749743300   109.81270387   302.84301173
 H      1   2   3     1.110003788380   111.52723414   183.08488808
 H      3   2   1     1.084584138068   121.56986089   179.68975212
 H      3   2   1     1.086092244192   120.69222023   359.03428938
 H      4   2   1     1.111808079396   107.97654619    22.30396376
 H      5   4   2     1.112205410313   110.47222216    36.50698318
 H      5   4   2     1.112806899278   109.02630249   153.81965752
 H      6   5   4     1.111643391584   109.14258732   181.43436492
 H      6   5   4     1.110412043639   110.06336336    63.73037921
 H      7   6   5     1.115084162752   108.18059431   290.14705316
 H      8   7   6     1.086124370233   118.43466171   161.84187178
 H      9   8   7     1.086203606010   118.61267348   183.03449651
 H     10   7   6     0.993171813853   106.85980639   161.05299432

---------------------------
INTERNAL COORDINATES (A.U.)
---------------------------
 C      0   0   0     0.000000000000     0.00000000     0.00000000
 C      1   0   0     2.847184130302     0.00000000     0.00000000
 C      2   1   0     2.541146768911   118.51016501     0.00000000
 C      2   1   3     2.880405616589   119.57939497   177.98861911
 C      4   2   1     2.918887962068   111.39752012   265.53241222
 C      5   4   2     2.892795580518   112.01512910   273.98126894
 C      6   5   4     2.898647604953   110.50153073   301.54403643
 C      7   6   5     2.857162738494   111.90582833    49.17445799
 C      8   7   6     2.539493606969   122.75270634   335.19952954
 O      7   6   5     2.651355288751   109.02310215   170.80665368
 H      1   2   3     2.098578701449   109.74703190    62.83234119
 H      1   2   3     2.099012818161   109.81270387   302.84301173
 H      1   2   3     2.097603167653   111.52723414   183.08488808
 H      3   2   1     2.049566990144   121.56986089   179.68975212
 H      3   2   1     2.052416897699   120.69222023   359.03428938
 H      4   2   1     2.101012783539   107.97654619    22.30396376
 H      5   4   2     2.101763630157   110.47222216    36.50698318
 H      5   4   2     2.102900279574   109.02630249   153.81965752
 H      6   5   4     2.100701568678   109.14258732   181.43436492
 H      6   5   4     2.098374658286   110.06336336    63.73037921
 H      7   6   5     2.107203683875   108.18059431   290.14705316
 H      8   7   6     2.052477607118   118.43466171   161.84187178
 H      9   8   7     2.052627341036   118.61267348   183.03449651
 H     10   7   6     1.876822732113   106.85980639   161.05299432

---------------------
BASIS SET INFORMATION
---------------------
There are 3 groups of distinct atoms

 Group   1 Type C   : 6s6p2d contracted to 2s2p1d pattern {42/42/2}
 Group   2 Type O   : 6s6p2d contracted to 2s2p1d pattern {42/42/2}
 Group   3 Type H   : 8s2p contracted to 2s1p pattern {53/2}

Atom   0C    basis set group =>   1
Atom   1C    basis set group =>   1
Atom   2C    basis set group =>   1
Atom   3C    basis set group =>   1
Atom   4C    basis set group =>   1
Atom   5C    basis set group =>   1
Atom   6C    basis set group =>   1
Atom   7C    basis set group =>   1
Atom   8C    basis set group =>   1
Atom   9O    basis set group =>   2
Atom  10H    basis set group =>   3
Atom  11H    basis set group =>   3
Atom  12H    basis set group =>   3
Atom  13H    basis set group =>   3
Atom  14H    basis set group =>   3
Atom  15H    basis set group =>   3
Atom  16H    basis set group =>   3
Atom  17H    basis set group =>   3
Atom  18H    basis set group =>   3
Atom  19H    basis set group =>   3
Atom  20H    basis set group =>   3
Atom  21H    basis set group =>   3
Atom  22H    basis set group =>   3
Atom  23H    basis set group =>   3
---------------------------------
AUXILIARY/J BASIS SET INFORMATION
---------------------------------
There are 3 groups of distinct atoms

 Group   1 Type C   : 12s5p4d2f1g contracted to 6s4p3d1f1g pattern {711111/2111/211/2/1}
 Group   2 Type O   : 12s5p4d2f1g contracted to 6s4p3d1f1g pattern {711111/2111/211/2/1}
 Group   3 Type H   : 5s2p1d contracted to 3s1p1d pattern {311/2/1}

Atom   0C    basis set group =>   1
Atom   1C    basis set group =>   1
Atom   2C    basis set group =>   1
Atom   3C    basis set group =>   1
Atom   4C    basis set group =>   1
Atom   5C    basis set group =>   1
Atom   6C    basis set group =>   1
Atom   7C    basis set group =>   1
Atom   8C    basis set group =>   1
Atom   9O    basis set group =>   2
Atom  10H    basis set group =>   3
Atom  11H    basis set group =>   3
Atom  12H    basis set group =>   3
Atom  13H    basis set group =>   3
Atom  14H    basis set group =>   3
Atom  15H    basis set group =>   3
Atom  16H    basis set group =>   3
Atom  17H    basis set group =>   3
Atom  18H    basis set group =>   3
Atom  19H    basis set group =>   3
Atom  20H    basis set group =>   3
Atom  21H    basis set group =>   3
Atom  22H    basis set group =>   3
Atom  23H    basis set group =>   3
-------------------------
ECP PARAMETER INFORMATION
-------------------------

 Group 1, Type C  ECP vDZP-ECP (replacing 2 core electrons, lmax=3)
 Group 2, Type O  ECP vDZP-ECP (replacing 2 core electrons, lmax=3)

Atom   0C    ECP group =>   1
Atom   1C    ECP group =>   1
Atom   2C    ECP group =>   1
Atom   3C    ECP group =>   1
Atom   4C    ECP group =>   1
Atom   5C    ECP group =>   1
Atom   6C    ECP group =>   1
Atom   7C    ECP group =>   1
Atom   8C    ECP group =>   1
Atom   9O    ECP group =>   2



           ************************************************************
           *        Program running with 40 parallel MPI-processes    *
           *              working on a common directory               *
           ************************************************************
------------------------------------------------------------------------------
                             ORCA STARTUP CALCULATIONS
                           -- RI-GTO INTEGRALS CHOSEN --
------------------------------------------------------------------------------
------------------------------------------------------------------------------
                   ___                                                        
                  /   \      - P O W E R E D   B Y -                         
                 /     \                                                     
                 |  |  |   _    _      __       _____    __    __             
                 |  |  |  | |  | |    /  \     |  _  \  |  |  /  |          
                  \  \/   | |  | |   /    \    | | | |  |  | /  /          
                 / \  \   | |__| |  /  /\  \   | |_| |  |  |/  /          
                |  |  |   |  __  | /  /__\  \  |    /   |      \           
                |  |  |   | |  | | |   __   |  |    \   |  |\   \          
                \     /   | |  | | |  |  |  |  | |\  \  |  | \   \       
                 \___/    |_|  |_| |__|  |__|  |_| \__\ |__|  \__/        
                                                                              
                      - O R C A' S   B I G   F R I E N D -                    
                                      &                                       
                       - I N T E G R A L  F E E D E R -                       
                                                                              
 v1 FN, 2020, v2 2021, v3 2022-2024                                           
------------------------------------------------------------------------------


----------------------
SHARK INTEGRAL PACKAGE
----------------------

Number of atoms                             ...     24
Number of basis functions                   ...    200
Number of shells                            ...     92
Maximum angular momentum                    ...      2
Integral batch strategy                     ... SHARK/LIBINT Hybrid
RI-J (if used) integral strategy            ... SPLIT-RIJ (Revised 2003 algorithm where possible)
Printlevel                                  ...      1
Contraction scheme used                     ... SEGMENTED contraction
Prescreening option                         ... SCHWARTZ
   Thresh                                   ... 2.500e-11
   Tcut                                     ... 2.500e-12
   Tpresel                                  ... 2.500e-12 
Coulomb Range Separation                    ... NOT USED
Exchange Range Separation                   ... Long Range
   Mu parameter                             ... 3.000e-01
   Scaling (regular/separated)              ... 1.670e-01 8.330e-01
Multipole approximations                    ... NOT USED
Finite Nucleus Model                        ... NOT USED
CABS basis                                  ... NOT available
Auxiliary Coulomb fitting basis             ... AVAILABLE
   # of basis functions in Aux-J            ...    644
   # of shells in Aux-J                     ...    220
   Maximum angular momentum in Aux-J        ...      4
Auxiliary J/K fitting basis                 ... NOT available
Auxiliary Correlation fitting basis         ... NOT available
Auxiliary 'external' fitting basis          ... NOT available

Checking pre-screening integrals            ... done (  0.0 sec) Dimension = 92
Check shell pair data                       ... done (  0.0 sec)
Shell pair information
Shell pair cut-off parameter TPreSel        ...   2.5e-12
Total number of shell pairs                 ...      4278
Shell pairs after pre-screening             ...      4266
Total number of primitive shell pairs       ...     39686
Primitive shell pairs kept                  ...     32918
          la=0 lb=0:   1176 shell pairs
          la=1 lb=0:   1627 shell pairs
          la=1 lb=1:    589 shell pairs
          la=2 lb=0:    480 shell pairs
          la=2 lb=1:    339 shell pairs
          la=2 lb=2:     55 shell pairs

Calculating one electron integrals          ... done (  0.0 sec)
Calculating ECP integrals                   ... done (  0.1 sec)
Calculating RI/J V-Matrix + Cholesky decomp.... done (  0.0 sec)
Calculating Nuclear repulsion               ... done (  0.0 sec) ENN=    289.447027267670 Eh

Diagonalization of the overlap matrix:
Smallest eigenvalue                        ... 1.144e-03
Time for diagonalization                   ...    0.006 sec
Threshold for overlap eigenvalues          ... 1.000e-07
Number of eigenvalues below threshold      ... 0
Time for construction of square roots      ...    0.004 sec
Total time needed                          ...    0.035 sec

-------------------
DFT GRID GENERATION
-------------------

General Integration Accuracy     IntAcc      ... 4.388
Radial Grid Type                 RadialGrid  ... OptM3 with GC (2021)
Angular Grid (max. ang.)         AngularGrid ... 4 (Lebedev-302)
Angular grid pruning method      GridPruning ... 4 (adaptive)
Weight generation scheme         WeightScheme... mBecke (2022)
Basis function cutoff            BFCut       ... 1.0000e-11
Integration weight cutoff        WCut        ... 1.0000e-14
Partially contracted basis set               ... off
Rotationally invariant grid construction     ... off
Angular grids for H and He will be reduced by one unit

Total number of grid points                  ...   104627
Total number of batches                      ...     1647
Average number of points per batch           ...       63
Average number of grid points per atom       ...     4359

--------------------
COSX GRID GENERATION
--------------------

GRIDX 1
-------
General Integration Accuracy     IntAcc      ... 3.816
Radial Grid Type                 RadialGrid  ... OptM3 with GC (2021)
Angular Grid (max. ang.)         AngularGrid ... 1 (Lebedev-50)
Angular grid pruning method      GridPruning ... 4 (adaptive)
Weight generation scheme         WeightScheme... mBecke (2022)
Basis function cutoff            BFCut       ... 1.0000e-11
Integration weight cutoff        WCut        ... 1.0000e-14
Partially contracted basis set               ... on
Rotationally invariant grid construction     ... off
Angular grids for H and He will be reduced by one unit

Total number of grid points                  ...    13358
Total number of batches                      ...      120
Average number of points per batch           ...      111
Average number of grid points per atom       ...      557
UseSFitting                                  ... on

GRIDX 2
-------
General Integration Accuracy     IntAcc      ... 4.020
Radial Grid Type                 RadialGrid  ... OptM3 with GC (2021)
Angular Grid (max. ang.)         AngularGrid ... 2 (Lebedev-110)
Angular grid pruning method      GridPruning ... 4 (adaptive)
Weight generation scheme         WeightScheme... mBecke (2022)
Basis function cutoff            BFCut       ... 1.0000e-11
Integration weight cutoff        WCut        ... 1.0000e-14
Partially contracted basis set               ... on
Rotationally invariant grid construction     ... off
Angular grids for H and He will be reduced by one unit

Total number of grid points                  ...    28191
Total number of batches                      ...      231
Average number of points per batch           ...      122
Average number of grid points per atom       ...     1175
UseSFitting                                  ... on

GRIDX 3
-------
General Integration Accuracy     IntAcc      ... 4.338
Radial Grid Type                 RadialGrid  ... OptM3 with GC (2021)
Angular Grid (max. ang.)         AngularGrid ... 3 (Lebedev-194)
Angular grid pruning method      GridPruning ... 4 (adaptive)
Weight generation scheme         WeightScheme... mBecke (2022)
Basis function cutoff            BFCut       ... 1.0000e-11
Integration weight cutoff        WCut        ... 1.0000e-14
Partially contracted basis set               ... on
Rotationally invariant grid construction     ... off
Angular grids for H and He will be reduced by one unit

Total number of grid points                  ...    61460
Total number of batches                      ...      494
Average number of points per batch           ...      124
Average number of grid points per atom       ...     2561
UseSFitting                                  ... on
Initializing property integral containers    ... done (  0.0 sec)

SHARK setup successfully completed in   3.2 seconds

Maximum memory used throughout the entire STARTUP-calculation: 30.2 MB


           ************************************************************
           *        Program running with 40 parallel MPI-processes    *
           *              working on a common directory               *
           ************************************************************
-------------------------------------------------------------------------------
                                 ORCA GUESS
                   Start orbitals & Density for SCF / CASSCF
-------------------------------------------------------------------------------

------------
SCF SETTINGS
------------
Hamiltonian:
 Density Functional     Method          .... DFT(GTOs)
 Exchange Functional    Exchange        .... WB97X-V
 Correlation Functional Correlation     .... WB97X-V
 Gradients option       PostSCFGGA      .... off
 Hybrid DFT is turned on
   Fraction HF Exchange ScalHFX         ....  0.167000
   Scaling of DF-GGA-X  ScalDFX         ....  0.000000
   Scaling of DF-GGA-C  ScalDFC         ....  1.000000
   Scaling of DF-LDA-C  ScalLDAC        ....  1.000000
   Perturbative correction              ....  0.000000
 Long-range corrected/Screened/Range-Separated Hybrid DFT is turned on
   Amount of maximum screened exact exchange              ....  0.833000
   Range separation parameter mu (erf(mu*r12)/r12)        ....  0.300000
   NL short-range parameter             ....  6.000000
   NL long-range parameter              ....  0.010000
 RI-approximation to the Coulomb term is turned on
   Number of AuxJ basis functions       .... 644
   RIJ-COSX (HFX calculated with COS-X)).... on


General Settings:
 Integral files         IntName         .... ./output/_e_p_mentha_1_7_8_dien_2_ol/_e_p_mentha_1_7_8_dien_2_ol
 Hartree-Fock type      HFTyp           .... RHF
 Total Charge           Charge          ....    0
 Multiplicity           Mult            ....    1
 Number of Electrons    NEL             ....   56
 Basis Dimension        Dim             ....  200
 Nuclear Repulsion      ENuc            ....    289.4470272677 Eh

Convergence Acceleration:
 AO-DIIS                CNVDIIS         .... on
   Start iteration      DIISMaxIt       ....    12
   Startup error        DIISStart       ....  0.200000
   # of expansion vecs  DIISMaxEq       ....     5
   Bias factor          DIISBfac        ....   1.050
   Max. coefficient     DIISMaxC        ....  10.000
 MO-DIIS                CNVKDIIS        .... off
 Trust-Rad. Augm. Hess. CNVTRAH         .... auto
   Auto Start mean grad. ratio tolernc. ....  1.125000
   Auto Start start iteration           ....    50
   Auto Start num. interpolation iter.  ....    10
   Max. Number of Micro iterations      ....    24
   Max. Number of Macro iterations      .... Maxiter - #DIIS iter
   Number of Davidson start vectors     ....     2
   Converg. threshold    (grad. norm)   ....   1.000e-05
   Grad. Scal. Fac. for Micro threshold ....   0.100
   Minimum threshold for Micro iter.    ....   1.000e-02
   NR start threshold (gradient norm)   ....   1.000e-04
   Initial trust radius                 ....   0.400
   Minimum AH scaling param. (alpha)    ....   1.000
   Maximum AH scaling param. (alpha)    .... 1000.000
   Quad. conv. algorithm                .... NR
   White noise on init. David. guess    .... on
   Maximum white noise                  ....   0.010
   Pseudo random numbers                .... off
   Inactive MOs                         .... canonical
   Orbital update algorithm             .... Taylor
   Preconditioner                       .... Diag
   Full preconditioner red. dimension   ....   250
 SOSCF                  CNVSOSCF        .... on
   Start iteration      SOSCFMaxIt      ....   150
   Startup grad/error   SOSCFStart      ....  0.003300
   Hessian update       SOSCFHessUp     .... L-BFGS
 Level Shifting         CNVShift        .... on
   Level shift para.    LevelShift      ....    0.2500
   Turn off err/grad.   ShiftErr        ....    0.0010
 Zerner damping         CNVZerner       .... off
 Static damping         CNVDamp         .... on
   Fraction old density DampFac         ....    0.7000
   Max. Damping (<1)    DampMax         ....    0.9800
   Min. Damping (>=0)   DampMin         ....    0.0000
   Turn off err/grad.   DampErr         ....    0.1000

SCF Procedure:
 Maximum # iterations   MaxIter         ....   125
 SCF integral mode      SCFMode         .... Direct
   Integral package                     .... SHARK and LIBINT hybrid scheme
 Reset frequency        DirectResetFreq ....    20
 Integral Threshold     Thresh          ....  2.500e-11 Eh
 Primitive CutOff       TCut            ....  2.500e-12 Eh

Convergence Tolerance:
 Convergence Check Mode ConvCheckMode   .... Total+1el-Energy
 Convergence forced     ConvForced      .... 0
 Energy Change          TolE            ....  1.000e-08 Eh
 1-El. energy change                    ....  1.000e-05 Eh
 Orbital Gradient       TolG            ....  1.000e-05
 Orbital Rotation angle TolX            ....  1.000e-05
 DIIS Error             TolErr          ....  5.000e-07

------------------------------
INITIAL GUESS: MODEL POTENTIAL
------------------------------
Loading Hartree-Fock densities                     ... done
Atomic calculation to generate a density for atom 0 (C  with ECP)
  Multiplicity assumed   :    1
  Atomic configuration   : 1s2 2s2 2p2 
  Number of open shells  : 1
  Command: /home/aspe232/Project/Software/ORCA/6_0_1/build/orca ./output/_e_p_mentha_1_7_8_dien_2_ol/_e_p_mentha_1_7_8_dien_2_ol_atom6.inp "" > ./output/_e_p_mentha_1_7_8_dien_2_ol/_e_p_mentha_1_7_8_dien_2_ol_atom6.out
Returned from the atomic calculation with res=0
Atomic calculation to generate a density for atom 9 (O  with ECP)
  Multiplicity assumed   :    3
  Atomic configuration   : 1s2 2s2 2p4 
  Number of open shells  : 1
  Command: /home/aspe232/Project/Software/ORCA/6_0_1/build/orca ./output/_e_p_mentha_1_7_8_dien_2_ol/_e_p_mentha_1_7_8_dien_2_ol_atom8.inp "" > ./output/_e_p_mentha_1_7_8_dien_2_ol/_e_p_mentha_1_7_8_dien_2_ol_atom8.out
Returned from the atomic calculation with res=0
Calculating cut-offs                               ... done
Initializing the effective Hamiltonian             ... done
Setting up the integral package (SHARK)            ... done
Starting the Coulomb interaction                   ... done (   0.0 sec)
Making the grid                                    ... done (   0.6 sec)
Mapping shells                                     ... done
Starting the XC term evaluation                    ... done (   0.0 sec)
  promolecular density results
     # of electrons  =     75.994849935
     EX              =    -38.876940661
     EC              =     -3.070970120
     EX+EC           =    -41.947910781
Transforming the Hamiltonian                       ... done (   0.0 sec)
Diagonalizing the Hamiltonian                      ... done (   0.0 sec)
Back transforming the eigenvectors                 ... done (   0.0 sec)
Now organizing SCF variables                       ... done
                      ------------------
                      INITIAL GUESS DONE (   1.8 sec)
                      ------------------
             **** ENERGY FILE WAS UPDATED (./output/_e_p_mentha_1_7_8_dien_2_ol/_e_p_mentha_1_7_8_dien_2_ol.en.tmp) ****
Finished Guess after   2.2 sec
Maximum memory used throughout the entire GUESS-calculation: 18.6 MB


           ************************************************************
           *        Program running with 40 parallel MPI-processes    *
           *              working on a common directory               *
           ************************************************************

-------------------------------------------------------------------------------------------
                                      ORCA LEAN-SCF
                              memory conserving SCF solver
-------------------------------------------------------------------------------------------

----------------------------------------D-I-I-S--------------------------------------------
Iteration    Energy (Eh)           Delta-E    RMSDP     MaxDP     DIISErr   Damp  Time(sec)
-------------------------------------------------------------------------------------------
               ***  Starting incremental Fock matrix formation  ***
    1    -75.2887040276093558     0.00e+00  4.08e-03  7.00e-02  1.84e-01  0.700   3.6
    2    -75.4564126984924428    -1.68e-01  2.99e-03  5.20e-02  1.06e-01  0.700   3.0
                               ***Turning on AO-DIIS***
    3    -75.5430278107290860    -8.66e-02  1.55e-03  2.64e-02  5.60e-02  0.700   3.0
    4    -75.5942401104630335    -5.12e-02  3.31e-03  5.57e-02  3.57e-02  0.000   3.2
    5    -75.7024847954942857    -1.08e-01  2.69e-04  4.46e-03  4.48e-03  0.000   3.0
                              *** Initializing SOSCF ***
---------------------------------------S-O-S-C-F--------------------------------------
Iteration    Energy (Eh)           Delta-E    RMSDP     MaxDP     MaxGrad    Time(sec)
--------------------------------------------------------------------------------------
    6    -75.7027675378481604    -2.83e-04  1.26e-04  3.54e-03  2.50e-03     2.9
               *** Restarting incremental Fock matrix formation ***
    7    -75.7027927486300882    -2.52e-05  7.65e-05  2.11e-03  2.81e-04     3.8
    8    -75.7028020877518770    -9.34e-06  4.04e-05  1.10e-03  2.82e-04     3.6
    9    -75.7028059861555676    -3.90e-06  9.64e-06  1.31e-04  2.49e-05     3.1
   10    -75.7028060778466170    -9.17e-08  3.15e-06  5.53e-05  1.48e-05     3.2
   11    -75.7028060892138228    -1.14e-08  8.67e-07  1.20e-05  5.20e-06     3.1
   12    -75.7028061043250773    -1.51e-08  2.75e-07  5.65e-06  1.46e-06     2.9
                  *** Gradient check signals convergence ***

               *****************************************************
               *                     SUCCESS                       *
               *           SCF CONVERGED AFTER  12 CYCLES          *
               *****************************************************

Recomputing exchange energy using gridx3       ... done (    3.157 sec)
Old exchange energy                            :    -10.780945543 Eh
New exchange energy                            :    -10.780943479 Eh
Exchange energy change after final integration :      0.000002064 Eh
Total energy after final integration           :    -75.702804040 Eh
             **** ENERGY FILE WAS UPDATED (./output/_e_p_mentha_1_7_8_dien_2_ol/_e_p_mentha_1_7_8_dien_2_ol.en.tmp) ****

----------------
TOTAL SCF ENERGY
----------------

Total Energy       :        -75.70280404023167 Eh           -2059.97803 eV

Components:
Nuclear Repulsion  :        289.44702726766957 Eh            7876.25403 eV
Electronic Energy  :       -365.14983337199465 Eh           -9936.23211 eV
One Electron Energy:       -688.18211562606382 Eh          -18726.38740 eV
Two Electron Energy:        323.03228225406917 Eh            8790.15528 eV

Virial components:
Potential Energy   :       -134.69446978218096 Eh           -3665.22286 eV
Kinetic Energy     :         58.99166574194928 Eh            1605.24483 eV
Virial Ratio       :          2.28327964786387

DFT components:
N(Alpha)           :       27.999994080763 electrons
N(Beta)            :       27.999994080763 electrons
N(Total)           :       55.999988161527 electrons
E(X)               :      -11.511931604133 Eh       
E(C)               :       -2.113684921060 Eh       
E(XC)              :      -13.625616525194 Eh       

---------------
SCF CONVERGENCE
---------------

  Last Energy change         ...    1.5111e-08  Tolerance :   1.0000e-08
  Last MAX-Density change    ...    5.6462e-06  Tolerance :   1.0000e-07
  Last RMS-Density change    ...    2.7540e-07  Tolerance :   5.0000e-09
  Last DIIS Error            ...    2.5040e-03  Tolerance :   5.0000e-07
  Last Orbital Gradient      ...    1.4579e-06  Tolerance :   1.0000e-05
  Last Orbital Rotation      ...    5.9228e-06  Tolerance :   1.0000e-05


----------------
ORBITAL ENERGIES
----------------

  NO   OCC          E(Eh)            E(eV) 
   0   2.0000      -1.149312       -31.2744 
   1   2.0000      -0.984560       -26.7912 
   2   2.0000      -0.927192       -25.2302 
   3   2.0000      -0.882850       -24.0236 
   4   2.0000      -0.856608       -23.3095 
   5   2.0000      -0.811002       -22.0685 
   6   2.0000      -0.751684       -20.4544 
   7   2.0000      -0.732237       -19.9252 
   8   2.0000      -0.665542       -18.1103 
   9   2.0000      -0.635733       -17.2992 
  10   2.0000      -0.627904       -17.0861 
  11   2.0000      -0.605008       -16.4631 
  12   2.0000      -0.577131       -15.7045 
  13   2.0000      -0.555279       -15.1099 
  14   2.0000      -0.542507       -14.7624 
  15   2.0000      -0.530877       -14.4459 
  16   2.0000      -0.519598       -14.1390 
  17   2.0000      -0.508923       -13.8485 
  18   2.0000      -0.493368       -13.4252 
  19   2.0000      -0.483274       -13.1506 
  20   2.0000      -0.469651       -12.7798 
  21   2.0000      -0.454592       -12.3701 
  22   2.0000      -0.436581       -11.8800 
  23   2.0000      -0.431636       -11.7454 
  24   2.0000      -0.416047       -11.3212 
  25   2.0000      -0.381399       -10.3784 
  26   2.0000      -0.354854        -9.6561 
  27   2.0000      -0.335610        -9.1324 
  28   0.0000       0.070857         1.9281 
  29   0.0000       0.082455         2.2437 
  30   0.0000       0.086111         2.3432 
  31   0.0000       0.095518         2.5992 
  32   0.0000       0.103882         2.8268 
  33   0.0000       0.113798         3.0966 
  34   0.0000       0.120971         3.2918 
  35   0.0000       0.130747         3.5578 
  36   0.0000       0.140436         3.8215 
  37   0.0000       0.141941         3.8624 
  38   0.0000       0.157968         4.2985 
*Only the first 10 virtual orbitals were printed.

                    ********************************
                    * MULLIKEN POPULATION ANALYSIS *
                    ********************************

-----------------------
MULLIKEN ATOMIC CHARGES
-----------------------
   0 C :   -0.092459
   1 C :   -0.082618
   2 C :   -0.024034
   3 C :   -0.136264
   4 C :   -0.038900
   5 C :   -0.036199
   6 C :    0.028992
   7 C :    0.014262
   8 C :   -0.017726
   9 O :   -0.314823
  10 H :    0.060346
  11 H :    0.054371
  12 H :    0.033851
  13 H :    0.040408
  14 H :    0.020363
  15 H :    0.054607
  16 H :    0.048152
  17 H :    0.036956
  18 H :    0.048368
  19 H :    0.050520
  20 H :    0.041116
  21 H :    0.014714
  22 H :    0.024123
  23 H :    0.171873
Sum of atomic charges:   -0.0000000

--------------------------------
MULLIKEN REDUCED ORBITAL CHARGES
--------------------------------
  0 C s       :     0.958060  s :     0.958060
      pz      :     1.049543  p :     3.061457
      px      :     0.975808
      py      :     1.036106
      dz2     :     0.011698  d :     0.072941
      dxz     :     0.010973
      dyz     :     0.017748
      dx2y2   :     0.013233
      dxy     :     0.019289

  1 C s       :     1.094659  s :     1.094659
      pz      :     0.977333  p :     2.868660
      px      :     0.903566
      py      :     0.987762
      dz2     :     0.027163  d :     0.119299
      dxz     :     0.028246
      dyz     :     0.014195
      dx2y2   :     0.024628
      dxy     :     0.025067

  2 C s       :     0.983466  s :     0.983466
      pz      :     0.981994  p :     2.976568
      px      :     0.996511
      py      :     0.998063
      dz2     :     0.015183  d :     0.063999
      dxz     :     0.016607
      dyz     :     0.006335
      dx2y2   :     0.011638
      dxy     :     0.014236

  3 C s       :     1.019160  s :     1.019160
      pz      :     1.022749  p :     2.992497
      px      :     0.971800
      py      :     0.997949
      dz2     :     0.019835  d :     0.124608
      dxz     :     0.029374
      dyz     :     0.025332
      dx2y2   :     0.021332
      dxy     :     0.028736

  4 C s       :     0.994800  s :     0.994800
      pz      :     1.016983  p :     2.945042
      px      :     0.952942
      py      :     0.975118
      dz2     :     0.011055  d :     0.099058
      dxz     :     0.024044
      dyz     :     0.025668
      dx2y2   :     0.013554
      dxy     :     0.024736

  5 C s       :     1.002865  s :     1.002865
      pz      :     0.993489  p :     2.939495
      px      :     0.944514
      py      :     1.001492
      dz2     :     0.012387  d :     0.093839
      dxz     :     0.022467
      dyz     :     0.023059
      dx2y2   :     0.012769
      dxy     :     0.023156

  6 C s       :     1.058239  s :     1.058239
      pz      :     0.920411  p :     2.735570
      px      :     0.890031
      py      :     0.925128
      dz2     :     0.025338  d :     0.177199
      dxz     :     0.041799
      dyz     :     0.041963
      dx2y2   :     0.029435
      dxy     :     0.038663

  7 C s       :     1.018631  s :     1.018631
      pz      :     0.947957  p :     2.878548
      px      :     0.982478
      py      :     0.948112
      dz2     :     0.008759  d :     0.088559
      dxz     :     0.021221
      dyz     :     0.011007
      dx2y2   :     0.016703
      dxy     :     0.030869

  8 C s       :     1.031290  s :     1.031290
      pz      :     0.958596  p :     2.891916
      px      :     0.978301
      py      :     0.955019
      dz2     :     0.006677  d :     0.094520
      dxz     :     0.024326
      dyz     :     0.012968
      dx2y2   :     0.020092
      dxy     :     0.030458

  9 O s       :     1.658063  s :     1.658063
      pz      :     1.531998  p :     4.624719
      px      :     1.367872
      py      :     1.724848
      dz2     :     0.004962  d :     0.032040
      dxz     :     0.013587
      dyz     :     0.006794
      dx2y2   :     0.002987
      dxy     :     0.003709

 10 H s       :     0.895565  s :     0.895565
      pz      :     0.010748  p :     0.044089
      px      :     0.016438
      py      :     0.016903

 11 H s       :     0.901702  s :     0.901702
      pz      :     0.020397  p :     0.043927
      px      :     0.010869
      py      :     0.012661

 12 H s       :     0.922191  s :     0.922191
      pz      :     0.017190  p :     0.043959
      px      :     0.009857
      py      :     0.016911

 13 H s       :     0.906931  s :     0.906931
      pz      :     0.011878  p :     0.052661
      px      :     0.025177
      py      :     0.015606

 14 H s       :     0.929690  s :     0.929690
      pz      :     0.017926  p :     0.049948
      px      :     0.018458
      py      :     0.013564

 15 H s       :     0.903472  s :     0.903472
      pz      :     0.017940  p :     0.041920
      px      :     0.012248
      py      :     0.011732

 16 H s       :     0.909624  s :     0.909624
      pz      :     0.014446  p :     0.042224
      px      :     0.013899
      py      :     0.013879

 17 H s       :     0.921524  s :     0.921524
      pz      :     0.016869  p :     0.041519
      px      :     0.011638
      py      :     0.013012

 18 H s       :     0.909363  s :     0.909363
      pz      :     0.011208  p :     0.042269
      px      :     0.013818
      py      :     0.017243

 19 H s       :     0.906493  s :     0.906493
      pz      :     0.017899  p :     0.042987
      px      :     0.011836
      py      :     0.013252

 20 H s       :     0.920274  s :     0.920274
      pz      :     0.014751  p :     0.038610
      px      :     0.010105
      py      :     0.013755

 21 H s       :     0.936626  s :     0.936626
      pz      :     0.014757  p :     0.048660
      px      :     0.013219
      py      :     0.020685

 22 H s       :     0.928708  s :     0.928708
      pz      :     0.016405  p :     0.047169
      px      :     0.012548
      py      :     0.018216

 23 H s       :     0.729880  s :     0.729880
      pz      :     0.030449  p :     0.098247
      px      :     0.034616
      py      :     0.033182



                     *******************************
                     * LOEWDIN POPULATION ANALYSIS *
                     *******************************

----------------------
LOEWDIN ATOMIC CHARGES
----------------------
   0 C :   -0.117954
   1 C :   -0.042281
   2 C :   -0.073894
   3 C :   -0.077268
   4 C :   -0.071767
   5 C :   -0.069995
   6 C :   -0.063840
   7 C :   -0.045558
   8 C :   -0.029544
   9 O :   -0.083715
  10 H :    0.057511
  11 H :    0.055587
  12 H :    0.047864
  13 H :    0.032218
  14 H :    0.033763
  15 H :    0.055802
  16 H :    0.054442
  17 H :    0.048803
  18 H :    0.053242
  19 H :    0.052060
  20 H :    0.045806
  21 H :    0.037182
  22 H :    0.042775
  23 H :    0.058758

-------------------------------
LOEWDIN REDUCED ORBITAL CHARGES
-------------------------------
  0 C s       :     0.777457  s :     0.777457
      pz      :     1.064692  p :     3.104580
      px      :     0.989120
      py      :     1.050768
      dz2     :     0.036848  d :     0.235917
      dxz     :     0.035498
      dyz     :     0.059251
      dx2y2   :     0.041358
      dxy     :     0.062961

  1 C s       :     0.801454  s :     0.801454
      pz      :     0.962041  p :     2.863926
      px      :     0.955220
      py      :     0.946665
      dz2     :     0.078200  d :     0.376900
      dxz     :     0.090377
      dyz     :     0.051912
      dx2y2   :     0.074463
      dxy     :     0.081948

  2 C s       :     0.826663  s :     0.826663
      pz      :     1.000458  p :     3.032905
      px      :     1.050623
      py      :     0.981824
      dz2     :     0.042650  d :     0.214325
      dxz     :     0.056233
      dyz     :     0.030733
      dx2y2   :     0.032464
      dxy     :     0.052245

  3 C s       :     0.752669  s :     0.752669
      pz      :     1.001603  p :     2.948111
      px      :     0.970859
      py      :     0.975648
      dz2     :     0.057808  d :     0.376489
      dxz     :     0.089314
      dyz     :     0.077891
      dx2y2   :     0.065767
      dxy     :     0.085709

  4 C s       :     0.765518  s :     0.765518
      pz      :     1.022246  p :     2.989709
      px      :     0.978049
      py      :     0.989415
      dz2     :     0.035355  d :     0.316539
      dxz     :     0.074576
      dyz     :     0.083262
      dx2y2   :     0.044045
      dxy     :     0.079302

  5 C s       :     0.766742  s :     0.766742
      pz      :     1.001379  p :     2.996129
      px      :     0.976946
      py      :     1.017804
      dz2     :     0.043178  d :     0.307124
      dxz     :     0.071537
      dyz     :     0.075141
      dx2y2   :     0.042344
      dxy     :     0.074923

  6 C s       :     0.749882  s :     0.749882
      pz      :     0.946641  p :     2.803960
      px      :     0.898532
      py      :     0.958787
      dz2     :     0.068706  d :     0.509997
      dxz     :     0.124357
      dyz     :     0.126466
      dx2y2   :     0.079796
      dxy     :     0.110672

  7 C s       :     0.816304  s :     0.816304
      pz      :     0.918540  p :     2.937978
      px      :     1.039246
      py      :     0.980191
      dz2     :     0.031629  d :     0.291276
      dxz     :     0.066315
      dyz     :     0.033939
      dx2y2   :     0.057400
      dxy     :     0.101993

  8 C s       :     0.809592  s :     0.809592
      pz      :     0.922854  p :     2.916931
      px      :     1.031158
      py      :     0.962919
      dz2     :     0.021976  d :     0.303021
      dxz     :     0.072978
      dyz     :     0.041183
      dx2y2   :     0.067116
      dxy     :     0.099768

  9 O s       :     1.386478  s :     1.386478
      pz      :     1.566406  p :     4.618594
      px      :     1.402380
      py      :     1.649807
      dz2     :     0.009765  d :     0.078643
      dxz     :     0.030726
      dyz     :     0.013658
      dx2y2   :     0.011441
      dxy     :     0.013053

 10 H s       :     0.796015  s :     0.796015
      pz      :     0.041559  p :     0.146474
      px      :     0.052150
      py      :     0.052764

 11 H s       :     0.797999  s :     0.797999
      pz      :     0.060356  p :     0.146413
      px      :     0.041366
      py      :     0.044691

 12 H s       :     0.806265  s :     0.806265
      pz      :     0.054945  p :     0.145871
      px      :     0.037425
      py      :     0.053502

 13 H s       :     0.810078  s :     0.810078
      pz      :     0.040644  p :     0.157704
      px      :     0.069368
      py      :     0.047692

 14 H s       :     0.814046  s :     0.814046
      pz      :     0.052603  p :     0.152190
      px      :     0.055810
      py      :     0.043777

 15 H s       :     0.794184  s :     0.794184
      pz      :     0.058798  p :     0.150014
      px      :     0.045667
      py      :     0.045549

 16 H s       :     0.801128  s :     0.801128
      pz      :     0.049156  p :     0.144430
      px      :     0.047103
      py      :     0.048171

 17 H s       :     0.805552  s :     0.805552
      pz      :     0.054809  p :     0.145645
      px      :     0.042705
      py      :     0.048131

 18 H s       :     0.802100  s :     0.802100
      pz      :     0.043288  p :     0.144658
      px      :     0.046174
      py      :     0.055196

 19 H s       :     0.800820  s :     0.800820
      pz      :     0.057654  p :     0.147120
      px      :     0.042745
      py      :     0.046722

 20 H s       :     0.813631  s :     0.813631
      pz      :     0.050731  p :     0.140564
      px      :     0.040232
      py      :     0.049600

 21 H s       :     0.809180  s :     0.809180
      pz      :     0.048001  p :     0.153638
      px      :     0.043125
      py      :     0.062512

 22 H s       :     0.805979  s :     0.805979
      pz      :     0.051201  p :     0.151246
      px      :     0.042678
      py      :     0.057367

 23 H s       :     0.635596  s :     0.635596
      pz      :     0.108767  p :     0.305646
      px      :     0.103339
      py      :     0.093540



                      *****************************
                      * MAYER POPULATION ANALYSIS *
                      *****************************

  NA   - Mulliken gross atomic population
  ZA   - Total nuclear charge
  QA   - Mulliken gross atomic charge
  VA   - Mayer's total valence
  BVA  - Mayer's bonded valence
  FA   - Mayer's free valence

  ATOM       NA         ZA         QA         VA         BVA        FA
  0 C      4.0925     4.0000    -0.0925     3.9671     3.9671    -0.0000
  1 C      4.0826     4.0000    -0.0826     4.0795     4.0795     0.0000
  2 C      4.0240     4.0000    -0.0240     3.9781     3.9781     0.0000
  3 C      4.1363     4.0000    -0.1363     4.0552     4.0552     0.0000
  4 C      4.0389     4.0000    -0.0389     3.9571     3.9571    -0.0000
  5 C      4.0362     4.0000    -0.0362     3.9330     3.9330    -0.0000
  6 C      3.9710     4.0000     0.0290     4.0419     4.0419     0.0000
  7 C      3.9857     4.0000     0.0143     3.9810     3.9810    -0.0000
  8 C      4.0177     4.0000    -0.0177     4.0296     4.0296    -0.0000
  9 O      6.3148     6.0000    -0.3148     2.0083     2.0083     0.0000
 10 H      0.9397     1.0000     0.0603     1.0238     1.0238    -0.0000
 11 H      0.9456     1.0000     0.0544     1.0243     1.0243    -0.0000
 12 H      0.9661     1.0000     0.0339     1.0307     1.0307    -0.0000
 13 H      0.9596     1.0000     0.0404     1.0283     1.0283    -0.0000
 14 H      0.9796     1.0000     0.0204     1.0407     1.0407    -0.0000
 15 H      0.9454     1.0000     0.0546     1.0044     1.0044     0.0000
 16 H      0.9518     1.0000     0.0482     1.0180     1.0180    -0.0000
 17 H      0.9630     1.0000     0.0370     1.0204     1.0204    -0.0000
 18 H      0.9516     1.0000     0.0484     1.0232     1.0232    -0.0000
 19 H      0.9495     1.0000     0.0505     1.0316     1.0316    -0.0000
 20 H      0.9589     1.0000     0.0411     1.0121     1.0121     0.0000
 21 H      0.9853     1.0000     0.0147     1.0474     1.0474    -0.0000
 22 H      0.9759     1.0000     0.0241     1.0359     1.0359    -0.0000
 23 H      0.8281     1.0000     0.1719     1.0766     1.0766    -0.0000

  Mayer bond orders larger than 0.100000
B(  0-C ,  1-C ) :   1.0167 B(  0-C , 10-H ) :   0.9844 B(  0-C , 11-H ) :   0.9843 
B(  0-C , 12-H ) :   0.9936 B(  1-C ,  2-C ) :   1.9523 B(  1-C ,  3-C ) :   0.9944 
B(  2-C , 13-H ) :   0.9875 B(  2-C , 14-H ) :   0.9893 B(  3-C ,  4-C ) :   0.9752 
B(  3-C ,  8-C ) :   1.0438 B(  3-C , 15-H ) :   0.9914 B(  4-C ,  5-C ) :   0.9853 
B(  4-C , 16-H ) :   0.9975 B(  4-C , 17-H ) :   0.9963 B(  5-C ,  6-C ) :   0.9802 
B(  5-C , 18-H ) :   1.0009 B(  5-C , 19-H ) :   0.9890 B(  6-C ,  7-C ) :   1.0160 
B(  6-C ,  9-O ) :   0.9739 B(  6-C , 20-H ) :   0.9928 B(  7-C ,  8-C ) :   1.9113 
B(  7-C , 21-H ) :   0.9871 B(  8-C , 22-H ) :   0.9941 B(  9-O , 23-H ) :   1.0447 


-------
TIMINGS
-------

Total SCF time: 0 days 0 hours 0 min 45 sec 

Total time                  ....      45.604 sec
Sum of individual times     ....      43.783 sec  ( 96.0%)

SCF preparation             ....       2.201 sec  (  4.8%)
Fock matrix formation       ....      40.407 sec  ( 88.6%)
  Startup                   ....       0.164 sec  (  0.4% of F)
  Split-RI-J                ....       1.278 sec  (  3.2% of F)
  Chain of spheres X        ....      18.302 sec  ( 45.3% of F)
  XC integration            ....      19.947 sec  ( 49.4% of F)
    Basis function eval.    ....       0.457 sec  (  2.3% of XC)
    Density eval.           ....       0.193 sec  (  1.0% of XC)
    XC-Functional eval.     ....       0.152 sec  (  0.8% of XC)
    XC-Potential eval.      ....       0.278 sec  (  1.4% of XC)
Diagonalization             ....       0.000 sec  (  0.0%)
Density matrix formation    ....       0.191 sec  (  0.4%)
Total Energy calculation    ....       0.252 sec  (  0.6%)
Population analysis         ....       0.052 sec  (  0.1%)
Orbital Transformation      ....       0.061 sec  (  0.1%)
Orbital Orthonormalization  ....       0.000 sec  (  0.0%)
DIIS solution               ....       0.406 sec  (  0.9%)
SOSCF solution              ....       0.214 sec  (  0.5%)
Finished LeanSCF after  45.6 sec

Maximum memory used throughout the entire LEANSCF-calculation: 35.1 MB


           ************************************************************
           *        Program running with 40 parallel MPI-processes    *
           *              working on a common directory               *
           ************************************************************

------------------------------------------------------------------------------
                         ORCA PROPERTY INTEGRAL CALCULATIONS
------------------------------------------------------------------------------

GBWName                                   ... ./output/_e_p_mentha_1_7_8_dien_2_ol/_e_p_mentha_1_7_8_dien_2_ol.gbw
Number of atoms                           ...     24
Number of basis functions                 ...    200
Max core memory                           ...   1024 MB

Dipole integrals                          ... YES
Quadrupole integrals                      ...  NO
Linear momentum integrals                 ...  NO
Angular momentum integrals                ...  NO
Higher moments length integrals           ...  NO
Higher moments velocity integrals         ...  NO
Kinetic energy integrals                  ...  NO
GIAO right hand sides                     ...  NO
GIAO dipole derivative integrals          ...  NO
SOC integrals                             ...  NO
EPR diamagnetic integrals (GIAO)          ...  NO
EPR gauge integrals                       ...  NO
Field gradient integrals                  ...  NO (   0 nuclei)
Spin-dipole/Fermi contact integrals       ...  NO (   0 nuclei)
Contact density integrals                 ...  NO (   0 nuclei)
Nucleus-orbit integrals                   ...  NO (   0 nuclei)
Geometric perturbations                   ...  NO (  24 nuclei)

Choice of electric origin   ... Center of mass
Position of electric origin ... (  0.4991, -0.2248, -0.0209) 
Choice of magnetic origin   ... GIAO
Position of magnetic origin ... (  0.0000,  0.0000,  0.0000) 

Calculating integrals                     ... Electric Dipole (Length)     done (  0.0 sec)

Property integrals calculated in   0.0 sec

Maximum memory used throughout the entire PROPINT-calculation: 15.5 MB


-------------------------------------------------------------------------------
                          DFT DISPERSION CORRECTION                            
                                                                               
                                DFTD4 V3.4.0                                   
-------------------------------------------------------------------------------
The wB97X-3c composite method is recognized
Using three-body term ABC
Active option DFTDOPT                   ...         5   

-------------------------   ----------------
Dispersion correction           -0.028368088
-------------------------   ----------------


-------------------------   --------------------
FINAL SINGLE POINT ENERGY       -75.731172127961
-------------------------   --------------------



           ************************************************************
           *        Program running with 40 parallel MPI-processes    *
           *              working on a common directory               *
           ************************************************************
------------------------------------------------------------------------------
                         ORCA SCF GRADIENT CALCULATION
------------------------------------------------------------------------------

Nuc. rep. gradient        (SHARK) ... done (  0.0 sec)
HCore & Overlap gradient  (SHARK) ... done (  0.0 sec)
ECP gradient              (SHARK) ... done (  0.4 sec)
Split-RIJ-J gradient      (SHARK) ... done (  0.4 sec)
COSX-gradient                     ... done (  5.0 sec)
XC gradient                       ... done (  1.6 sec)
Dispersion correction             ... done (  0.1 sec)

-------------------
DISPERSION GRADIENT
-------------------

   1   C   :   -0.000688291    0.000154214   -0.000022737
   2   C   :   -0.000618018   -0.000128978   -0.000149666
   3   C   :   -0.000406541   -0.000595824   -0.000669138
   4   C   :   -0.000227611    0.000164042    0.000405168
   5   C   :    0.000067140    0.000806920    0.000028998
   6   C   :    0.000399813    0.000505460   -0.000409653
   7   C   :    0.000572175    0.000002494    0.000007904
   8   C   :    0.000425533   -0.000518386    0.000472028
   9   C   :   -0.000009707   -0.000478830    0.000735526
  10   O   :    0.000580951   -0.000166855   -0.000219626
  11   H   :   -0.000148017    0.000011906    0.000015590
  12   H   :   -0.000147490    0.000057430   -0.000035523
  13   H   :   -0.000187210    0.000060330    0.000021196
  14   H   :   -0.000110862   -0.000190460   -0.000195433
  15   H   :   -0.000033428   -0.000102101   -0.000122434
  16   H   :   -0.000062205    0.000068998    0.000178028
  17   H   :    0.000031339    0.000231860   -0.000046865
  18   H   :    0.000003881    0.000228095    0.000057395
  19   H   :    0.000075589    0.000130312   -0.000113218
  20   H   :    0.000132212    0.000080129   -0.000203336
  21   H   :    0.000189396    0.000017803    0.000021347
  22   H   :    0.000066441   -0.000147873    0.000092141
  23   H   :   -0.000005536   -0.000151843    0.000182240
  24   H   :    0.000100447   -0.000038843   -0.000029935

[...]
 11:    243.99   0.024957  126.12  0.031919  ( 0.122432  0.130007  0.005251)
 12:    300.94   0.000340    1.72  0.000353  (-0.016859 -0.004934  0.006649)
 13:    337.54   0.000283    1.43  0.000262  (-0.006955  0.010926  0.009700)
 14:    349.77   0.000776    3.92  0.000692  (-0.002339 -0.024181  0.010111)
 15:    385.04   0.000970    4.90  0.000786  ( 0.006866 -0.025958 -0.008082)
 16:    455.64   0.000185    0.94  0.000127  ( 0.010080  0.000556 -0.004982)
 17:    486.27   0.000575    2.90  0.000369  ( 0.019186 -0.000453 -0.000734)
 18:    527.65   0.002439   12.32  0.001442  ( 0.023969  0.006108 -0.028817)
 19:    594.13   0.000499    2.52  0.000262  (-0.002300  0.015998  0.001010)
 20:    615.42   0.001158    5.85  0.000587  ( 0.019097 -0.003109 -0.014580)
 21:    729.75   0.001734    8.76  0.000741  (-0.016380 -0.007734 -0.020329)
 22:    749.29   0.000174    0.88  0.000072  (-0.004943 -0.002019  0.006624)
 23:    761.20   0.003187   16.10  0.001306  ( 0.008505  0.017525  0.030446)
 24:    845.43   0.000010    0.05  0.000004  ( 0.000288  0.000014  0.001857)
 25:    888.53   0.003050   15.42  0.001071  ( 0.020612  0.003250  0.025218)
 26:    940.41   0.000395    2.00  0.000131  (-0.004936  0.006013  0.008399)
 27:    956.52   0.008070   40.78  0.002633  ( 0.023682  0.035513 -0.028473)
 28:    987.62   0.000504    2.55  0.000159  ( 0.000194  0.012341  0.002644)
 29:    994.61   0.002896   14.64  0.000909  (-0.002780  0.023492  0.018683)
 30:   1021.63   0.000449    2.27  0.000137  (-0.001240 -0.003093 -0.011232)
 31:   1027.24   0.000016    0.08  0.000005  (-0.002133 -0.000527  0.000124)
 32:   1056.31   0.000708    3.58  0.000209  (-0.004620 -0.002852  0.013399)
 33:   1078.84   0.001280    6.47  0.000370  ( 0.015945  0.001663 -0.010635)
 34:   1095.98   0.000313    1.58  0.000089  ( 0.005092  0.004303 -0.006674)
 35:   1117.62   0.010665   53.90  0.002978  ( 0.039379 -0.019545 -0.032330)
 36:   1139.57   0.014195   71.74  0.003887  ( 0.052253 -0.015646 -0.030199)
 37:   1142.73   0.000551    2.78  0.000150  (-0.009941 -0.000492  0.007160)
 38:   1194.05   0.000633    3.20  0.000165  (-0.002961 -0.002403 -0.012281)
 39:   1214.45   0.004544   22.96  0.001168  ( 0.025587 -0.009429 -0.020592)
 40:   1276.65   0.001331    6.73  0.000325  (-0.015831 -0.005897 -0.006326)
 41:   1287.26   0.000198    1.00  0.000048  (-0.003731  0.003904  0.004352)
 42:   1310.26   0.007297   36.88  0.001738  (-0.022584  0.013116  0.032495)
 43:   1366.17   0.002287   11.56  0.000522  ( 0.021813  0.003861 -0.005633)
 44:   1383.42   0.001017    5.14  0.000229  ( 0.006049 -0.007860 -0.011443)
 45:   1385.29   0.001581    7.99  0.000356  (-0.017829 -0.000753  0.006138)
 46:   1412.39   0.001196    6.05  0.000264  ( 0.011652 -0.003605 -0.010750)
 47:   1425.81   0.001358    6.86  0.000297  (-0.013964  0.001594  0.009981)
 48:   1443.90   0.002724   13.77  0.000589  ( 0.021810 -0.010039 -0.003505)
 49:   1460.87   0.001789    9.04  0.000382  ( 0.014383  0.002935 -0.012909)
 50:   1472.73   0.000720    3.64  0.000152  (-0.009635 -0.001053 -0.007653)
 51:   1477.45   0.000249    1.26  0.000053  (-0.001692 -0.002594 -0.006551)
 52:   1511.52   0.001611    8.14  0.000333  ( 0.007183  0.011334 -0.012347)
 53:   1520.02   0.001157    5.85  0.000238  ( 0.004083 -0.002333  0.014677)
 54:   1525.30   0.004606   23.28  0.000942  ( 0.005997  0.022902  0.019542)
 55:   1529.79   0.001513    7.64  0.000309  ( 0.002229  0.011027 -0.013491)
 56:   1773.97   0.004080   20.62  0.000718  (-0.002980  0.022954  0.013486)
 57:   1784.24   0.000962    4.86  0.000168  (-0.011484  0.001922 -0.005714)
 58:   3043.61   0.008535   43.13  0.000875  ( 0.014517  0.015817  0.020351)
 59:   3080.58   0.002843   14.37  0.000288  ( 0.012447  0.001611 -0.011422)
 60:   3100.04   0.002821   14.26  0.000284  ( 0.016209 -0.003841  0.002542)
 61:   3104.97   0.012486   63.10  0.001255  (-0.011916  0.027058  0.019513)
 62:   3122.92   0.003483   17.60  0.000348  ( 0.008494  0.009307 -0.013758)
 63:   3165.00   0.004269   21.57  0.000421  ( 0.013103 -0.009694  0.012460)
 64:   3179.45   0.002733   13.81  0.000268  (-0.002865 -0.012601  0.010065)
 65:   3181.75   0.003052   15.42  0.000299  (-0.010428 -0.013358 -0.003482)
 66:   3209.03   0.002011   10.16  0.000196  (-0.012644  0.005925 -0.000776)
 67:   3209.58   0.000219    1.11  0.000021  (-0.002240 -0.001629 -0.003696)
 68:   3211.74   0.003364   17.00  0.000327  ( 0.010261  0.007846  0.012650)
 69:   3236.08   0.003286   16.60  0.000317  ( 0.000464 -0.013914  0.011091)
 70:   3307.65   0.000787    3.98  0.000074  (-0.007078 -0.000661 -0.004873)
 71:   3964.46   0.010981   55.49  0.000864  (-0.025486  0.013150 -0.006474)

* The epsilon (eps) is given for a Dirac delta lineshape.
** The dipole moment derivative (T) already includes vibrational overlap.

The first frequency considered to be a vibration is 6
The total number of vibrations considered is 66


--------------------------
THERMOCHEMISTRY AT 298.15K
--------------------------

Temperature         ...   298.15 K
Pressure            ...     1.00 atm
Total Mass          ...   138.21 AMU
Quasi RRHO          ...     True
Cut-Off Frequency   ...     1.00 cm^-1

Throughout the following assumptions are being made:
  (1) The electronic state is orbitally nondegenerate
  (2) There are no thermally accessible electronically excited states
  (3) Hindered rotations indicated by low frequency modes are not
      treated as such but are treated as vibrations and this may
      cause some error
  (4) All equations used are the standard statistical mechanics
      equations for an ideal gas
  (5) All vibrations are strictly harmonic

freq.      61.47  E(vib)   ...       0.51 
freq.      73.41  E(vib)   ...       0.49 
freq.     173.59  E(vib)   ...       0.38 
freq.     188.94  E(vib)   ...       0.36 
freq.     202.88  E(vib)   ...       0.35 
freq.     243.99  E(vib)   ...       0.31 
freq.     300.94  E(vib)   ...       0.26 
freq.     337.54  E(vib)   ...       0.24 
freq.     349.77  E(vib)   ...       0.23 
freq.     385.04  E(vib)   ...       0.20 
freq.     455.64  E(vib)   ...       0.16 
freq.     486.27  E(vib)   ...       0.15 
freq.     527.65  E(vib)   ...       0.13 
freq.     594.13  E(vib)   ...       0.10 
freq.     615.42  E(vib)   ...       0.10 
freq.     729.75  E(vib)   ...       0.06 
freq.     749.29  E(vib)   ...       0.06 
freq.     761.20  E(vib)   ...       0.06 
freq.     845.43  E(vib)   ...       0.04 
freq.     888.53  E(vib)   ...       0.04 
freq.     940.41  E(vib)   ...       0.03 
freq.     956.52  E(vib)   ...       0.03 
freq.     987.62  E(vib)   ...       0.02 
freq.     994.61  E(vib)   ...       0.02 
freq.    1021.63  E(vib)   ...       0.02 
freq.    1027.24  E(vib)   ...       0.02 
freq.    1056.31  E(vib)   ...       0.02 
freq.    1078.84  E(vib)   ...       0.02 
freq.    1095.98  E(vib)   ...       0.02 
freq.    1117.62  E(vib)   ...       0.01 
freq.    1139.57  E(vib)   ...       0.01 
freq.    1142.73  E(vib)   ...       0.01 
freq.    1194.05  E(vib)   ...       0.01 
freq.    1214.45  E(vib)   ...       0.01 
freq.    1276.65  E(vib)   ...       0.01 
freq.    1287.26  E(vib)   ...       0.01 
freq.    1310.26  E(vib)   ...       0.01 
freq.    1366.17  E(vib)   ...       0.01 
freq.    1383.42  E(vib)   ...       0.00 
freq.    1385.29  E(vib)   ...       0.00 
freq.    1412.39  E(vib)   ...       0.00 
freq.    1425.81  E(vib)   ...       0.00 
freq.    1443.90  E(vib)   ...       0.00 
freq.    1460.87  E(vib)   ...       0.00 
freq.    1472.73  E(vib)   ...       0.00 
freq.    1477.45  E(vib)   ...       0.00 
freq.    1511.52  E(vib)   ...       0.00 
freq.    1520.02  E(vib)   ...       0.00 
freq.    1525.30  E(vib)   ...       0.00 
freq.    1529.79  E(vib)   ...       0.00 
freq.    1773.97  E(vib)   ...       0.00 
freq.    1784.24  E(vib)   ...       0.00 
freq.    3043.61  E(vib)   ...       0.00 
freq.    3080.58  E(vib)   ...       0.00 
freq.    3100.04  E(vib)   ...       0.00 
freq.    3104.97  E(vib)   ...       0.00 
freq.    3122.92  E(vib)   ...       0.00 
freq.    3165.00  E(vib)   ...       0.00 
freq.    3179.45  E(vib)   ...       0.00 
freq.    3181.75  E(vib)   ...       0.00 
freq.    3209.03  E(vib)   ...       0.00 
freq.    3209.58  E(vib)   ...       0.00 
freq.    3211.74  E(vib)   ...       0.00 
freq.    3236.08  E(vib)   ...       0.00 
freq.    3307.65  E(vib)   ...       0.00 
freq.    3964.46  E(vib)   ...       0.00 

------------
INNER ENERGY
------------

The inner energy is: U= E(el) + E(ZPE) + E(vib) + E(rot) + E(trans)
    E(el)   - is the total energy from the electronic structure calculation
              = E(kin-el) + E(nuc-el) + E(el-el) + E(nuc-nuc)
    E(ZPE)  - the the zero temperature vibrational energy from the frequency calculation
    E(vib)  - the the finite temperature correction to E(ZPE) due to population
              of excited vibrational states
    E(rot)  - is the rotational thermal energy
    E(trans)- is the translational thermal energy

Summary of contributions to the inner energy U:
Electronic energy                ...    -75.74440645 Eh
Zero point energy                ...      0.21734262 Eh     136.38 kcal/mol
Thermal vibrational correction   ...      0.00726319 Eh       4.56 kcal/mol
Thermal rotational correction    ...      0.00141627 Eh       0.89 kcal/mol
Thermal translational correction ...      0.00141627 Eh       0.89 kcal/mol
-----------------------------------------------------------------------
Total thermal energy                    -75.51696810 Eh


Summary of corrections to the electronic energy:
(perhaps to be used in another calculation)
Total thermal correction                  0.01009574 Eh       6.34 kcal/mol
Non-thermal (ZPE) correction              0.21734262 Eh     136.38 kcal/mol
-----------------------------------------------------------------------
Total correction                          0.22743835 Eh     142.72 kcal/mol


--------
ENTHALPY
--------

The enthalpy is H = U + kB*T
                kB is Boltzmann's constant
Total thermal energy              ...    -75.51696810 Eh 
Thermal Enthalpy correction       ...      0.00094421 Eh       0.59 kcal/mol
-----------------------------------------------------------------------
Total Enthalpy                    ...    -75.51602389 Eh


Note: Only C1 symmetry has been detected, increase convergence thresholds 
      if your molecule has a higher symmetry. Symmetry factor of 1.0 is   
      used for the rotational entropy correction. 
 

Note: Rotational entropy computed according to Herzberg 
Infrared and Raman Spectra, Chapter V,1, Van Nostrand Reinhold, 1945 
Point Group:  C1, Symmetry Number:   1  
Rotational constants in cm-1:     0.086019     0.028498     0.027295 

Vibrational entropy computed according to the QRRHO of S. Grimme
Chem.Eur.J. 2012 18 9955 using a reference frequency of 100.0 cm-1


-------
ENTROPY
-------

The entropy contributions are T*S = T*(S(el)+S(vib)+S(rot)+S(trans))
     S(el)   - electronic entropy
     S(vib)  - vibrational entropy
     S(rot)  - rotational entropy
     S(trans)- translational entropy
The entropies will be listed as multiplied by the temperature to get
units of energy

Electronic entropy                ...      0.00000000 Eh      0.00 kcal/mol
Vibrational entropy               ...      0.01214002 Eh      7.62 kcal/mol
Rotational entropy                ...      0.01404861 Eh      8.82 kcal/mol
Translational entropy             ...      0.01932955 Eh     12.13 kcal/mol
-----------------------------------------------------------------------
Final entropy term                ...      0.04551818 Eh     28.56 kcal/mol

In case the symmetry of your molecule has not been determined correctly
or in case you have a reason to use a different symmetry number we print 
out the resulting rotational entropy values for sn=1,12:

 non-linear molecules -----------------------------------
|  sn= 1 | S(rot)=       0.01404861 Eh      8.82 kcal/mol|
|  sn= 2 | S(rot)=       0.01339415 Eh      8.40 kcal/mol|
|  sn= 3 | S(rot)=       0.01301132 Eh      8.16 kcal/mol|
|  sn= 4 | S(rot)=       0.01273970 Eh      7.99 kcal/mol|
|  sn= 5 | S(rot)=       0.01252901 Eh      7.86 kcal/mol|
|  sn= 6 | S(rot)=       0.01235687 Eh      7.75 kcal/mol|
|  sn= 7 | S(rot)=       0.01221132 Eh      7.66 kcal/mol|
|  sn= 8 | S(rot)=       0.01208524 Eh      7.58 kcal/mol|
|  sn= 9 | S(rot)=       0.01197403 Eh      7.51 kcal/mol|
|  sn=10 | S(rot)=       0.01187455 Eh      7.45 kcal/mol|
|  sn=11 | S(rot)=       0.01178456 Eh      7.39 kcal/mol|
|  sn=12 | S(rot)=       0.01170241 Eh      7.34 kcal/mol|
 linear molecules ---------------------------------------
|  Dinfh | S(rot)=       0.00872585 Eh      5.48 kcal/mol|
|  Cinfv | S(rot)=       0.00938031 Eh      5.89 kcal/mol|
 --------------------------------------------------------


-------------------
GIBBS FREE ENERGY
-------------------

The Gibbs free energy is G = H - T*S

Total enthalpy                    ...    -75.51602389 Eh 
Total entropy correction          ...     -0.04551818 Eh    -28.56 kcal/mol
-----------------------------------------------------------------------
Final Gibbs free energy         ...    -75.56154207 Eh

For completeness - the Gibbs free energy minus the electronic energy
G-E(el)                           ...      0.18286438 Eh    114.75 kcal/mol


Maximum memory used throughout the entire PROP-calculation: 101.7 MB

--------------------------------
SUGGESTED CITATIONS FOR THIS RUN
--------------------------------

Below you find a list of papers that are relevant to this ORCA run
We neither can nor want to force you to cite these papers, but we appreciate if you do
You receive ORCA, which is the product of decades of hard work by many enthusiastic individuals, for free
The only thing we kindly ask in return is that you cite our papers,
We deeply appreciate it, if you show your appreciation for ORCA by not just citing the generic ORCA reference.

Please note that relegating all ORCA citations to the supporting information does *not* help us.
SI sections are not indexed - citations you put there will not count into any citation statistics
But we need these citations in order to attract the funding resources that allow us to do what we are doing

Therefore, if you are a happy ORCA user, please consider citing a few of the papers listed below in the main body of your paper

In addition to the list printed below, the program has created the file ./output/_e_p_mentha_1_7_8_dien_2_ol/_e_p_mentha_1_7_8_dien_2_ol.bibtex that contains the list in bibtex format
You can import this file easily into all common literature databanks and citation aid programs


List of essential papers. We consider these as the minimum necessary citations

  1. Neese,F.
     Software update: the ORCA program system, version 5.0
     WIRES Comput. Molec. Sci., 2022 12(1)e1606
     doi.org/10.1002/wcms.1606
  2. Mueller,M.; Hansen,A.; Grimme,S.
     wB97X-3c: A composite range-separated hybrid DFT method with a molecule-optimized polarized valence double-zeta basis set
     J. Chem. Phys., 2023 158 014103
     doi.org/10.1063/5.0133026

List of papers to cite with high priority. The work reported in these papers was absolutely
necessary for this run to complete.
Our perspective: the developers of density functionals and basis sets usually get cited in chemistry papers
Good! But without the algorithms to do something with them, the functionals or basis sets would not do anything.
Hence, in our opinion, the algorithm design and method developments papers are equally worthy of getting cited

  1. Neese,F.
     An improvement of the resolution of the identity approximation for the formation of the Coulomb matrix
     J. Comp. Chem., 2003 24(14)1740-1747
     doi.org/10.1002/jcc.10318
  2. Neese,F.; Wennmohs,F.; Hansen,A.; Becker,U.
     Efficient, approximate and parallel Hartree-Fock and hybrid DFT calculations. A 'chain-of-spheres' algorithm for the Hartree-Fock exchange
     Chem. Phys., 2009 356(1-3)98-109
     doi.org/10.1016/j.chemphys.2008.10.036
  3. Bykov,D.; Petrenko,T.; Izsak,R.; Kossmann,S.; Becker,U.; Valeev,E.; Neese,F.
     Efficient implementation of the analytic second derivatives of Hartree-Fock and hybrid DFT energies: a detailed analysis of different approximations
     Molec. Phys., 2015 113 1961-1977
     doi.org/10.1080/00268976.2015.1025114
  4. Helmich-Paris,B.; de Souza,B.; Neese,F.; Izsák,R.
     An improved chain of spheres for exchange algorithm
     J. Chem. Phys., 2021 155 104109
     doi.org/doi: 10.1063/5.0058766.
  5. Neese,F.
     The SHARK Integral Generation and Digestion System
     J. Comp. Chem., 2022  1-16
     doi.org/10.1002/jcc.26942
  6. Caldeweyher,E.; Bannwarth,C.; Grimme,S.
     Extension of the D3 dispersion coefficient model
     J. Chem. Phys., 2017 147 034112
     doi.org/10.1063/1.4993215
  7. Caldeweyher,E.; Ehlert,S.; Hansen,A.; Neugebauer,H.; Spicher,S.; Bannwarth,C.; Grimme,S.
     A generally applicable atomic-charge dependent London dispersion correction
     J. Chem. Phys., 2019 150 154122
     doi.org/10.1063/1.5090222
  8. Caldeweyher,E.; Mewes,J.; Ehlert,S.; Grimme,S.
     Extension and evaluation of the D4 London-dispersion model for periodic systems
     Phys. Chem. Chem. Phys., 2020 22(16)8499-8512
     doi.org/10.1039/D0CP00502A
  9. Wittmann,L.; Gordiy,I.; Friede,M.; Helmich-Paris,B.; Grimme,S.; Hansen,A.; Bursch,M.
     Extension of the D3 and D4 London Dispersion Corrections to the full Actinides Series
     Phys. Chem. Chem. Phys., 2024 26(32)21379-21394
     doi.org/https://doi.org/10.1039/D4CP01514B 

List of suggested additional citations. These are papers that are important in the 'surrounding' of 
of this run, or papers that preceded the highly important papers. If you like your results we are grateful for a citation.

  1. Izsak,R.; Neese,F.
     An overlap fitted chain of spheres exchange method
     J. Chem. Phys., 2011 135 144105
     doi.org/10.1063/1.3646921
  2. Izsak,R.; Hansen,A.; Neese,F.
     The resolution of identity and chain of spheres approximations for the LPNO-CCSD singles Fock term
     Molec. Phys., 2012 110 2413-2417
     doi.org/10.1080/00268976.2012.687466
  3. Neese,F.
     The ORCA program system
     WIRES Comput. Molec. Sci., 2012 2(1)73-78
     doi.org/10.1002/wcms.81
  4. Izsak,R.; Neese,F.; Klopper,W.
     Robust fitting techniques in the chain of spheres approximation to the Fock exchange: The role of the complementary space
     J. Chem. Phys., 2013 139 
     doi.org/10.1063/1.4819264
  5. Neese,F.
     Software update: the ORCA program system, version 4.0
     WIRES Comput. Molec. Sci., 2018 8(1)1-6
     doi.org/10.1002/wcms.1327
  6. Neese,F.; Wennmohs,F.; Becker,U.; Riplinger,C.
     The ORCA quantum chemistry program package
     J. Chem. Phys., 2020 152 Art. No. L224108
     doi.org/10.1063/5.0004608

List of optional additional citations

  1. Neese,F.
     Approximate second-order SCF convergence for spin unrestricted wavefunctions
     Chem. Phys. Lett., 2000 325(1-3)93-98
     doi.org/10.1016/s0009-2614(00)00662-x

Timings for individual modules:

Sum of individual times          ...      998.837 sec (=  16.647 min)
Startup calculation              ...       62.139 sec (=   1.036 min)   6.2 %
SCF iterations                   ...      647.332 sec (=  10.789 min)  64.8 %
Property integrals               ...       48.624 sec (=   0.810 min)   4.9 %
SCF Response                     ...       30.088 sec (=   0.501 min)   3.0 %
Property calculations            ...       67.163 sec (=   1.119 min)   6.7 %
SCF Gradient evaluation          ...      143.226 sec (=   2.387 min)  14.3 %
Geometry relaxation              ...        0.264 sec (=   0.004 min)   0.0 %
                             ****ORCA TERMINATED NORMALLY****
TOTAL RUN TIME: 0 days 0 hours 16 minutes 47 seconds 506 msec
