
                                 *****************
                                 * O   R   C   A *
                                 *****************

                                            #,                                       
                                            ###                                      
                                            ####                                     
                                            #####                                    
                                            ######                                   
                                           ########,                                 
                                     ,,################,,,,,                         
                               ,,#################################,,                 
                          ,,##########################################,,             
                       ,#########################################, ''#####,          
                    ,#############################################,,   '####,        
                  ,##################################################,,,,####,       
                ,###########''''           ''''###############################       
              ,#####''   ,,,,##########,,,,          '''####'''          '####       
            ,##' ,,,,###########################,,,                        '##       
           ' ,,###''''                  '''############,,,                           
         ,,##''                                '''############,,,,        ,,,,,,###''
      ,#''                                            '''#######################'''  
     '                                                          ''''####''''         
             ,#######,   #######,   ,#######,      ##                                
            ,#'     '#,  ##    ##  ,#'     '#,    #''#        ,####,   ,####,        
            ##       ##  ##   ,#'  ##            #'  '#       #'       #'  '#        
            ##       ##  #######   ##           ,######,      #####,   #    #        
            '#,     ,#'  ##    ##  '#,     ,#' ,#      #,     #,   #   #,  ,#        
             '#######'   ##     ##  '#######'  #'      '#     '####' # '####'        



                #########################################################
                #                        -***-                          #
                #          Department of theory and spectroscopy        #
                #                                                       #
                #                      Frank Neese                      #
                #                                                       #
                #     Directorship, Architecture, Infrastructure        #
                #                    SHARK, DRIVERS                     #
                #        Core code/Algorithms in most modules           #
                #                                                       #
                #        Max Planck Institute fuer Kohlenforschung      #
                #                Kaiser Wilhelm Platz 1                 #
                #                 D-45470 Muelheim/Ruhr                 #
                #                      Germany                          #
                #                                                       #
                #                  All rights reserved                  #
                #                        -***-                          #
                #########################################################


                         Program Version 6.0.1  -  RELEASE   -


 With contributions from (in alphabetic order):
[Max-Planck-Institut fuer Kohlenforschung]                               
  Daniel Aravena         : Magnetic Suceptibility                        
  Michael Atanasov       : Ab Initio Ligand Field Theory (pilot matlab implementation)
  Alexander A. Auer      : GIAO ZORA, VPT2 properties, NMR spectrum      
  Ute Becker             : All parallelization in ORCA, NUMFREQ, NUMCALC 
  Giovanni Bistoni       : ED, misc. LED, open-shell LED, HFLD           
  Martin Brehm           : Molecular dynamics                            
  Dmytro Bykov           : pre 5.0 version of the SCF Hessian            
  Marcos Casanova-Páez   : Triplet and SCS-CIS(D). UHF-(DLPNO)-IP/EA/STEOM-CCSD. UHF-CVS-IP/STEOM-CCSD   
  Vijay G. Chilkuri      : MRCI spin determinant printing, contributions to CSF-ICE 
  Pauline Colinet        : FMM embedding                                 
  Dipayan Datta          : RHF DLPNO-CCSD density                        
  Achintya Kumar Dutta   : EOM-CC, STEOM-CC                              
  Nicolas Foglia         : Exact transition moments, OPA infrastructure, MCD improvements    
  Dmitry Ganyushin       : Spin-Orbit,Spin-Spin,Magnetic field MRCI      
  Miquel Garcia-Rates    : C-PCM and meta-GGA Hessian, CCSD/C-PCM, Gaussian charge scheme 
  Tiago L. C. Gouveia    : GS-ROHF, GS-ROCIS                             
  Yang Guo               : DLPNO-NEVPT2, F12-NEVPT2, CIM, IAO-localization        
  Andreas Hansen         : Spin unrestricted coupled pair/coupled cluster methods 
  Ingolf Harden          : AUTO-CI MPn and infrastructure                
  Benjamin Helmich-Paris : MC-RPA, TRAH-(SCF,CASSCF), AVAS, COSX integrals, SCF dyn. polar. 
  Lee Huntington         : MR-EOM, pCC                                   
  Robert Izsak           : Overlap fitted RIJCOSX, COSX-SCS-MP3, EOM     
  Riya Kayal             : Wick's Theorem for AUTO-CI, AUTO-CI UHF-CCSDT 
  Emily Kempfer          : AUTO-CI, RHF CISDT and CCSDT                  
  Christian Kollmar      : KDIIS, OOCD, Brueckner-CCSD(T), CCSD density, CASPT2, CASPT2-K, improved NEVPT2 
  Axel Koslowski         : Symmetry handling                             
  Simone Kossmann        : meta-GGA functionals, TD-DFT gradient, OOMP2, (MP2 Hessian; deprecated post 5.0) 
  Lucas Lang             : DCDCAS                                        
  Marvin Lechner         : AUTO-CI (C++ implementation), FIC-MRCC        
  Spencer Leger          : CASSCF response                               
  Dagmar Lenk            : GEPOL surface, SMD, ORCA-2-JSON               
  Dimitrios Liakos       : Extrapolation schemes; Compound Job, initial MDCI parallelization 
  Dimitrios Manganas     : Further ROCIS development; embedding schemes. LFT, Crystal Embedding 
  Dimitrios Pantazis     : SARC Basis sets                               
  Anastasios Papadopoulos: AUTO-CI, single reference methods and gradients 
  Taras Petrenko         : pre 6.0 DFT Hessian and TD-DFT gradient, (ASA, deprecated), ECA, 1-Electron XAS/XES, NRVS 
  Peter Pinski           : DLPNO-MP2, DLPNO-MP2 Gradient                 
  Christoph Reimann      : Effective Core Potentials                     
  Marius Retegan         : Local ZFS, SOC                                
  Christoph Riplinger    : Optimizer, TS searches, QM/MM, DLPNO-CCSD(T), (RO)-DLPNO pert. Triples 
  Michael Roemelt        : Original ROCIS implementation                 
  Masaaki Saitow         : Open-shell DLPNO-CCSD energy and density      
  Barbara Sandhoefer     : DKH picture change effects                    
  Kantharuban Sivalingam : CASSCF convergence/infrastructure, NEVPT2 and variants, FIC-MRCI 
  Bernardo de Souza      : ESD, SOC TD-DFT                               
  Georgi L. Stoychev     : AutoAux, RI-MP2 NMR, DLPNO-MP2 response, X2C  
  Van Anh Tran           : RI-MP2 g-tensors                              
  Willem Van den Heuvel  : Paramagnetic NMR                              
  Zikuan Wang            : NOTCH, Electric field optimization            
  Frank Wennmohs         : Technical directorship and infrastructure     
  Hang Xu                : AUTO-CI-Response properties                   
                                                                         
[FACCTs GmbH]                                                            
  Markus Bursch, Miquel Garcia-Rates, Christoph Riplinger, Bernardo de Souza, Georgi L. Stoychev 
                                                                 
  APM, Basis sets (HGBS, AHGBS, def-TZVP (Ac-Lr), def2-XVPD (La-Lu)), CI-OPT, improved COSX, DLPNO-Multilevel,           
  DOCKER, DRACO, updates on ESD, GOAT, IRC, LR-CPCM, MBIS, meta-GGA TD-DFT gradient, ML-optimized integration grids, 
  MM, NACMEs, nearIR, NEB, NEB-TS, NL-DFT gradient (VV10), 2- and 3-layer-ONIOM, interface openCOSMO-RS, QMMM,   
  Crystal-QMMM, SF, symmetry and pop. for TD-DFT, r2SCAN hybrids, SOLVATOR                                   
                                                                         
[Other institutions]                                                     
  V. Asgeirsson          : NEB                                           
  Christoph Bannwarth    : sTDA-DFT, sTD-DFT, PBEh-3c, B97-3c, D3        
  Sebastian Ehlert       : rSCAN, r2SCAN, r2SCAN-3c, D4, dhf basis sets  
  Marvin Friede          : D4 for Fr, Ra, Ac-Lr                          
  Lars Goerigk           : TD-DFT with DH, B97 family of functionals     
  Stefan Grimme          : VdW corrections, initial TS optimization, DFT functionals, gCP, sTDA/sTD-DF 
  Waldemar Hujo          : DFT-NL                                        
  H. Jonsson             : NEB                                           
  Holger Kruse           : gCP                                           
  Marcel Mueller         : wB97X-3c, vDZP basis set                      
  Hagen Neugebauer       : wr2SCAN                                       
  Tobias Risthaus        : range-separated hybrid DFT                    
  Lukas Wittmann         : regularized MP2, r2SCAN double-hybrids, wr2SCAN        
                                                                         
We gratefully acknowledge several colleagues who have allowed us to      
interface, adapt or use parts of their codes:                            
  Ed Valeev, F. Pavosevic, A. Kumar             : LibInt (2-el integral package), F12 methods 
  Garnet Chan, S. Sharma, J. Yang, R. Olivares  : DMRG                   
  Ulf Ekstrom                                   : XCFun DFT Library      
  Mihaly Kallay                                 : mrcc  (arbitrary order and MRCC methods)
  Frank Weinhold                                : gennbo (NPA and NBO analysis)           
  Simon Mueller                                 : openCOSMO-RS                            
  Christopher J. Cramer and Donald G. Truhlar   : smd solvation model                     
  S Lehtola, MJT Oliveira, MAL Marques          : LibXC Library                           
  Liviu Ungur et al                             : ANISO software                          


 Your calculation uses the libint2 library for the computation of 2-el integrals
 For citations please refer to: http://libint.valeyev.net

 Your ORCA version has been built with support for libXC version: 6.2.2
 For citations please refer to: https://libxc.gitlab.io

 This ORCA versions uses:
   CBLAS   interface :  Fast vector & matrix operations
   LAPACKE interface :  Fast linear algebra routines
   SCALAPACK package :  Parallel linear algebra routines
   Shared memory     :  Shared parallel matrices
   BLAS/LAPACK       :  OpenBLAS 0.3.27  USE64BITINT DYNAMIC_ARCH NO_AFFINITY SkylakeX SINGLE_THREADED
        Core in use  :  SkylakeX
   Copyright (c) 2011-2014, The OpenBLAS Project


Your calculation utilizes the atom-pairwise dispersion correction
based on EEQ partial charges (D4)


================================================================================

cite the ECPs for C  [vDZP-ECP], O  [vDZP-ECP] as follows:
   B-Ne (ecp-2-mwb), Al-Ar (ecp-10-mwb), Ga-Kr (ecp-28-mwb), Y-Cd (ecp-28-mwb), In-Xe (ecp-46-mwb):
     A. Bergner, M. Dolg, W. Küchle, H. Stoll, and H. Preuß, Mol. Phys. 80, 1431 (1993)., T. Leininger, A. Berning, A. Nicklass, H. Stoll, H.-J. Werner, and H.-J.Flad, Chem. Phys. 217, 19 (1997).
   Na-Mg, K-Ca, Rb-Sr, Cs-Ba (CRENBL):
     L. Fernandez Pacios and P. A. Christiansen, J. Chem. Phys. 82, 2664 (1985)., M. M. Hurley, L. F. Pacios, P. A. Christiansen, R. B. Ross, and W. C. Ermler, J. Chem. Phys. 84, 6840 (1986)., L. A. LaJohn, P. A. Christiansen, R. B. Ross, T. Atashroo, and W. C. Ermler, J. Chem. Phys. 87, 2812 (1987)., R. B. Ross, J. M. Powers, T. Atashroo, W. C. Ermler, L. A. LaJohn, and P. A. Christiansen, J. Chem. Phys. 93, 6654 (1990). 
   Sc-Zn (ecp-10-mdf):
     M. Dolg, U. Wedig, H. Stoll, and H. Preuss, J. Chem. Phys. 86, 866 (1986). 
   Y-Cd (ecp-28-mwb), Hf-Hg (ecp-60-mwb):
     D. Andrae, U. Häußermann, M. Dolg, H. Stoll, and H. Preuß, Theor. Chim. Acta 77, 123 (1990). 
   La (ecp-46-mwb):
     M. Dolg, H. Stoll, and H. Preuss, J. Chem. Phys. 90, 1730 (1989)., M. Dolg, H. Stoll, and H. Preuss, Theor. Chim. Acta 85, 441 (1993).
   Ce-Lu (SBKJC-ecp):
     T. R. Cundari and W. J. Stevens, J. Chem. Phys. 98, 5555 (1993).
   Tl-Rn (ecp-78-mwb):
     W. Küchle, M. Dolg, H. Stoll, and H. Preuss, Mol. Phys. 74, 1245 (1991).

ECP parameters for C  [vDZP-ECP], O  [vDZP-ECP] have been obtained from:
MM, AH, SG, J. Chem. Phys. 158, 014103 (2023), 10.1063/5.0133026

----- Orbital basis set information -----
Your calculation utilizes the basis: vDZP
   Marcel Mueller, Andreas Hansen, Stefan Grimme 
   J. Chem. Phys. 158, 014103 (2023). DOI: 10.1063/5.0133026

----- AuxJ basis set information -----
Your calculation utilizes the auxiliary basis: def2/J
   F. Weigend, Phys. Chem. Chem. Phys. 8, 1057 (2006).

================================================================================
                                        WARNINGS
                       Please study these warnings very carefully!
================================================================================

WARNING: Frozen-Core approximation turned on, but there are no core electrons.
  ===> : Turning off frozen-core approximation


WARNING: Geometry Optimization
  ===> : Switching off AutoStart
         For restart on a previous wavefunction, please use MOREAD

================================================================================
                                       INPUT FILE
================================================================================
NAME = ./output/cinnamyl_acetate/cinnamyl_acetate.inp
|  1> ! wB97X-3c OPT FREQ TightSCF
|  2> %pal
|  3>   nprocs 40
|  4> end
|  5> * xyz 0 1
|  6> C      4.680079     0.729094    -0.942972
|  7> C      3.954277    -0.349284    -0.212977
|  8> O      4.600299    -1.166487     0.497850
|  9> O      2.560289    -0.413958    -0.287725
| 10> C      1.799587    -1.401962     0.400177
| 11> C      0.342981    -1.200964     0.121570
| 12> C     -0.289150    -0.092902     0.528276
| 13> C     -1.725573     0.181751     0.277777
| 14> C     -2.184119     1.506785     0.380913
| 15> C     -3.530726     1.812387     0.161698
| 16> C     -4.436784     0.798038    -0.153435
| 17> C     -3.998940    -0.524741    -0.244185
| 18> C     -2.652962    -0.836732    -0.026721
| 19> H      4.065064     1.091923    -1.793031
| 20> H      5.643062     0.341240    -1.337104
| 21> H      4.879998     1.573725    -0.251474
| 22> H      2.102554    -2.412363     0.049881
| 23> H      1.983742    -1.331935     1.494550
| 24> H     -0.173534    -1.969556    -0.436253
| 25> H      0.288517     0.670833     1.037849
| 26> H     -1.496933     2.308267     0.623987
| 27> H     -3.871778     2.836852     0.237315
| 28> H     -5.479224     1.036078    -0.321217
| 29> H     -4.705052    -1.311522    -0.476707
| 30> H     -2.355673    -1.874565    -0.076254
| 31> *
| 32> 
| 33>                          ****END OF INPUT****
================================================================================

                       *****************************
                       * Geometry Optimization Run *
                       *****************************

Geometry optimization settings:
Update method            Update   .... BFGS
Choice of coordinates    CoordSys .... (2022) Redundant Internals
Initial Hessian          InHess   .... Almloef's Model
Max. no of cycles        MaxIter  .... 75

Convergence Tolerances:
Energy Change            TolE     ....  5.0000e-06 Eh
Max. Gradient            TolMAXG  ....  3.0000e-04 Eh/bohr
RMS Gradient             TolRMSG  ....  1.0000e-04 Eh/bohr
Max. Displacement        TolMAXD  ....  4.0000e-03 bohr
RMS Displacement         TolRMSD  ....  2.0000e-03 bohr
Strict Convergence                .... False

------------------------------------------------------------------------------
                        ORCA OPTIMIZATION COORDINATE SETUP
------------------------------------------------------------------------------

The optimization will be done in redundant internal coordinates (2022)
Making redundant internal coordinates   ...  (2022 redundants) done
Evaluating the initial hessian          ...  (Almloef) done
Evaluating the coordinates              ...  done
Calculating the B-matrix                .... done
Calculating the G-matrix                .... done
Diagonalizing the G-matrix              .... done
Small eigenvalue found = 3.901e-03
Small eigenvalue found = 1.036e-02
Small eigenvalue found = 2.429e-02
The first mode is                       ....   43
The number of degrees of freedom        ....   69

    -----------------------------------------------------------------
                    Redundant Internal Coordinates


    -----------------------------------------------------------------
         Definition                    Initial Value    Approx d2E/dq
    -----------------------------------------------------------------
      1. B(C   1,C   0)                  1.4908         0.431387   
      2. B(O   2,C   1)                  1.2611         0.898431   
      3. B(O   3,C   1)                  1.3975         0.544414   
      4. B(C   4,O   3)                  1.4241         0.493730   
      5. B(C   5,C   4)                  1.4966         0.422389   
      6. B(C   6,C   5)                  1.3390         0.753663   
      7. B(C   7,C   6)                  1.4837         0.442768   
      8. B(C   8,C   7)                  1.4059         0.589300   
      9. B(C   9,C   8)                  1.3981         0.606387   
     10. B(C  10,C   9)                  1.3961         0.610904   
     11. B(C  11,C  10)                  1.3963         0.610475   
     12. B(C  12,C  11)                  1.3987         0.605204   
     13. B(C  12,C   7)                  1.4107         0.579044   
     14. B(H  13,C   0)                  1.1102         0.334376   
     15. B(H  14,C   0)                  1.1105         0.334034   
     16. B(H  15,C   0)                  1.1097         0.334902   
     17. B(H  16,C   4)                  1.1115         0.332767   
     18. B(H  17,C   4)                  1.1120         0.332183   
     19. B(H  18,C   5)                  1.0811         0.372125   
     20. B(H  19,C   6)                  1.0847         0.367130   
     21. B(H  20,C   8)                  1.0834         0.368983   
     22. B(H  21,C   9)                  1.0824         0.370312   
     23. B(H  22,C  10)                  1.0824         0.370355   
     24. B(H  23,C  11)                  1.0824         0.370236   
     25. B(H  24,C  12)                  1.0807         0.372603   
     26. A(H  13,C   0,H  14)          108.8319         0.284135   
     27. A(C   1,C   0,H  14)          110.0804         0.328009   
     28. A(C   1,C   0,H  13)          109.9762         0.328064   
     29. A(H  13,C   0,H  15)          109.1578         0.284249   
     30. A(C   1,C   0,H  15)          109.4588         0.328150   
     31. A(H  14,C   0,H  15)          109.3156         0.284204   
     32. A(C   0,C   1,O   3)          119.5320         0.395112   
     33. A(O   2,C   1,O   3)          120.7394         0.447432   
     34. A(C   0,C   1,O   2)          119.6910         0.431864   
     35. A(C   1,O   3,C   4)          122.6224         0.402012   
     36. A(O   3,C   4,H  17)          110.0749         0.333089   
     37. A(C   5,C   4,H  17)          109.6303         0.326572   
     38. A(O   3,C   4,H  16)          109.4414         0.333186   
     39. A(O   3,C   4,C   5)          109.6820         0.386991   
     40. A(H  16,C   4,H  17)          108.8008         0.283677   
     41. A(C   5,C   4,H  16)          109.1910         0.326667   
     42. A(C   6,C   5,H  18)          121.3007         0.366890   
     43. A(C   4,C   5,H  18)          117.7491         0.332757   
     44. A(C   4,C   5,C   6)          120.9373         0.419649   
     45. A(C   7,C   6,H  19)          117.6803         0.334618   
     46. A(C   5,C   6,H  19)          118.2901         0.366041   
     47. A(C   5,C   6,C   7)          123.9837         0.423194   
     48. A(C   8,C   7,C  12)          118.8066         0.424886   
     49. A(C   6,C   7,C  12)          122.6312         0.403840   
     50. A(C   6,C   7,C   8)          118.5434         0.405094   
     51. A(C   7,C   8,H  20)          120.4523         0.351336   
     52. A(C   7,C   8,C   9)          120.5727         0.428413   
     53. A(C   9,C   8,H  20)          118.9732         0.353038   
     54. A(C   8,C   9,C  10)          120.1089         0.431190   
     55. A(C  10,C   9,H  21)          119.9304         0.353698   
     56. A(C   8,C   9,H  21)          119.9607         0.353253   
     57. A(C   9,C  10,C  11)          119.9639         0.431711   
     58. A(C  11,C  10,H  22)          120.0184         0.353663   
     59. A(C   9,C  10,H  22)          120.0166         0.353705   
     60. A(C  10,C  11,C  12)          120.1966         0.430984   
     61. A(C  12,C  11,H  23)          119.9351         0.353124   
     62. A(C  10,C  11,H  23)          119.8669         0.353643   
     63. A(C   7,C  12,C  11)          120.3409         0.426917   
     64. A(C  11,C  12,H  24)          118.1518         0.353506   
     65. A(C   7,C  12,H  24)          121.4919         0.350873   
     66. D(O   2,C   1,C   0,H  13)    158.1751         0.013742   
     67. D(O   2,C   1,C   0,H  15)    -81.9069         0.013742   
     68. D(O   2,C   1,C   0,H  14)     38.2698         0.013742   
     69. D(O   3,C   1,C   0,H  13)    -24.0378         0.013742   
     70. D(O   3,C   1,C   0,H  14)   -143.9431         0.013742   
     71. D(C   4,O   3,C   1,O   2)     -1.1817         0.021417   
     72. D(C   4,O   3,C   1,C   0)   -178.9451         0.021417   
     73. D(H  17,C   4,O   3,C   1)     59.1379         0.019257   
     74. D(H  16,C   4,O   3,C   1)    -60.3912         0.019257   
     75. D(C   5,C   4,O   3,C   1)    179.8414         0.019257   
     76. D(H  18,C   5,C   4,O   3)    114.2618         0.013188   
     77. D(C   6,C   5,C   4,H  17)     56.5268         0.013188   
     78. D(C   6,C   5,C   4,H  16)    175.6340         0.013188   
     79. D(H  18,C   5,C   4,H  16)     -5.6586         0.013188   
     80. D(C   6,C   5,C   4,O   3)    -64.4456         0.013188   
     81. D(H  19,C   6,C   5,H  18)   -176.7485         0.040546   
     82. D(H  19,C   6,C   5,C   4)      1.9127         0.040546   
     83. D(C   7,C   6,C   5,H  18)      0.7240         0.040546   
     84. D(C   7,C   6,C   5,C   4)    179.3852         0.040546   
     85. D(C  12,C   7,C   6,C   5)     20.5033         0.013373   
     86. D(C   8,C   7,C   6,H  19)     16.3908         0.013373   
     87. D(C   8,C   7,C   6,C   5)   -161.0959         0.013373   
     88. D(C  12,C   7,C   6,H  19)   -162.0100         0.013373   
     89. D(H  20,C   8,C   7,C  12)    179.3444         0.023896   
     90. D(H  20,C   8,C   7,C   6)      0.8813         0.023896   
     91. D(C   9,C   8,C   7,C  12)     -1.1446         0.023896   
     92. D(C   9,C   8,C   7,C   6)   -179.6076         0.023896   
     93. D(H  21,C   9,C   8,H  20)     -0.0803         0.025378   
     94. D(H  21,C   9,C   8,C   7)   -179.5985         0.025378   
     95. D(C  10,C   9,C   8,H  20)    179.9792         0.025378   
     96. D(C  10,C   9,C   8,C   7)      0.4610         0.025378   
     97. D(H  22,C  10,C   9,H  21)     -0.0425         0.025779   
     98. D(H  22,C  10,C   9,C   8)    179.8979         0.025779   
     99. D(C  11,C  10,C   9,H  21)   -179.6603         0.025779   
    100. D(C  11,C  10,C   9,C   8)      0.2802         0.025779   
    101. D(H  23,C  11,C  10,H  22)     -0.3639         0.025741   
    102. D(H  23,C  11,C  10,C   9)    179.2538         0.025741   
    103. D(C  12,C  11,C  10,H  22)   -179.9336         0.025741   
    104. D(C  12,C  11,C  10,C   9)     -0.3159         0.025741   
    105. D(H  24,C  12,C  11,C  10)    178.2104         0.025274   
    106. D(C   7,C  12,C  11,H  23)   -179.9559         0.025274   
    107. D(C   7,C  12,C  11,C  10)     -0.3866         0.025274   
    108. D(H  24,C  12,C   7,C   8)   -177.4428         0.023032   
    109. D(H  24,C  12,C   7,C   6)      0.9540         0.023032   
    110. D(C  11,C  12,C   7,C   8)      1.1065         0.023032   
    111. D(H  24,C  12,C  11,H  23)     -1.3589         0.025274   
    112. D(C  11,C  12,C   7,C   6)    179.5033         0.023032   
    -----------------------------------------------------------------

Number of atoms                         .... 25
Number of degrees of freedom            .... 112


         *************************************************************
         *                GEOMETRY OPTIMIZATION CYCLE   1            *
         *************************************************************
---------------------------------
CARTESIAN COORDINATES (ANGSTROEM)
---------------------------------
  C      4.680079    0.729094   -0.942972
  C      3.954277   -0.349284   -0.212977
  O      4.600299   -1.166487    0.497850
  O      2.560289   -0.413958   -0.287725
  C      1.799587   -1.401962    0.400177
  C      0.342981   -1.200964    0.121570
  C     -0.289150   -0.092902    0.528276
  C     -1.725573    0.181751    0.277777
  C     -2.184119    1.506785    0.380913
  C     -3.530726    1.812387    0.161698
  C     -4.436784    0.798038   -0.153435
  C     -3.998940   -0.524741   -0.244185
  C     -2.652962   -0.836732   -0.026721
  H      4.065064    1.091923   -1.793031
  H      5.643062    0.341240   -1.337104
  H      4.879998    1.573725   -0.251474
  H      2.102554   -2.412363    0.049881
  H      1.983742   -1.331935    1.494550
  H     -0.173534   -1.969556   -0.436253
  H      0.288517    0.670833    1.037849
  H     -1.496933    2.308267    0.623987
  H     -3.871778    2.836852    0.237315
  H     -5.479224    1.036078   -0.321217
  H     -4.705052   -1.311522   -0.476707
  H     -2.355673   -1.874565   -0.076254

----------------------------
CARTESIAN COORDINATES (A.U.)
----------------------------
  NO LB      ZA    FRAG     MASS         X           Y           Z
   0 C     4.0000*   0    12.011    8.844068    1.377788   -1.781959
   1 C     4.0000*   0    12.011    7.472501   -0.660051   -0.402468
   2 O     6.0000*   0    15.999    8.693305   -2.204341    0.940800
   3 O     6.0000*   0    15.999    4.838245   -0.782267   -0.543721
   4 C     4.0000*   0    12.011    3.400727   -2.649324    0.756225
   5 C     4.0000*   0    12.011    0.648140   -2.269493    0.229734
   6 C     4.0000*   0    12.011   -0.546414   -0.175559    0.998297
   7 C     4.0000*   0    12.011   -3.260860    0.343460    0.524922
   8 C     4.0000*   0    12.011   -4.127387    2.847411    0.719821
   9 C     4.0000*   0    12.011   -6.672105    3.424915    0.305565
  10 C     4.0000*   0    12.011   -8.384307    1.508073   -0.289950
  11 C     4.0000*   0    12.011   -7.556901   -0.991617   -0.461443
  12 C     4.0000*   0    12.011   -5.013372   -1.581194   -0.050495
  13 H     1.0000    0     1.008    7.681858    2.063435   -3.388338
  14 H     1.0000    0     1.008   10.663842    0.644850   -2.526760
  15 H     1.0000    0     1.008    9.221860    2.973909   -0.475217
  16 H     1.0000    0     1.008    3.973251   -4.558705    0.094261
  17 H     1.0000    0     1.008    3.748729   -2.516992    2.824290
  18 H     1.0000    0     1.008   -0.327932   -3.721921   -0.824399
  19 H     1.0000    0     1.008    0.545218    1.267691    1.961250
  20 H     1.0000    0     1.008   -2.828793    4.361992    1.179165
  21 H     1.0000    0     1.008   -7.316600    5.360873    0.448460
  22 H     1.0000    0     1.008  -10.354233    1.957904   -0.607012
  23 H     1.0000    0     1.008   -8.891260   -2.478417   -0.900846
  24 H     1.0000    0     1.008   -4.451577   -3.542414   -0.144099
* core charge reduced due to ECP

--------------------------------
INTERNAL COORDINATES (ANGSTROEM)
--------------------------------
 C      0   0   0     0.000000000000     0.00000000     0.00000000
 C      1   0   0     1.490832101248     0.00000000     0.00000000
 O      2   1   0     1.261126556545   119.69102401     0.00000000
 O      2   1   3     1.397487936951   119.53196873   177.78709459
 C      4   2   1     1.424088690505   122.62240012   181.05488931
 C      5   4   2     1.496570444613   109.68195455   179.84140164
 C      6   5   4     1.338955102847   120.93726485   295.55439075
 C      7   6   5     1.483743594540   123.98368805   179.38516530
 C      8   7   6     1.405921964324   118.54341195   198.90407089
 C      9   8   7     1.398140983978   120.57271873   180.39239920
 C     10   9   8     1.396120983602   120.10892140     0.46098923
 C     11  10   9     1.396312004416   119.96388200     0.28022899
 C     12  11  10     1.398672853766   120.19656899   359.68412509
 H      1   2   3     1.110175047885   109.97621224   158.17508416
 H      1   2   3     1.110453518626   110.08038078    38.26981564
 H      1   2   3     1.109747095840   109.45876223   278.09306410
 H      5   4   2     1.111488403676   109.44142825   299.60879116
 H      5   4   2     1.111966324977   110.07491701    59.13792671
 H      6   5   4     1.081058697305   117.74912505   114.26180072
 H      7   6   5     1.084737274847   118.29006821     1.91273640
 H      9   8   7     1.083366495880   120.45233325     0.88133239
 H     10   9   8     1.082387607846   119.96065939   180.40145211
 H     11  10   9     1.082356223581   120.01659457   179.89793678
 H     12  11  10     1.082443984227   119.86689247   179.25377118
 H     13  12  11     1.080708843074   118.15181432   178.21044484

---------------------------
INTERNAL COORDINATES (A.U.)
---------------------------
 C      0   0   0     0.000000000000     0.00000000     0.00000000
 C      1   0   0     2.817264383018     0.00000000     0.00000000
 O      2   1   0     2.383183812084   119.69102401     0.00000000
 O      2   1   3     2.640869476296   119.53196873   177.78709459
 C      4   2   1     2.691137615469   122.62240012   181.05488931
 C      5   4   2     2.828108280439   109.68195455   179.84140164
 C      6   5   4     2.530258449998   120.93726485   295.55439075
 C      7   6   5     2.803869046641   123.98368805   179.38516530
 C      8   7   6     2.656807478237   118.54341195   198.90407089
 C      9   8   7     2.642103556329   120.57271873   180.39239920
 C     10   9   8     2.638286308829   120.10892140     0.46098923
 C     11  10   9     2.638647285853   119.96388200     0.28022899
 C     12  11  10     2.643108644567   120.19656899   359.68412509
 H      1   2   3     2.097926801216   109.97621224   158.17508416
 H      1   2   3     2.098453034652   110.08038078    38.26981564
 H      1   2   3     2.097118089053   109.45876223   278.09306410
 H      5   4   2     2.100408683977   109.44142825   299.60879116
 H      5   4   2     2.101311824350   110.07491701    59.13792671
 H      6   5   4     2.042904872599   117.74912505   114.26180072
 H      7   6   5     2.049856376717   118.29006821     1.91273640
 H      9   8   7     2.047265979880   120.45233325     0.88133239
 H     10   9   8     2.045416149579   119.96065939   180.40145211
 H     11  10   9     2.045356841913   120.01659457   179.89793678
 H     12  11  10     2.045522685499   119.86689247   179.25377118
 H     13  12  11     2.042243743917   118.15181432   178.21044484

---------------------
BASIS SET INFORMATION
---------------------
There are 3 groups of distinct atoms

 Group   1 Type C   : 6s6p2d contracted to 2s2p1d pattern {42/42/2}
 Group   2 Type O   : 6s6p2d contracted to 2s2p1d pattern {42/42/2}
 Group   3 Type H   : 8s2p contracted to 2s1p pattern {53/2}

Atom   0C    basis set group =>   1
Atom   1C    basis set group =>   1
Atom   2O    basis set group =>   2
Atom   3O    basis set group =>   2
Atom   4C    basis set group =>   1
Atom   5C    basis set group =>   1
Atom   6C    basis set group =>   1
Atom   7C    basis set group =>   1
Atom   8C    basis set group =>   1
Atom   9C    basis set group =>   1
Atom  10C    basis set group =>   1
Atom  11C    basis set group =>   1
Atom  12C    basis set group =>   1
Atom  13H    basis set group =>   3
Atom  14H    basis set group =>   3
Atom  15H    basis set group =>   3
Atom  16H    basis set group =>   3
Atom  17H    basis set group =>   3
Atom  18H    basis set group =>   3
Atom  19H    basis set group =>   3
Atom  20H    basis set group =>   3
Atom  21H    basis set group =>   3
Atom  22H    basis set group =>   3
Atom  23H    basis set group =>   3
Atom  24H    basis set group =>   3
---------------------------------
AUXILIARY/J BASIS SET INFORMATION
---------------------------------
There are 3 groups of distinct atoms

 Group   1 Type C   : 12s5p4d2f1g contracted to 6s4p3d1f1g pattern {711111/2111/211/2/1}
 Group   2 Type O   : 12s5p4d2f1g contracted to 6s4p3d1f1g pattern {711111/2111/211/2/1}
 Group   3 Type H   : 5s2p1d contracted to 3s1p1d pattern {311/2/1}

Atom   0C    basis set group =>   1
Atom   1C    basis set group =>   1
Atom   2O    basis set group =>   2
Atom   3O    basis set group =>   2
Atom   4C    basis set group =>   1
Atom   5C    basis set group =>   1
Atom   6C    basis set group =>   1
Atom   7C    basis set group =>   1
Atom   8C    basis set group =>   1
Atom   9C    basis set group =>   1
Atom  10C    basis set group =>   1
Atom  11C    basis set group =>   1
Atom  12C    basis set group =>   1
Atom  13H    basis set group =>   3
Atom  14H    basis set group =>   3
Atom  15H    basis set group =>   3
Atom  16H    basis set group =>   3
Atom  17H    basis set group =>   3
Atom  18H    basis set group =>   3
Atom  19H    basis set group =>   3
Atom  20H    basis set group =>   3
Atom  21H    basis set group =>   3
Atom  22H    basis set group =>   3
Atom  23H    basis set group =>   3
Atom  24H    basis set group =>   3
-------------------------
ECP PARAMETER INFORMATION
-------------------------

 Group 1, Type C  ECP vDZP-ECP (replacing 2 core electrons, lmax=3)
 Group 2, Type O  ECP vDZP-ECP (replacing 2 core electrons, lmax=3)

Atom   0C    ECP group =>   1
Atom   1C    ECP group =>   1
Atom   2O    ECP group =>   2
Atom   3O    ECP group =>   2
Atom   4C    ECP group =>   1
Atom   5C    ECP group =>   1
Atom   6C    ECP group =>   1
Atom   7C    ECP group =>   1
Atom   8C    ECP group =>   1
Atom   9C    ECP group =>   1
Atom  10C    ECP group =>   1
Atom  11C    ECP group =>   1
Atom  12C    ECP group =>   1



           ************************************************************
           *        Program running with 40 parallel MPI-processes    *
           *              working on a common directory               *
           ************************************************************
------------------------------------------------------------------------------
                             ORCA STARTUP CALCULATIONS
                           -- RI-GTO INTEGRALS CHOSEN --
------------------------------------------------------------------------------
------------------------------------------------------------------------------
                   ___                                                        
                  /   \      - P O W E R E D   B Y -                         
                 /     \                                                     
                 |  |  |   _    _      __       _____    __    __             
                 |  |  |  | |  | |    /  \     |  _  \  |  |  /  |          
                  \  \/   | |  | |   /    \    | | | |  |  | /  /          
                 / \  \   | |__| |  /  /\  \   | |_| |  |  |/  /          
                |  |  |   |  __  | /  /__\  \  |    /   |      \           
                |  |  |   | |  | | |   __   |  |    \   |  |\   \          
                \     /   | |  | | |  |  |  |  | |\  \  |  | \   \       
                 \___/    |_|  |_| |__|  |__|  |_| \__\ |__|  \__/        
                                                                              
                      - O R C A' S   B I G   F R I E N D -                    
                                      &                                       
                       - I N T E G R A L  F E E D E R -                       
                                                                              
 v1 FN, 2020, v2 2021, v3 2022-2024                                           
------------------------------------------------------------------------------


----------------------
SHARK INTEGRAL PACKAGE
----------------------

Number of atoms                             ...     25
Number of basis functions                   ...    229
Number of shells                            ...    101
Maximum angular momentum                    ...      2
Integral batch strategy                     ... SHARK/LIBINT Hybrid
RI-J (if used) integral strategy            ... SPLIT-RIJ (Revised 2003 algorithm where possible)
Printlevel                                  ...      1
Contraction scheme used                     ... SEGMENTED contraction
Prescreening option                         ... SCHWARTZ
   Thresh                                   ... 2.500e-11
   Tcut                                     ... 2.500e-12
   Tpresel                                  ... 2.500e-12 
Coulomb Range Separation                    ... NOT USED
Exchange Range Separation                   ... Long Range
   Mu parameter                             ... 3.000e-01
   Scaling (regular/separated)              ... 1.670e-01 8.330e-01
Multipole approximations                    ... NOT USED
Finite Nucleus Model                        ... NOT USED
CABS basis                                  ... NOT available
Auxiliary Coulomb fitting basis             ... AVAILABLE
   # of basis functions in Aux-J            ...    769
   # of shells in Aux-J                     ...    255
   Maximum angular momentum in Aux-J        ...      4
Auxiliary J/K fitting basis                 ... NOT available
Auxiliary Correlation fitting basis         ... NOT available
Auxiliary 'external' fitting basis          ... NOT available

Checking pre-screening integrals            ... done (  0.0 sec) Dimension = 101
Check shell pair data                       ... done (  0.0 sec)
Shell pair information
Shell pair cut-off parameter TPreSel        ...   2.5e-12
Total number of shell pairs                 ...      5151
Shell pairs after pre-screening             ...      4875
Total number of primitive shell pairs       ...     46116
Primitive shell pairs kept                  ...     32871
          la=0 lb=0:   1240 shell pairs
          la=1 lb=0:   1805 shell pairs
          la=1 lb=1:    679 shell pairs
          la=2 lb=0:    619 shell pairs
          la=2 lb=1:    446 shell pairs
          la=2 lb=2:     86 shell pairs

Calculating one electron integrals          ... done (  0.0 sec)
Calculating ECP integrals                   ... done (  0.1 sec)
Calculating RI/J V-Matrix + Cholesky decomp.... done (  0.0 sec)
Calculating Nuclear repulsion               ... done (  0.0 sec) ENN=    360.439039366258 Eh

Diagonalization of the overlap matrix:
Smallest eigenvalue                        ... 4.475e-04
Time for diagonalization                   ...    0.007 sec
Threshold for overlap eigenvalues          ... 1.000e-07
Number of eigenvalues below threshold      ... 0
Time for construction of square roots      ...    0.005 sec
Total time needed                          ...    0.017 sec

-------------------
DFT GRID GENERATION
-------------------

General Integration Accuracy     IntAcc      ... 4.388
Radial Grid Type                 RadialGrid  ... OptM3 with GC (2021)
Angular Grid (max. ang.)         AngularGrid ... 4 (Lebedev-302)
Angular grid pruning method      GridPruning ... 4 (adaptive)
Weight generation scheme         WeightScheme... mBecke (2022)
Basis function cutoff            BFCut       ... 1.0000e-11
Integration weight cutoff        WCut        ... 1.0000e-14
Partially contracted basis set               ... off
Rotationally invariant grid construction     ... off
Angular grids for H and He will be reduced by one unit

Total number of grid points                  ...   116885
Total number of batches                      ...     1838
Average number of points per batch           ...       63
Average number of grid points per atom       ...     4675

--------------------
COSX GRID GENERATION
--------------------

GRIDX 1
-------
General Integration Accuracy     IntAcc      ... 3.816
Radial Grid Type                 RadialGrid  ... OptM3 with GC (2021)
Angular Grid (max. ang.)         AngularGrid ... 1 (Lebedev-50)
Angular grid pruning method      GridPruning ... 4 (adaptive)
Weight generation scheme         WeightScheme... mBecke (2022)
Basis function cutoff            BFCut       ... 1.0000e-11
Integration weight cutoff        WCut        ... 1.0000e-14
Partially contracted basis set               ... on
Rotationally invariant grid construction     ... off
Angular grids for H and He will be reduced by one unit

Total number of grid points                  ...    14911
Total number of batches                      ...      131
Average number of points per batch           ...      113
Average number of grid points per atom       ...      596
UseSFitting                                  ... on

GRIDX 2
-------
General Integration Accuracy     IntAcc      ... 4.020
Radial Grid Type                 RadialGrid  ... OptM3 with GC (2021)
Angular Grid (max. ang.)         AngularGrid ... 2 (Lebedev-110)
Angular grid pruning method      GridPruning ... 4 (adaptive)
Weight generation scheme         WeightScheme... mBecke (2022)
Basis function cutoff            BFCut       ... 1.0000e-11
Integration weight cutoff        WCut        ... 1.0000e-14
Partially contracted basis set               ... on
Rotationally invariant grid construction     ... off
Angular grids for H and He will be reduced by one unit

Total number of grid points                  ...    32355
Total number of batches                      ...      265
Average number of points per batch           ...      122
Average number of grid points per atom       ...     1294
UseSFitting                                  ... on

GRIDX 3
-------
General Integration Accuracy     IntAcc      ... 4.338
Radial Grid Type                 RadialGrid  ... OptM3 with GC (2021)
Angular Grid (max. ang.)         AngularGrid ... 3 (Lebedev-194)
Angular grid pruning method      GridPruning ... 4 (adaptive)
Weight generation scheme         WeightScheme... mBecke (2022)
Basis function cutoff            BFCut       ... 1.0000e-11
Integration weight cutoff        WCut        ... 1.0000e-14
Partially contracted basis set               ... on
Rotationally invariant grid construction     ... off
Angular grids for H and He will be reduced by one unit

Total number of grid points                  ...    71069
Total number of batches                      ...      570
Average number of points per batch           ...      124
Average number of grid points per atom       ...     2843
UseSFitting                                  ... on
Initializing property integral containers    ... done (  0.0 sec)

SHARK setup successfully completed in   3.5 seconds

Maximum memory used throughout the entire STARTUP-calculation: 33.3 MB


           ************************************************************
           *        Program running with 40 parallel MPI-processes    *
           *              working on a common directory               *
           ************************************************************
-------------------------------------------------------------------------------
                                 ORCA GUESS
                   Start orbitals & Density for SCF / CASSCF
-------------------------------------------------------------------------------

------------
SCF SETTINGS
------------
Hamiltonian:
 Density Functional     Method          .... DFT(GTOs)
 Exchange Functional    Exchange        .... WB97X-V
 Correlation Functional Correlation     .... WB97X-V
 Gradients option       PostSCFGGA      .... off
 Hybrid DFT is turned on
   Fraction HF Exchange ScalHFX         ....  0.167000
   Scaling of DF-GGA-X  ScalDFX         ....  0.000000
   Scaling of DF-GGA-C  ScalDFC         ....  1.000000
   Scaling of DF-LDA-C  ScalLDAC        ....  1.000000
   Perturbative correction              ....  0.000000
 Long-range corrected/Screened/Range-Separated Hybrid DFT is turned on
   Amount of maximum screened exact exchange              ....  0.833000
   Range separation parameter mu (erf(mu*r12)/r12)        ....  0.300000
   NL short-range parameter             ....  6.000000
   NL long-range parameter              ....  0.010000
 RI-approximation to the Coulomb term is turned on
   Number of AuxJ basis functions       .... 769
   RIJ-COSX (HFX calculated with COS-X)).... on


General Settings:
 Integral files         IntName         .... ./output/cinnamyl_acetate/cinnamyl_acetate
 Hartree-Fock type      HFTyp           .... RHF
 Total Charge           Charge          ....    0
 Multiplicity           Mult            ....    1
 Number of Electrons    NEL             ....   68
 Basis Dimension        Dim             ....  229
 Nuclear Repulsion      ENuc            ....    360.4390393663 Eh

Convergence Acceleration:
 AO-DIIS                CNVDIIS         .... on
   Start iteration      DIISMaxIt       ....    12
   Startup error        DIISStart       ....  0.200000
   # of expansion vecs  DIISMaxEq       ....     5
   Bias factor          DIISBfac        ....   1.050
   Max. coefficient     DIISMaxC        ....  10.000
 MO-DIIS                CNVKDIIS        .... off
 Trust-Rad. Augm. Hess. CNVTRAH         .... auto
   Auto Start mean grad. ratio tolernc. ....  1.125000
   Auto Start start iteration           ....    50
   Auto Start num. interpolation iter.  ....    10
   Max. Number of Micro iterations      ....    24
   Max. Number of Macro iterations      .... Maxiter - #DIIS iter
   Number of Davidson start vectors     ....     2
   Converg. threshold    (grad. norm)   ....   1.000e-05
   Grad. Scal. Fac. for Micro threshold ....   0.100
   Minimum threshold for Micro iter.    ....   1.000e-02
   NR start threshold (gradient norm)   ....   1.000e-04
   Initial trust radius                 ....   0.400
   Minimum AH scaling param. (alpha)    ....   1.000
   Maximum AH scaling param. (alpha)    .... 1000.000
   Quad. conv. algorithm                .... NR
   White noise on init. David. guess    .... on
   Maximum white noise                  ....   0.010
   Pseudo random numbers                .... off
   Inactive MOs                         .... canonical
   Orbital update algorithm             .... Taylor
   Preconditioner                       .... Diag
   Full preconditioner red. dimension   ....   250
 SOSCF                  CNVSOSCF        .... on
   Start iteration      SOSCFMaxIt      ....   150
   Startup grad/error   SOSCFStart      ....  0.003300
   Hessian update       SOSCFHessUp     .... L-BFGS
 Level Shifting         CNVShift        .... on
   Level shift para.    LevelShift      ....    0.2500
   Turn off err/grad.   ShiftErr        ....    0.0010
 Zerner damping         CNVZerner       .... off
 Static damping         CNVDamp         .... on
   Fraction old density DampFac         ....    0.7000
   Max. Damping (<1)    DampMax         ....    0.9800
   Min. Damping (>=0)   DampMin         ....    0.0000
   Turn off err/grad.   DampErr         ....    0.1000

SCF Procedure:
 Maximum # iterations   MaxIter         ....   125
 SCF integral mode      SCFMode         .... Direct
   Integral package                     .... SHARK and LIBINT hybrid scheme
 Reset frequency        DirectResetFreq ....    20
 Integral Threshold     Thresh          ....  2.500e-11 Eh
 Primitive CutOff       TCut            ....  2.500e-12 Eh

Convergence Tolerance:
 Convergence Check Mode ConvCheckMode   .... Total+1el-Energy
 Convergence forced     ConvForced      .... 0
 Energy Change          TolE            ....  1.000e-08 Eh
 1-El. energy change                    ....  1.000e-05 Eh
 Orbital Gradient       TolG            ....  1.000e-05
 Orbital Rotation angle TolX            ....  1.000e-05
 DIIS Error             TolErr          ....  5.000e-07

------------------------------
INITIAL GUESS: MODEL POTENTIAL
------------------------------
Loading Hartree-Fock densities                     ... done
Atomic calculation to generate a density for atom 0 (C  with ECP)
  Multiplicity assumed   :    1
  Atomic configuration   : 1s2 2s2 2p2 
  Number of open shells  : 1
  Command: /home/aspe232/Project/Software/ORCA/6_0_1/build/orca ./output/cinnamyl_acetate/cinnamyl_acetate_atom6.inp "" > ./output/cinnamyl_acetate/cinnamyl_acetate_atom6.out
Returned from the atomic calculation with res=0
Atomic calculation to generate a density for atom 2 (O  with ECP)
  Multiplicity assumed   :    3
  Atomic configuration   : 1s2 2s2 2p4 
  Number of open shells  : 1
  Command: /home/aspe232/Project/Software/ORCA/6_0_1/build/orca ./output/cinnamyl_acetate/cinnamyl_acetate_atom8.inp "" > ./output/cinnamyl_acetate/cinnamyl_acetate_atom8.out
Returned from the atomic calculation with res=0
Calculating cut-offs                               ... done
Initializing the effective Hamiltonian             ... done
Setting up the integral package (SHARK)            ... done
Starting the Coulomb interaction                   ... done (   0.0 sec)
Making the grid                                    ... done (   0.7 sec)
Mapping shells                                     ... done
Starting the XC term evaluation                    ... done (   0.0 sec)
  promolecular density results
     # of electrons  =     93.993533819
     EX              =    -51.276417132
     EC              =     -3.861948236
     EX+EC           =    -55.138365368
Transforming the Hamiltonian                       ... done (   0.0 sec)
Diagonalizing the Hamiltonian                      ... done (   0.0 sec)
Back transforming the eigenvectors                 ... done (   0.0 sec)
Now organizing SCF variables                       ... done
                      ------------------
                      INITIAL GUESS DONE (   1.8 sec)
                      ------------------
             **** ENERGY FILE WAS UPDATED (./output/cinnamyl_acetate/cinnamyl_acetate.en.tmp) ****
Finished Guess after   2.4 sec
Maximum memory used throughout the entire GUESS-calculation: 20.4 MB


           ************************************************************
           *        Program running with 40 parallel MPI-processes    *
           *              working on a common directory               *
           ************************************************************

-------------------------------------------------------------------------------------------
                                      ORCA LEAN-SCF
                              memory conserving SCF solver
-------------------------------------------------------------------------------------------

----------------------------------------D-I-I-S--------------------------------------------
Iteration    Energy (Eh)           Delta-E    RMSDP     MaxDP     DIISErr   Damp  Time(sec)
-------------------------------------------------------------------------------------------
               ***  Starting incremental Fock matrix formation  ***
    1    -101.5398355771184811     0.00e+00  3.81e-03  8.59e-02  1.96e-01  0.700   4.0
    2    -101.6999789144915667    -1.60e-01  2.81e-03  5.43e-02  1.03e-01  0.700   3.5
                               ***Turning on AO-DIIS***
    3    -101.7838115616312393    -8.38e-02  1.57e-03  2.92e-02  5.65e-02  0.700   3.2
    4    -101.8340779681423669    -5.03e-02  3.37e-03  6.36e-02  3.58e-02  0.000   3.1
    5    -101.9416238027739041    -1.08e-01  2.58e-04  1.02e-02  8.30e-03  0.000   3.3
    6    -101.9419730450404700    -3.49e-04  1.13e-04  6.05e-03  5.54e-03  0.000   3.0
                              *** Initializing SOSCF ***
---------------------------------------S-O-S-C-F--------------------------------------
Iteration    Energy (Eh)           Delta-E    RMSDP     MaxDP     MaxGrad    Time(sec)
--------------------------------------------------------------------------------------
    7    -101.9420649464257167    -9.19e-05  6.31e-05  1.74e-03  1.14e-03     3.1
               *** Restarting incremental Fock matrix formation ***
    8    -101.9422167170130820    -1.52e-04  3.72e-05  1.15e-03  3.03e-04     4.5
    9    -101.9422226082648422    -5.89e-06  3.33e-05  1.01e-03  3.44e-04     3.7
   10    -101.9422240174890817    -1.41e-06  1.29e-05  4.17e-04  1.84e-04     3.8
   11    -101.9422245804722138    -5.63e-07  3.72e-06  9.79e-05  2.53e-05     3.5
   12    -101.9422245977144712    -1.72e-08  1.73e-06  6.76e-05  1.91e-05     3.4
   13    -101.9422246166527657    -1.89e-08  4.16e-07  1.29e-05  2.49e-06     3.1
                  *** Gradient check signals convergence ***

               *****************************************************
               *                     SUCCESS                       *
               *           SCF CONVERGED AFTER  13 CYCLES          *
               *****************************************************

Recomputing exchange energy using gridx3       ... done (    3.325 sec)
Old exchange energy                            :    -13.231505775 Eh
New exchange energy                            :    -13.231497248 Eh
Exchange energy change after final integration :      0.000008527 Eh
Total energy after final integration           :   -101.942216090 Eh
             **** ENERGY FILE WAS UPDATED (./output/cinnamyl_acetate/cinnamyl_acetate.en.tmp) ****

----------------
TOTAL SCF ENERGY
----------------

Total Energy       :       -101.94221609010975 Eh           -2773.98873 eV

Components:
Nuclear Repulsion  :        360.43903936625810 Eh            9808.04489 eV
Electronic Energy  :       -462.38126398291087 Eh          -12582.03385 eV
One Electron Energy:       -871.21227292061064 Eh          -23706.89118 eV
Two Electron Energy:        408.83100893769978 Eh           11124.85733 eV

Virial components:
Potential Energy   :       -180.32784937006156 Eh           -4906.97025 eV
Kinetic Energy     :         78.38563327995180 Eh            2132.98152 eV
Virial Ratio       :          2.30052168776932

DFT components:
N(Alpha)           :       33.999973679345 electrons
N(Beta)            :       33.999973679345 electrons
N(Total)           :       67.999947358690 electrons
E(X)               :      -14.694201403332 Eh       
E(C)               :       -2.603322019142 Eh       
E(XC)              :      -17.297523422474 Eh       

---------------
SCF CONVERGENCE
---------------

  Last Energy change         ...    1.8938e-08  Tolerance :   1.0000e-08
  Last MAX-Density change    ...    1.2900e-05  Tolerance :   1.0000e-07
  Last RMS-Density change    ...    4.1578e-07  Tolerance :   5.0000e-09
  Last DIIS Error            ...    1.1385e-03  Tolerance :   5.0000e-07
  Last Orbital Gradient      ...    2.4900e-06  Tolerance :   1.0000e-05
  Last Orbital Rotation      ...    6.7359e-06  Tolerance :   1.0000e-05


----------------
ORBITAL ENERGIES
----------------

  NO   OCC          E(Eh)            E(eV) 
   0   2.0000      -1.214776       -33.0557 
   1   2.0000      -1.122280       -30.5388 
   2   2.0000      -1.009898       -27.4807 
   3   2.0000      -0.954589       -25.9757 
   4   2.0000      -0.910771       -24.7833 
   5   2.0000      -0.892718       -24.2921 
   6   2.0000      -0.884177       -24.0597 
   7   2.0000      -0.825332       -22.4584 
   8   2.0000      -0.753626       -20.5072 
   9   2.0000      -0.736844       -20.0505 
  10   2.0000      -0.707760       -19.2591 
  11   2.0000      -0.675812       -18.3898 
  12   2.0000      -0.650882       -17.7114 
  13   2.0000      -0.617486       -16.8026 
  14   2.0000      -0.609929       -16.5970 
  15   2.0000      -0.598320       -16.2811 
  16   2.0000      -0.582924       -15.8622 
  17   2.0000      -0.574580       -15.6351 
  18   2.0000      -0.559071       -15.2131 
  19   2.0000      -0.547027       -14.8854 
  20   2.0000      -0.539090       -14.6694 
  21   2.0000      -0.527608       -14.3569 
  22   2.0000      -0.522447       -14.2165 
  23   2.0000      -0.498373       -13.5614 
  24   2.0000      -0.496656       -13.5147 
  25   2.0000      -0.472442       -12.8558 
  26   2.0000      -0.467117       -12.7109 
  27   2.0000      -0.455914       -12.4061 
  28   2.0000      -0.449129       -12.2214 
  29   2.0000      -0.417645       -11.3647 
  30   2.0000      -0.403817       -10.9884 
  31   2.0000      -0.384002       -10.4492 
  32   2.0000      -0.355873        -9.6838 
  33   2.0000      -0.325014        -8.8441 
  34   0.0000       0.023389         0.6365 
  35   0.0000       0.058947         1.6040 
  36   0.0000       0.068807         1.8723 
  37   0.0000       0.080359         2.1867 
  38   0.0000       0.085779         2.3342 
  39   0.0000       0.090722         2.4687 
  40   0.0000       0.104673         2.8483 
  41   0.0000       0.109770         2.9870 
  42   0.0000       0.114247         3.1088 
  43   0.0000       0.124360         3.3840 
  44   0.0000       0.136816         3.7229 
*Only the first 10 virtual orbitals were printed.

                    ********************************
                    * MULLIKEN POPULATION ANALYSIS *
                    ********************************

-----------------------
MULLIKEN ATOMIC CHARGES
-----------------------
   0 C :   -0.087677
   1 C :    0.274168
   2 O :   -0.362175
   3 O :   -0.300254
   4 C :    0.070162
   5 C :    0.004113
   6 C :    0.030980
   7 C :   -0.076781
   8 C :    0.000700
   9 C :   -0.008195
  10 C :   -0.014164
  11 C :   -0.011866
  12 C :   -0.007612
  13 H :    0.064154
  14 H :    0.079632
  15 H :    0.077296
  16 H :    0.059003
  17 H :    0.062719
  18 H :    0.023494
  19 H :    0.023916
  20 H :    0.020715
  21 H :    0.019121
  22 H :    0.020408
  23 H :    0.020061
  24 H :    0.018082
Sum of atomic charges:   -0.0000000

--------------------------------
MULLIKEN REDUCED ORBITAL CHARGES
--------------------------------
  0 C s       :     0.962283  s :     0.962283
      pz      :     1.036287  p :     3.062250
      px      :     1.035840
      py      :     0.990123
      dz2     :     0.007217  d :     0.063144
      dxz     :     0.015117
      dyz     :     0.017672
      dx2y2   :     0.010304
      dxy     :     0.012834

  1 C s       :     1.151339  s :     1.151339
      pz      :     0.767912  p :     2.328972
      px      :     0.737997
      py      :     0.823063
      dz2     :     0.038457  d :     0.245522
      dxz     :     0.053464
      dyz     :     0.026267
      dx2y2   :     0.070707
      dxy     :     0.056627

  2 O s       :     1.796133  s :     1.796133
      pz      :     1.406361  p :     4.532421
      px      :     1.678621
      py      :     1.447439
      dz2     :     0.007872  d :     0.033620
      dxz     :     0.006191
      dyz     :     0.006547
      dx2y2   :     0.005595
      dxy     :     0.007415

  3 O s       :     1.697450  s :     1.697450
      pz      :     1.703318  p :     4.566127
      px      :     1.253473
      py      :     1.609337
      dz2     :     0.005209  d :     0.036676
      dxz     :     0.006823
      dyz     :     0.005539
      dx2y2   :     0.011980
      dxy     :     0.007125

  4 C s       :     1.032143  s :     1.032143
      pz      :     0.973972  p :     2.757507
      px      :     0.896644
      py      :     0.886891
      dz2     :     0.034837  d :     0.140187
      dxz     :     0.024451
      dyz     :     0.016900
      dx2y2   :     0.036148
      dxy     :     0.027851

  5 C s       :     1.033278  s :     1.033278
      pz      :     0.991380  p :     2.875237
      px      :     0.894103
      py      :     0.989755
      dz2     :     0.008415  d :     0.087371
      dxz     :     0.017033
      dyz     :     0.013066
      dx2y2   :     0.024249
      dxy     :     0.024608

  6 C s       :     1.018355  s :     1.018355
      pz      :     0.938909  p :     2.855353
      px      :     0.939601
      py      :     0.976844
      dz2     :     0.007723  d :     0.095312
      dxz     :     0.019354
      dyz     :     0.014871
      dx2y2   :     0.026357
      dxy     :     0.027007

  7 C s       :     1.033966  s :     1.033966
      pz      :     0.962831  p :     2.922445
      px      :     0.960394
      py      :     0.999220
      dz2     :     0.007475  d :     0.120371
      dxz     :     0.019544
      dyz     :     0.022022
      dx2y2   :     0.037195
      dxy     :     0.034134

  8 C s       :     1.007845  s :     1.007845
      pz      :     0.955827  p :     2.898486
      px      :     0.974254
      py      :     0.968405
      dz2     :     0.005167  d :     0.092968
      dxz     :     0.015329
      dyz     :     0.014070
      dx2y2   :     0.023926
      dxy     :     0.034476

  9 C s       :     1.009670  s :     1.009670
      pz      :     0.954922  p :     2.904460
      px      :     0.969331
      py      :     0.980207
      dz2     :     0.007088  d :     0.094065
      dxz     :     0.019693
      dyz     :     0.008569
      dx2y2   :     0.031223
      dxy     :     0.027492

 10 C s       :     1.008029  s :     1.008029
      pz      :     0.959926  p :     2.912464
      px      :     0.978711
      py      :     0.973828
      dz2     :     0.006158  d :     0.093671
      dxz     :     0.008017
      dyz     :     0.020644
      dx2y2   :     0.033150
      dxy     :     0.025702

 11 C s       :     1.011310  s :     1.011310
      pz      :     0.952885  p :     2.906170
      px      :     0.976811
      py      :     0.976474
      dz2     :     0.005064  d :     0.094387
      dxz     :     0.015457
      dyz     :     0.014852
      dx2y2   :     0.024022
      dxy     :     0.034993

 12 C s       :     1.006138  s :     1.006138
      pz      :     0.949644  p :     2.909253
      px      :     0.977485
      py      :     0.982124
      dz2     :     0.006925  d :     0.092222
      dxz     :     0.019080
      dyz     :     0.008227
      dx2y2   :     0.030925
      dxy     :     0.027065

 13 H s       :     0.891648  s :     0.891648
      pz      :     0.018322  p :     0.044198
      px      :     0.014127
      py      :     0.011750

 14 H s       :     0.876323  s :     0.876323
      pz      :     0.011398  p :     0.044045
      px      :     0.021485
      py      :     0.011162

 15 H s       :     0.876930  s :     0.876930
      pz      :     0.015599  p :     0.045774
      px      :     0.011056
      py      :     0.019120

 16 H s       :     0.900887  s :     0.900887
      pz      :     0.009887  p :     0.040111
      px      :     0.009825
      py      :     0.020399

 17 H s       :     0.896985  s :     0.896985
      pz      :     0.023987  p :     0.040296
      px      :     0.009152
      py      :     0.007156

 18 H s       :     0.925301  s :     0.925301
      pz      :     0.017791  p :     0.051205
      px      :     0.014867
      py      :     0.018547

 19 H s       :     0.926991  s :     0.926991
      pz      :     0.015929  p :     0.049093
      px      :     0.014805
      py      :     0.018358

 20 H s       :     0.929123  s :     0.929123
      pz      :     0.015069  p :     0.050162
      px      :     0.016444
      py      :     0.018648

 21 H s       :     0.931273  s :     0.931273
      pz      :     0.014063  p :     0.049606
      px      :     0.011271
      py      :     0.024273

 22 H s       :     0.930049  s :     0.930049
      pz      :     0.014446  p :     0.049543
      px      :     0.024860
      py      :     0.010237

 23 H s       :     0.930432  s :     0.930432
      pz      :     0.014785  p :     0.049506
      px      :     0.016541
      py      :     0.018180

 24 H s       :     0.930688  s :     0.930688
      pz      :     0.014349  p :     0.051230
      px      :     0.012021
      py      :     0.024860



                     *******************************
                     * LOEWDIN POPULATION ANALYSIS *
                     *******************************

----------------------
LOEWDIN ATOMIC CHARGES
----------------------
   0 C :   -0.092565
   1 C :    0.022796
   2 O :   -0.202032
   3 O :   -0.052016
   4 C :   -0.037443
   5 C :   -0.038277
   6 C :   -0.018210
   7 C :   -0.042675
   8 C :   -0.032154
   9 C :   -0.042282
  10 C :   -0.044887
  11 C :   -0.041517
  12 C :   -0.026890
  13 H :    0.063908
  14 H :    0.076624
  15 H :    0.072721
  16 H :    0.059226
  17 H :    0.059386
  18 H :    0.037530
  19 H :    0.051015
  20 H :    0.046140
  21 H :    0.046256
  22 H :    0.045457
  23 H :    0.046625
  24 H :    0.043265

-------------------------------
LOEWDIN REDUCED ORBITAL CHARGES
-------------------------------
  0 C s       :     0.783906  s :     0.783906
      pz      :     1.042469  p :     3.097163
      px      :     1.043563
      py      :     1.011131
      dz2     :     0.022672  d :     0.211496
      dxz     :     0.048968
      dyz     :     0.061152
      dx2y2   :     0.037837
      dxy     :     0.040867

  1 C s       :     0.787318  s :     0.787318
      pz      :     0.803064  p :     2.521030
      px      :     0.839293
      py      :     0.878674
      dz2     :     0.099438  d :     0.668855
      dxz     :     0.142838
      dyz     :     0.083782
      dx2y2   :     0.190383
      dxy     :     0.152415

  2 O s       :     1.563272  s :     1.563272
      pz      :     1.431058  p :     4.571269
      px      :     1.655108
      py      :     1.485103
      dz2     :     0.010824  d :     0.067492
      dxz     :     0.012687
      dyz     :     0.016983
      dx2y2   :     0.011619
      dxy     :     0.015378

  3 O s       :     1.402295  s :     1.402295
      pz      :     1.634632  p :     4.549990
      px      :     1.344322
      py      :     1.571036
      dz2     :     0.015470  d :     0.099730
      dxz     :     0.017848
      dyz     :     0.011066
      dx2y2   :     0.033840
      dxy     :     0.021506

  4 C s       :     0.765532  s :     0.765532
      pz      :     1.010083  p :     2.856491
      px      :     0.921113
      py      :     0.925296
      dz2     :     0.105376  d :     0.415421
      dxz     :     0.068098
      dyz     :     0.053601
      dx2y2   :     0.105272
      dxy     :     0.083074

  5 C s       :     0.808712  s :     0.808712
      pz      :     0.933943  p :     2.940245
      px      :     0.976991
      py      :     1.029311
      dz2     :     0.024531  d :     0.289320
      dxz     :     0.055006
      dyz     :     0.042032
      dx2y2   :     0.078403
      dxy     :     0.089348

  6 C s       :     0.805238  s :     0.805238
      pz      :     0.906195  p :     2.911774
      px      :     0.983380
      py      :     1.022199
      dz2     :     0.023406  d :     0.301198
      dxz     :     0.054694
      dyz     :     0.045685
      dx2y2   :     0.081768
      dxy     :     0.095644

  7 C s       :     0.784166  s :     0.784166
      pz      :     0.888074  p :     2.887171
      px      :     0.976802
      py      :     1.022295
      dz2     :     0.027466  d :     0.371338
      dxz     :     0.053815
      dyz     :     0.060007
      dx2y2   :     0.119800
      dxy     :     0.110250

  8 C s       :     0.799941  s :     0.799941
      pz      :     0.893466  p :     2.933939
      px      :     1.021123
      py      :     1.019351
      dz2     :     0.020545  d :     0.298274
      dxz     :     0.041045
      dyz     :     0.038132
      dx2y2   :     0.078511
      dxy     :     0.120040

  9 C s       :     0.802108  s :     0.802108
      pz      :     0.887396  p :     2.938630
      px      :     1.017342
      py      :     1.033892
      dz2     :     0.025638  d :     0.301544
      dxz     :     0.055867
      dyz     :     0.020398
      dx2y2   :     0.107050
      dxy     :     0.092590

 10 C s       :     0.801800  s :     0.801800
      pz      :     0.890607  p :     2.941981
      px      :     1.031722
      py      :     1.019653
      dz2     :     0.023146  d :     0.301106
      dxz     :     0.019389
      dyz     :     0.057746
      dx2y2   :     0.114927
      dxy     :     0.085898

 11 C s       :     0.801991  s :     0.801991
      pz      :     0.886529  p :     2.937331
      px      :     1.022264
      py      :     1.028538
      dz2     :     0.020066  d :     0.302195
      dxz     :     0.041658
      dyz     :     0.039506
      dx2y2   :     0.078876
      dxy     :     0.122090

 12 C s       :     0.799563  s :     0.799563
      pz      :     0.890996  p :     2.932507
      px      :     1.010340
      py      :     1.031171
      dz2     :     0.025303  d :     0.294821
      dxz     :     0.053318
      dyz     :     0.020016
      dx2y2   :     0.104935
      dxy     :     0.091248

 13 H s       :     0.791513  s :     0.791513
      pz      :     0.055409  p :     0.144579
      px      :     0.046594
      py      :     0.042576

 14 H s       :     0.782529  s :     0.782529
      pz      :     0.040811  p :     0.140847
      px      :     0.060581
      py      :     0.039455

 15 H s       :     0.781438  s :     0.781438
      pz      :     0.049622  p :     0.145841
      px      :     0.040987
      py      :     0.055232

 16 H s       :     0.805078  s :     0.805078
      pz      :     0.037564  p :     0.135697
      px      :     0.035983
      py      :     0.062151

 17 H s       :     0.802954  s :     0.802954
      pz      :     0.070467  p :     0.137660
      px      :     0.035986
      py      :     0.031207

 18 H s       :     0.807423  s :     0.807423
      pz      :     0.052823  p :     0.155046
      px      :     0.047472
      py      :     0.054752

 19 H s       :     0.802532  s :     0.802532
      pz      :     0.046899  p :     0.146454
      px      :     0.045872
      py      :     0.053683

 20 H s       :     0.804224  s :     0.804224
      pz      :     0.045612  p :     0.149636
      px      :     0.050138
      py      :     0.053886

 21 H s       :     0.804373  s :     0.804373
      pz      :     0.043386  p :     0.149370
      px      :     0.038663
      py      :     0.067322

 22 H s       :     0.804524  s :     0.804524
      pz      :     0.044631  p :     0.150019
      px      :     0.068600
      py      :     0.036789

 23 H s       :     0.804210  s :     0.804210
      pz      :     0.044757  p :     0.149165
      px      :     0.050270
      py      :     0.054138

 24 H s       :     0.804128  s :     0.804128
      pz      :     0.043682  p :     0.152607
      px      :     0.040609
      py      :     0.068315



                      *****************************
                      * MAYER POPULATION ANALYSIS *
                      *****************************

  NA   - Mulliken gross atomic population
  ZA   - Total nuclear charge
  QA   - Mulliken gross atomic charge
  VA   - Mayer's total valence
  BVA  - Mayer's bonded valence
  FA   - Mayer's free valence

  ATOM       NA         ZA         QA         VA         BVA        FA
  0 C      4.0877     4.0000    -0.0877     3.9571     3.9571     0.0000
  1 C      3.7258     4.0000     0.2742     4.0820     4.0820    -0.0000
  2 O      6.3622     6.0000    -0.3622     1.9971     1.9971    -0.0000
  3 O      6.3003     6.0000    -0.3003     2.0213     2.0213     0.0000
  4 C      3.9298     4.0000     0.0702     3.9648     3.9648    -0.0000
  5 C      3.9959     4.0000     0.0041     3.9596     3.9596    -0.0000
  6 C      3.9690     4.0000     0.0310     4.0118     4.0118    -0.0000
  7 C      4.0768     4.0000    -0.0768     4.1930     4.1930    -0.0000
  8 C      3.9993     4.0000     0.0007     4.0626     4.0626    -0.0000
  9 C      4.0082     4.0000    -0.0082     4.0814     4.0814    -0.0000
 10 C      4.0142     4.0000    -0.0142     4.0712     4.0712    -0.0000
 11 C      4.0119     4.0000    -0.0119     4.0812     4.0812     0.0000
 12 C      4.0076     4.0000    -0.0076     4.0923     4.0923     0.0000
 13 H      0.9358     1.0000     0.0642     1.0349     1.0349    -0.0000
 14 H      0.9204     1.0000     0.0796     1.0332     1.0332     0.0000
 15 H      0.9227     1.0000     0.0773     1.0340     1.0340     0.0000
 16 H      0.9410     1.0000     0.0590     1.0154     1.0154    -0.0000
 17 H      0.9373     1.0000     0.0627     1.0161     1.0161     0.0000
 18 H      0.9765     1.0000     0.0235     1.0423     1.0423    -0.0000
 19 H      0.9761     1.0000     0.0239     1.0450     1.0450    -0.0000
 20 H      0.9793     1.0000     0.0207     1.0451     1.0451     0.0000
 21 H      0.9809     1.0000     0.0191     1.0463     1.0463    -0.0000
 22 H      0.9796     1.0000     0.0204     1.0456     1.0456     0.0000
 23 H      0.9799     1.0000     0.0201     1.0446     1.0446     0.0000
 24 H      0.9819     1.0000     0.0181     1.0422     1.0422     0.0000

  Mayer bond orders larger than 0.100000
B(  0-C ,  1-C ) :   1.0258 B(  0-C , 13-H ) :   0.9827 B(  0-C , 14-H ) :   0.9810 
B(  0-C , 15-H ) :   0.9697 B(  1-C ,  2-O ) :   1.8965 B(  1-C ,  3-O ) :   1.1007 
B(  3-O ,  4-C ) :   0.8857 B(  4-C ,  5-C ) :   1.0284 B(  4-C , 16-H ) :   1.0017 
B(  4-C , 17-H ) :   0.9946 B(  5-C ,  6-C ) :   1.8288 B(  5-C , 18-H ) :   0.9988 
B(  6-C ,  7-C ) :   1.1195 B(  6-C , 19-H ) :   0.9917 B(  7-C ,  8-C ) :   1.4184 
B(  7-C , 12-C ) :   1.4208 B(  8-C ,  9-C ) :   1.4476 B(  8-C , 20-H ) :   0.9915 
B(  9-C , 10-C ) :   1.4494 B(  9-C , 21-H ) :   0.9933 B( 10-C , 11-C ) :   1.4355 
B( 10-C , 22-H ) :   0.9953 B( 11-C , 12-C ) :   1.4649 B( 11-C , 23-H ) :   0.9934 
B( 12-C , 24-H ) :   0.9909 

-------
TIMINGS
-------

Total SCF time: 0 days 0 hours 0 min 53 sec 

Total time                  ....      53.026 sec
Sum of individual times     ....      51.055 sec  ( 96.3%)

SCF preparation             ....       2.438 sec  (  4.6%)
Fock matrix formation       ....      46.941 sec  ( 88.5%)
  Startup                   ....       0.219 sec  (  0.5% of F)
  Split-RI-J                ....       1.544 sec  (  3.3% of F)
  Chain of spheres X        ....      20.712 sec  ( 44.1% of F)
  XC integration            ....      23.528 sec  ( 50.1% of F)
    XC Preparation          ....       0.000 sec  (  0.0% of XC)
    Basis function eval.    ....       0.500 sec  (  2.1% of XC)
    Density eval.           ....       0.197 sec  (  0.8% of XC)
    XC-Functional eval.     ....       0.185 sec  (  0.8% of XC)
    XC-Potential eval.      ....       0.251 sec  (  1.1% of XC)
Diagonalization             ....       0.000 sec  (  0.0%)
Density matrix formation    ....       0.355 sec  (  0.7%)
Total Energy calculation    ....       0.274 sec  (  0.5%)
Population analysis         ....       0.053 sec  (  0.1%)
Orbital Transformation      ....       0.101 sec  (  0.2%)
Orbital Orthonormalization  ....       0.000 sec  (  0.0%)
DIIS solution               ....       0.667 sec  (  1.3%)
SOSCF solution              ....       0.226 sec  (  0.4%)
Finished LeanSCF after  53.1 sec

Maximum memory used throughout the entire LEANSCF-calculation: 38.3 MB


           ************************************************************
           *        Program running with 40 parallel MPI-processes    *
           *              working on a common directory               *
           ************************************************************

------------------------------------------------------------------------------
                         ORCA PROPERTY INTEGRAL CALCULATIONS
------------------------------------------------------------------------------

GBWName                                   ... ./output/cinnamyl_acetate/cinnamyl_acetate.gbw
Number of atoms                           ...     25
Number of basis functions                 ...    229
Max core memory                           ...   1024 MB

Dipole integrals                          ... YES
Quadrupole integrals                      ...  NO
Linear momentum integrals                 ...  NO
Angular momentum integrals                ...  NO
Higher moments length integrals           ...  NO
Higher moments velocity integrals         ...  NO
Kinetic energy integrals                  ...  NO
GIAO right hand sides                     ...  NO
GIAO dipole derivative integrals          ...  NO
SOC integrals                             ...  NO
EPR diamagnetic integrals (GIAO)          ...  NO
EPR gauge integrals                       ...  NO
Field gradient integrals                  ...  NO (   0 nuclei)
Spin-dipole/Fermi contact integrals       ...  NO (   0 nuclei)
Contact density integrals                 ...  NO (   0 nuclei)
Nucleus-orbit integrals                   ...  NO (   0 nuclei)
Geometric perturbations                   ...  NO (  25 nuclei)

Choice of electric origin   ... Center of mass
Position of electric origin ... (  0.2023, -0.1807,  0.0599) 
Choice of magnetic origin   ... GIAO
Position of magnetic origin ... (  0.0000,  0.0000,  0.0000) 

Calculating integrals                     ... Electric Dipole (Length)     done (  0.0 sec)

Property integrals calculated in   0.0 sec

Maximum memory used throughout the entire PROPINT-calculation: 16.5 MB


-------------------------------------------------------------------------------
                          DFT DISPERSION CORRECTION                            
                                                                               
                                DFTD4 V3.4.0                                   
-------------------------------------------------------------------------------
The wB97X-3c composite method is recognized
Using three-body term ABC
Active option DFTDOPT                   ...         5   

-------------------------   ----------------
Dispersion correction           -0.029259022
-------------------------   ----------------


-------------------------   --------------------
FINAL SINGLE POINT ENERGY      -101.971475112394
-------------------------   --------------------



           ************************************************************
           *        Program running with 40 parallel MPI-processes    *
           *              working on a common directory               *
           ************************************************************
------------------------------------------------------------------------------
                         ORCA SCF GRADIENT CALCULATION
[...]
 15:    292.82   0.000804    4.07  0.000857  (-0.026478  0.007173 -0.010238)
 16:    398.09   0.000610    3.08  0.000478  ( 0.019243 -0.009179  0.004848)
 17:    419.50   0.000077    0.39  0.000057  (-0.006951  0.002640 -0.001316)
 18:    449.62   0.002514   12.70  0.001745  ( 0.037430  0.003111 -0.018282)
 19:    466.07   0.000953    4.82  0.000638  ( 0.015528 -0.013952  0.014229)
 20:    547.66   0.001933    9.77  0.001102  ( 0.017139  0.011528 -0.025980)
 21:    623.38   0.000839    4.24  0.000420  ( 0.001062  0.011047  0.017227)
 22:    627.88   0.000958    4.84  0.000476  (-0.002724 -0.020678  0.006404)
 23:    645.08   0.000002    0.01  0.000001  ( 0.000479 -0.000657 -0.000686)
 24:    677.10   0.000879    4.44  0.000405  ( 0.018070  0.001745 -0.008690)
 25:    720.22   0.008254   41.71  0.003577  (-0.016749 -0.034030  0.046237)
 26:    776.33   0.007679   38.81  0.003087  ( 0.021112  0.033729 -0.038776)
 27:    847.57   0.000104    0.53  0.000038  (-0.003107  0.000878  0.005287)
 28:    871.58   0.000435    2.20  0.000156  ( 0.004064  0.002194 -0.011590)
 29:    877.10   0.000425    2.15  0.000151  ( 0.002679  0.003538 -0.011465)
 30:    955.95   0.000272    1.37  0.000089  (-0.008725  0.000974  0.003419)
 31:    958.71   0.003212   16.23  0.001045  ( 0.020881 -0.013234  0.020841)
 32:   1012.20   0.000789    3.99  0.000243  ( 0.008742  0.012625 -0.002704)
 33:   1013.59   0.000128    0.65  0.000039  ( 0.003648  0.003231 -0.003945)
 34:   1015.83   0.010527   53.20  0.003234  (-0.029335 -0.036592  0.032162)
 35:   1032.22   0.000592    2.99  0.000179  (-0.007226 -0.009142  0.006572)
 36:   1037.15   0.001238    6.26  0.000373  (-0.003019 -0.013701  0.013257)
 37:   1041.23   0.000445    2.25  0.000133  ( 0.006803  0.006074 -0.007093)
 38:   1082.05   0.000648    3.27  0.000187  ( 0.012005 -0.003729  0.005366)
 39:   1097.32   0.002186   11.05  0.000622  ( 0.006710  0.023173  0.006303)
 40:   1103.67   0.027040  136.65  0.007646  ( 0.080889  0.003434 -0.033028)
 41:   1130.43   0.001868    9.44  0.000516  (-0.015136 -0.014592 -0.008588)
 42:   1168.55   0.003111   15.72  0.000831  ( 0.028736  0.000437 -0.002198)
 43:   1195.49   0.000113    0.57  0.000029  (-0.005303  0.001096 -0.000409)
 44:   1227.49   0.000108    0.55  0.000027  ( 0.004462 -0.001322 -0.002408)
 45:   1259.44   0.000490    2.48  0.000121  ( 0.005536 -0.007873 -0.005370)
 46:   1287.10   0.000748    3.78  0.000181  ( 0.008949 -0.008989 -0.004527)
 47:   1326.14   0.112097  566.49  0.026378  ( 0.161547 -0.009178 -0.014018)
 48:   1336.46   0.009761   49.33  0.002279  ( 0.046242  0.002051 -0.011692)
 49:   1352.20   0.008819   44.57  0.002035  (-0.044211  0.005534  0.007074)
 50:   1372.46   0.000327    1.65  0.000074  ( 0.006028 -0.001416  0.006006)
 51:   1388.76   0.000168    0.85  0.000038  ( 0.003821 -0.004705 -0.000988)
 52:   1431.09   0.023344  117.97  0.005090  ( 0.067871 -0.003538 -0.021711)
 53:   1462.42   0.011461   57.92  0.002446  (-0.044242 -0.013418  0.017555)
 54:   1502.95   0.003596   18.17  0.000747  ( 0.004445 -0.011738  0.024271)
 55:   1509.01   0.002514   12.70  0.000520  ( 0.002233  0.020549  0.009620)
 56:   1522.06   0.001233    6.23  0.000253  (-0.006796 -0.006550 -0.012791)
 57:   1530.72   0.001245    6.29  0.000254  ( 0.006315 -0.006973  0.012856)
 58:   1574.09   0.002059   10.40  0.000408  ( 0.019471 -0.004484  0.002975)
 59:   1692.89   0.000335    1.69  0.000062  ( 0.004176 -0.005691 -0.003447)
 60:   1720.02   0.000886    4.48  0.000161  ( 0.012303 -0.003054 -0.000048)
 61:   1798.13   0.001173    5.93  0.000204  ( 0.013583 -0.004338  0.000516)
 62:   1875.78   0.072524  366.51  0.012065  ( 0.065823 -0.040665  0.077969)
 63:   3128.13   0.001780    8.99  0.000178  ( 0.001303  0.007767 -0.010749)
 64:   3137.51   0.000382    1.93  0.000038  ( 0.003320  0.001823 -0.004866)
 65:   3193.70   0.001028    5.20  0.000100  ( 0.002082  0.007682  0.006095)
 66:   3216.26   0.002150   10.87  0.000209  (-0.009873 -0.002534 -0.010233)
 67:   3232.39   0.000046    0.23  0.000004  ( 0.000441  0.001979  0.000578)
 68:   3239.77   0.001078    5.45  0.000104  ( 0.005357  0.002638  0.008259)
 69:   3244.56   0.000762    3.85  0.000073  (-0.007300 -0.001887 -0.004055)
 70:   3251.56   0.000059    0.30  0.000006  (-0.000223 -0.001685 -0.001666)
 71:   3261.52   0.001091    5.51  0.000104  (-0.006319 -0.004349 -0.006749)
 72:   3266.16   0.000276    1.39  0.000026  (-0.004781 -0.000512  0.001802)
 73:   3270.08   0.002954   14.93  0.000282  (-0.005126  0.013875  0.007946)
 74:   3278.04   0.001501    7.59  0.000143  (-0.011519 -0.000130 -0.003190)

* The epsilon (eps) is given for a Dirac delta lineshape.
** The dipole moment derivative (T) already includes vibrational overlap.

The first frequency considered to be a vibration is 6
The total number of vibrations considered is 69


--------------------------
THERMOCHEMISTRY AT 298.15K
--------------------------

Temperature         ...   298.15 K
Pressure            ...     1.00 atm
Total Mass          ...   176.22 AMU
Quasi RRHO          ...     True
Cut-Off Frequency   ...     1.00 cm^-1

Throughout the following assumptions are being made:
  (1) The electronic state is orbitally nondegenerate
  (2) There are no thermally accessible electronically excited states
  (3) Hindered rotations indicated by low frequency modes are not
      treated as such but are treated as vibrations and this may
      cause some error
  (4) All equations used are the standard statistical mechanics
      equations for an ideal gas
  (5) All vibrations are strictly harmonic

freq.      26.19  E(vib)   ...       0.56 
freq.      33.83  E(vib)   ...       0.55 
freq.      53.74  E(vib)   ...       0.52 
freq.      56.47  E(vib)   ...       0.52 
freq.      89.82  E(vib)   ...       0.47 
freq.     132.79  E(vib)   ...       0.42 
freq.     183.77  E(vib)   ...       0.37 
freq.     189.80  E(vib)   ...       0.36 
freq.     256.83  E(vib)   ...       0.30 
freq.     292.82  E(vib)   ...       0.27 
freq.     398.09  E(vib)   ...       0.20 
freq.     419.50  E(vib)   ...       0.18 
freq.     449.62  E(vib)   ...       0.17 
freq.     466.07  E(vib)   ...       0.16 
freq.     547.66  E(vib)   ...       0.12 
freq.     623.38  E(vib)   ...       0.09 
freq.     627.88  E(vib)   ...       0.09 
freq.     645.08  E(vib)   ...       0.09 
freq.     677.10  E(vib)   ...       0.08 
freq.     720.22  E(vib)   ...       0.07 
freq.     776.33  E(vib)   ...       0.05 
freq.     847.57  E(vib)   ...       0.04 
freq.     871.58  E(vib)   ...       0.04 
freq.     877.10  E(vib)   ...       0.04 
freq.     955.95  E(vib)   ...       0.03 
freq.     958.71  E(vib)   ...       0.03 
freq.    1012.20  E(vib)   ...       0.02 
freq.    1013.59  E(vib)   ...       0.02 
freq.    1015.83  E(vib)   ...       0.02 
freq.    1032.22  E(vib)   ...       0.02 
freq.    1037.15  E(vib)   ...       0.02 
freq.    1041.23  E(vib)   ...       0.02 
freq.    1082.05  E(vib)   ...       0.02 
freq.    1097.32  E(vib)   ...       0.02 
freq.    1103.67  E(vib)   ...       0.02 
freq.    1130.43  E(vib)   ...       0.01 
freq.    1168.55  E(vib)   ...       0.01 
freq.    1195.49  E(vib)   ...       0.01 
freq.    1227.49  E(vib)   ...       0.01 
freq.    1259.44  E(vib)   ...       0.01 
freq.    1287.10  E(vib)   ...       0.01 
freq.    1326.14  E(vib)   ...       0.01 
freq.    1336.46  E(vib)   ...       0.01 
freq.    1352.20  E(vib)   ...       0.01 
freq.    1372.46  E(vib)   ...       0.01 
freq.    1388.76  E(vib)   ...       0.00 
freq.    1431.09  E(vib)   ...       0.00 
freq.    1462.42  E(vib)   ...       0.00 
freq.    1502.95  E(vib)   ...       0.00 
freq.    1509.01  E(vib)   ...       0.00 
freq.    1522.06  E(vib)   ...       0.00 
freq.    1530.72  E(vib)   ...       0.00 
freq.    1574.09  E(vib)   ...       0.00 
freq.    1692.89  E(vib)   ...       0.00 
freq.    1720.02  E(vib)   ...       0.00 
freq.    1798.13  E(vib)   ...       0.00 
freq.    1875.78  E(vib)   ...       0.00 
freq.    3128.13  E(vib)   ...       0.00 
freq.    3137.51  E(vib)   ...       0.00 
freq.    3193.70  E(vib)   ...       0.00 
freq.    3216.26  E(vib)   ...       0.00 
freq.    3232.39  E(vib)   ...       0.00 
freq.    3239.77  E(vib)   ...       0.00 
freq.    3244.56  E(vib)   ...       0.00 
freq.    3251.56  E(vib)   ...       0.00 
freq.    3261.52  E(vib)   ...       0.00 
freq.    3266.16  E(vib)   ...       0.00 
freq.    3270.08  E(vib)   ...       0.00 
freq.    3278.04  E(vib)   ...       0.00 

------------
INNER ENERGY
------------

The inner energy is: U= E(el) + E(ZPE) + E(vib) + E(rot) + E(trans)
    E(el)   - is the total energy from the electronic structure calculation
              = E(kin-el) + E(nuc-el) + E(el-el) + E(nuc-nuc)
    E(ZPE)  - the the zero temperature vibrational energy from the frequency calculation
    E(vib)  - the the finite temperature correction to E(ZPE) due to population
              of excited vibrational states
    E(rot)  - is the rotational thermal energy
    E(trans)- is the translational thermal energy

Summary of contributions to the inner energy U:
Electronic energy                ...   -101.99461688 Eh
Zero point energy                ...      0.20958349 Eh     131.52 kcal/mol
Thermal vibrational correction   ...      0.00968397 Eh       6.08 kcal/mol
Thermal rotational correction    ...      0.00141627 Eh       0.89 kcal/mol
Thermal translational correction ...      0.00141627 Eh       0.89 kcal/mol
-----------------------------------------------------------------------
Total thermal energy                   -101.77251687 Eh


Summary of corrections to the electronic energy:
(perhaps to be used in another calculation)
Total thermal correction                  0.01251651 Eh       7.85 kcal/mol
Non-thermal (ZPE) correction              0.20958349 Eh     131.52 kcal/mol
-----------------------------------------------------------------------
Total correction                          0.22210000 Eh     139.37 kcal/mol


--------
ENTHALPY
--------

The enthalpy is H = U + kB*T
                kB is Boltzmann's constant
Total thermal energy              ...   -101.77251687 Eh 
Thermal Enthalpy correction       ...      0.00094421 Eh       0.59 kcal/mol
-----------------------------------------------------------------------
Total Enthalpy                    ...   -101.77157267 Eh


Note: Only C1 symmetry has been detected, increase convergence thresholds 
      if your molecule has a higher symmetry. Symmetry factor of 1.0 is   
      used for the rotational entropy correction. 
 

Note: Rotational entropy computed according to Herzberg 
Infrared and Raman Spectra, Chapter V,1, Van Nostrand Reinhold, 1945 
Point Group:  C1, Symmetry Number:   1  
Rotational constants in cm-1:     0.097624     0.008269     0.008101 

Vibrational entropy computed according to the QRRHO of S. Grimme
Chem.Eur.J. 2012 18 9955 using a reference frequency of 100.0 cm-1


-------
ENTROPY
-------

The entropy contributions are T*S = T*(S(el)+S(vib)+S(rot)+S(trans))
     S(el)   - electronic entropy
     S(vib)  - vibrational entropy
     S(rot)  - rotational entropy
     S(trans)- translational entropy
The entropies will be listed as multiplied by the temperature to get
units of energy

Electronic entropy                ...      0.00000000 Eh      0.00 kcal/mol
Vibrational entropy               ...      0.01749843 Eh     10.98 kcal/mol
Rotational entropy                ...      0.01514644 Eh      9.50 kcal/mol
Translational entropy             ...      0.01967361 Eh     12.35 kcal/mol
-----------------------------------------------------------------------
Final entropy term                ...      0.05231848 Eh     32.83 kcal/mol

In case the symmetry of your molecule has not been determined correctly
or in case you have a reason to use a different symmetry number we print 
out the resulting rotational entropy values for sn=1,12:

 non-linear molecules -----------------------------------
|  sn= 1 | S(rot)=       0.01514644 Eh      9.50 kcal/mol|
|  sn= 2 | S(rot)=       0.01449198 Eh      9.09 kcal/mol|
|  sn= 3 | S(rot)=       0.01410915 Eh      8.85 kcal/mol|
|  sn= 4 | S(rot)=       0.01383753 Eh      8.68 kcal/mol|
|  sn= 5 | S(rot)=       0.01362684 Eh      8.55 kcal/mol|
|  sn= 6 | S(rot)=       0.01345469 Eh      8.44 kcal/mol|
|  sn= 7 | S(rot)=       0.01330915 Eh      8.35 kcal/mol|
|  sn= 8 | S(rot)=       0.01318307 Eh      8.27 kcal/mol|
|  sn= 9 | S(rot)=       0.01307186 Eh      8.20 kcal/mol|
|  sn=10 | S(rot)=       0.01297238 Eh      8.14 kcal/mol|
|  sn=11 | S(rot)=       0.01288239 Eh      8.08 kcal/mol|
|  sn=12 | S(rot)=       0.01280024 Eh      8.03 kcal/mol|
 linear molecules ---------------------------------------
|  Dinfh | S(rot)=       0.00987278 Eh      6.20 kcal/mol|
|  Cinfv | S(rot)=       0.01052724 Eh      6.61 kcal/mol|
 --------------------------------------------------------


-------------------
GIBBS FREE ENERGY
-------------------

The Gibbs free energy is G = H - T*S

Total enthalpy                    ...   -101.77157267 Eh 
Total entropy correction          ...     -0.05231848 Eh    -32.83 kcal/mol
-----------------------------------------------------------------------
Final Gibbs free energy         ...   -101.82389114 Eh

For completeness - the Gibbs free energy minus the electronic energy
G-E(el)                           ...      0.17072573 Eh    107.13 kcal/mol


Maximum memory used throughout the entire PROP-calculation: 117.5 MB

--------------------------------
SUGGESTED CITATIONS FOR THIS RUN
--------------------------------

Below you find a list of papers that are relevant to this ORCA run
We neither can nor want to force you to cite these papers, but we appreciate if you do
You receive ORCA, which is the product of decades of hard work by many enthusiastic individuals, for free
The only thing we kindly ask in return is that you cite our papers,
We deeply appreciate it, if you show your appreciation for ORCA by not just citing the generic ORCA reference.

Please note that relegating all ORCA citations to the supporting information does *not* help us.
SI sections are not indexed - citations you put there will not count into any citation statistics
But we need these citations in order to attract the funding resources that allow us to do what we are doing

Therefore, if you are a happy ORCA user, please consider citing a few of the papers listed below in the main body of your paper

In addition to the list printed below, the program has created the file ./output/cinnamyl_acetate/cinnamyl_acetate.bibtex that contains the list in bibtex format
You can import this file easily into all common literature databanks and citation aid programs


List of essential papers. We consider these as the minimum necessary citations

  1. Neese,F.
     Software update: the ORCA program system, version 5.0
     WIRES Comput. Molec. Sci., 2022 12(1)e1606
     doi.org/10.1002/wcms.1606
  2. Mueller,M.; Hansen,A.; Grimme,S.
     wB97X-3c: A composite range-separated hybrid DFT method with a molecule-optimized polarized valence double-zeta basis set
     J. Chem. Phys., 2023 158 014103
     doi.org/10.1063/5.0133026

List of papers to cite with high priority. The work reported in these papers was absolutely
necessary for this run to complete.
Our perspective: the developers of density functionals and basis sets usually get cited in chemistry papers
Good! But without the algorithms to do something with them, the functionals or basis sets would not do anything.
Hence, in our opinion, the algorithm design and method developments papers are equally worthy of getting cited

  1. Neese,F.
     An improvement of the resolution of the identity approximation for the formation of the Coulomb matrix
     J. Comp. Chem., 2003 24(14)1740-1747
     doi.org/10.1002/jcc.10318
  2. Neese,F.; Wennmohs,F.; Hansen,A.; Becker,U.
     Efficient, approximate and parallel Hartree-Fock and hybrid DFT calculations. A 'chain-of-spheres' algorithm for the Hartree-Fock exchange
     Chem. Phys., 2009 356(1-3)98-109
     doi.org/10.1016/j.chemphys.2008.10.036
  3. Bykov,D.; Petrenko,T.; Izsak,R.; Kossmann,S.; Becker,U.; Valeev,E.; Neese,F.
     Efficient implementation of the analytic second derivatives of Hartree-Fock and hybrid DFT energies: a detailed analysis of different approximations
     Molec. Phys., 2015 113 1961-1977
     doi.org/10.1080/00268976.2015.1025114
  4. Helmich-Paris,B.; de Souza,B.; Neese,F.; Izsák,R.
     An improved chain of spheres for exchange algorithm
     J. Chem. Phys., 2021 155 104109
     doi.org/doi: 10.1063/5.0058766.
  5. Neese,F.
     The SHARK Integral Generation and Digestion System
     J. Comp. Chem., 2022  1-16
     doi.org/10.1002/jcc.26942
  6. Caldeweyher,E.; Bannwarth,C.; Grimme,S.
     Extension of the D3 dispersion coefficient model
     J. Chem. Phys., 2017 147 034112
     doi.org/10.1063/1.4993215
  7. Caldeweyher,E.; Ehlert,S.; Hansen,A.; Neugebauer,H.; Spicher,S.; Bannwarth,C.; Grimme,S.
     A generally applicable atomic-charge dependent London dispersion correction
     J. Chem. Phys., 2019 150 154122
     doi.org/10.1063/1.5090222
  8. Caldeweyher,E.; Mewes,J.; Ehlert,S.; Grimme,S.
     Extension and evaluation of the D4 London-dispersion model for periodic systems
     Phys. Chem. Chem. Phys., 2020 22(16)8499-8512
     doi.org/10.1039/D0CP00502A
  9. Wittmann,L.; Gordiy,I.; Friede,M.; Helmich-Paris,B.; Grimme,S.; Hansen,A.; Bursch,M.
     Extension of the D3 and D4 London Dispersion Corrections to the full Actinides Series
     Phys. Chem. Chem. Phys., 2024 26(32)21379-21394
     doi.org/https://doi.org/10.1039/D4CP01514B 

List of suggested additional citations. These are papers that are important in the 'surrounding' of 
of this run, or papers that preceded the highly important papers. If you like your results we are grateful for a citation.

  1. Izsak,R.; Neese,F.
     An overlap fitted chain of spheres exchange method
     J. Chem. Phys., 2011 135 144105
     doi.org/10.1063/1.3646921
  2. Izsak,R.; Hansen,A.; Neese,F.
     The resolution of identity and chain of spheres approximations for the LPNO-CCSD singles Fock term
     Molec. Phys., 2012 110 2413-2417
     doi.org/10.1080/00268976.2012.687466
  3. Neese,F.
     The ORCA program system
     WIRES Comput. Molec. Sci., 2012 2(1)73-78
     doi.org/10.1002/wcms.81
  4. Izsak,R.; Neese,F.; Klopper,W.
     Robust fitting techniques in the chain of spheres approximation to the Fock exchange: The role of the complementary space
     J. Chem. Phys., 2013 139 
     doi.org/10.1063/1.4819264
  5. Neese,F.
     Software update: the ORCA program system, version 4.0
     WIRES Comput. Molec. Sci., 2018 8(1)1-6
     doi.org/10.1002/wcms.1327
  6. Neese,F.; Wennmohs,F.; Becker,U.; Riplinger,C.
     The ORCA quantum chemistry program package
     J. Chem. Phys., 2020 152 Art. No. L224108
     doi.org/10.1063/5.0004608

List of optional additional citations

  1. Neese,F.
     Approximate second-order SCF convergence for spin unrestricted wavefunctions
     Chem. Phys. Lett., 2000 325(1-3)93-98
     doi.org/10.1016/s0009-2614(00)00662-x

Timings for individual modules:

Sum of individual times          ...     1719.125 sec (=  28.652 min)
Startup calculation              ...      111.010 sec (=   1.850 min)   6.5 %
SCF iterations                   ...     1202.577 sec (=  20.043 min)  70.0 %
Property integrals               ...       61.620 sec (=   1.027 min)   3.6 %
SCF Response                     ...       40.316 sec (=   0.672 min)   2.3 %
Property calculations            ...       72.113 sec (=   1.202 min)   4.2 %
SCF Gradient evaluation          ...      230.806 sec (=   3.847 min)  13.4 %
Geometry relaxation              ...        0.683 sec (=   0.011 min)   0.0 %
                             ****ORCA TERMINATED NORMALLY****
TOTAL RUN TIME: 0 days 0 hours 28 minutes 54 seconds 9 msec
