
                                 *****************
                                 * O   R   C   A *
                                 *****************

                                            #,                                       
                                            ###                                      
                                            ####                                     
                                            #####                                    
                                            ######                                   
                                           ########,                                 
                                     ,,################,,,,,                         
                               ,,#################################,,                 
                          ,,##########################################,,             
                       ,#########################################, ''#####,          
                    ,#############################################,,   '####,        
                  ,##################################################,,,,####,       
                ,###########''''           ''''###############################       
              ,#####''   ,,,,##########,,,,          '''####'''          '####       
            ,##' ,,,,###########################,,,                        '##       
           ' ,,###''''                  '''############,,,                           
         ,,##''                                '''############,,,,        ,,,,,,###''
      ,#''                                            '''#######################'''  
     '                                                          ''''####''''         
             ,#######,   #######,   ,#######,      ##                                
            ,#'     '#,  ##    ##  ,#'     '#,    #''#        ,####,   ,####,        
            ##       ##  ##   ,#'  ##            #'  '#       #'       #'  '#        
            ##       ##  #######   ##           ,######,      #####,   #    #        
            '#,     ,#'  ##    ##  '#,     ,#' ,#      #,     #,   #   #,  ,#        
             '#######'   ##     ##  '#######'  #'      '#     '####' # '####'        



                #########################################################
                #                        -***-                          #
                #          Department of theory and spectroscopy        #
                #                                                       #
                #                      Frank Neese                      #
                #                                                       #
                #     Directorship, Architecture, Infrastructure        #
                #                    SHARK, DRIVERS                     #
                #        Core code/Algorithms in most modules           #
                #                                                       #
                #        Max Planck Institute fuer Kohlenforschung      #
                #                Kaiser Wilhelm Platz 1                 #
                #                 D-45470 Muelheim/Ruhr                 #
                #                      Germany                          #
                #                                                       #
                #                  All rights reserved                  #
                #                        -***-                          #
                #########################################################


                         Program Version 6.0.1  -  RELEASE   -


 With contributions from (in alphabetic order):
[Max-Planck-Institut fuer Kohlenforschung]                               
  Daniel Aravena         : Magnetic Suceptibility                        
  Michael Atanasov       : Ab Initio Ligand Field Theory (pilot matlab implementation)
  Alexander A. Auer      : GIAO ZORA, VPT2 properties, NMR spectrum      
  Ute Becker             : All parallelization in ORCA, NUMFREQ, NUMCALC 
  Giovanni Bistoni       : ED, misc. LED, open-shell LED, HFLD           
  Martin Brehm           : Molecular dynamics                            
  Dmytro Bykov           : pre 5.0 version of the SCF Hessian            
  Marcos Casanova-Páez   : Triplet and SCS-CIS(D). UHF-(DLPNO)-IP/EA/STEOM-CCSD. UHF-CVS-IP/STEOM-CCSD   
  Vijay G. Chilkuri      : MRCI spin determinant printing, contributions to CSF-ICE 
  Pauline Colinet        : FMM embedding                                 
  Dipayan Datta          : RHF DLPNO-CCSD density                        
  Achintya Kumar Dutta   : EOM-CC, STEOM-CC                              
  Nicolas Foglia         : Exact transition moments, OPA infrastructure, MCD improvements    
  Dmitry Ganyushin       : Spin-Orbit,Spin-Spin,Magnetic field MRCI      
  Miquel Garcia-Rates    : C-PCM and meta-GGA Hessian, CCSD/C-PCM, Gaussian charge scheme 
  Tiago L. C. Gouveia    : GS-ROHF, GS-ROCIS                             
  Yang Guo               : DLPNO-NEVPT2, F12-NEVPT2, CIM, IAO-localization        
  Andreas Hansen         : Spin unrestricted coupled pair/coupled cluster methods 
  Ingolf Harden          : AUTO-CI MPn and infrastructure                
  Benjamin Helmich-Paris : MC-RPA, TRAH-(SCF,CASSCF), AVAS, COSX integrals, SCF dyn. polar. 
  Lee Huntington         : MR-EOM, pCC                                   
  Robert Izsak           : Overlap fitted RIJCOSX, COSX-SCS-MP3, EOM     
  Riya Kayal             : Wick's Theorem for AUTO-CI, AUTO-CI UHF-CCSDT 
  Emily Kempfer          : AUTO-CI, RHF CISDT and CCSDT                  
  Christian Kollmar      : KDIIS, OOCD, Brueckner-CCSD(T), CCSD density, CASPT2, CASPT2-K, improved NEVPT2 
  Axel Koslowski         : Symmetry handling                             
  Simone Kossmann        : meta-GGA functionals, TD-DFT gradient, OOMP2, (MP2 Hessian; deprecated post 5.0) 
  Lucas Lang             : DCDCAS                                        
  Marvin Lechner         : AUTO-CI (C++ implementation), FIC-MRCC        
  Spencer Leger          : CASSCF response                               
  Dagmar Lenk            : GEPOL surface, SMD, ORCA-2-JSON               
  Dimitrios Liakos       : Extrapolation schemes; Compound Job, initial MDCI parallelization 
  Dimitrios Manganas     : Further ROCIS development; embedding schemes. LFT, Crystal Embedding 
  Dimitrios Pantazis     : SARC Basis sets                               
  Anastasios Papadopoulos: AUTO-CI, single reference methods and gradients 
  Taras Petrenko         : pre 6.0 DFT Hessian and TD-DFT gradient, (ASA, deprecated), ECA, 1-Electron XAS/XES, NRVS 
  Peter Pinski           : DLPNO-MP2, DLPNO-MP2 Gradient                 
  Christoph Reimann      : Effective Core Potentials                     
  Marius Retegan         : Local ZFS, SOC                                
  Christoph Riplinger    : Optimizer, TS searches, QM/MM, DLPNO-CCSD(T), (RO)-DLPNO pert. Triples 
  Michael Roemelt        : Original ROCIS implementation                 
  Masaaki Saitow         : Open-shell DLPNO-CCSD energy and density      
  Barbara Sandhoefer     : DKH picture change effects                    
  Kantharuban Sivalingam : CASSCF convergence/infrastructure, NEVPT2 and variants, FIC-MRCI 
  Bernardo de Souza      : ESD, SOC TD-DFT                               
  Georgi L. Stoychev     : AutoAux, RI-MP2 NMR, DLPNO-MP2 response, X2C  
  Van Anh Tran           : RI-MP2 g-tensors                              
  Willem Van den Heuvel  : Paramagnetic NMR                              
  Zikuan Wang            : NOTCH, Electric field optimization            
  Frank Wennmohs         : Technical directorship and infrastructure     
  Hang Xu                : AUTO-CI-Response properties                   
                                                                         
[FACCTs GmbH]                                                            
  Markus Bursch, Miquel Garcia-Rates, Christoph Riplinger, Bernardo de Souza, Georgi L. Stoychev 
                                                                 
  APM, Basis sets (HGBS, AHGBS, def-TZVP (Ac-Lr), def2-XVPD (La-Lu)), CI-OPT, improved COSX, DLPNO-Multilevel,           
  DOCKER, DRACO, updates on ESD, GOAT, IRC, LR-CPCM, MBIS, meta-GGA TD-DFT gradient, ML-optimized integration grids, 
  MM, NACMEs, nearIR, NEB, NEB-TS, NL-DFT gradient (VV10), 2- and 3-layer-ONIOM, interface openCOSMO-RS, QMMM,   
  Crystal-QMMM, SF, symmetry and pop. for TD-DFT, r2SCAN hybrids, SOLVATOR                                   
                                                                         
[Other institutions]                                                     
  V. Asgeirsson          : NEB                                           
  Christoph Bannwarth    : sTDA-DFT, sTD-DFT, PBEh-3c, B97-3c, D3        
  Sebastian Ehlert       : rSCAN, r2SCAN, r2SCAN-3c, D4, dhf basis sets  
  Marvin Friede          : D4 for Fr, Ra, Ac-Lr                          
  Lars Goerigk           : TD-DFT with DH, B97 family of functionals     
  Stefan Grimme          : VdW corrections, initial TS optimization, DFT functionals, gCP, sTDA/sTD-DF 
  Waldemar Hujo          : DFT-NL                                        
  H. Jonsson             : NEB                                           
  Holger Kruse           : gCP                                           
  Marcel Mueller         : wB97X-3c, vDZP basis set                      
  Hagen Neugebauer       : wr2SCAN                                       
  Tobias Risthaus        : range-separated hybrid DFT                    
  Lukas Wittmann         : regularized MP2, r2SCAN double-hybrids, wr2SCAN        
                                                                         
We gratefully acknowledge several colleagues who have allowed us to      
interface, adapt or use parts of their codes:                            
  Ed Valeev, F. Pavosevic, A. Kumar             : LibInt (2-el integral package), F12 methods 
  Garnet Chan, S. Sharma, J. Yang, R. Olivares  : DMRG                   
  Ulf Ekstrom                                   : XCFun DFT Library      
  Mihaly Kallay                                 : mrcc  (arbitrary order and MRCC methods)
  Frank Weinhold                                : gennbo (NPA and NBO analysis)           
  Simon Mueller                                 : openCOSMO-RS                            
  Christopher J. Cramer and Donald G. Truhlar   : smd solvation model                     
  S Lehtola, MJT Oliveira, MAL Marques          : LibXC Library                           
  Liviu Ungur et al                             : ANISO software                          


 Your calculation uses the libint2 library for the computation of 2-el integrals
 For citations please refer to: http://libint.valeyev.net

 Your ORCA version has been built with support for libXC version: 6.2.2
 For citations please refer to: https://libxc.gitlab.io

 This ORCA versions uses:
   CBLAS   interface :  Fast vector & matrix operations
   LAPACKE interface :  Fast linear algebra routines
   SCALAPACK package :  Parallel linear algebra routines
   Shared memory     :  Shared parallel matrices
   BLAS/LAPACK       :  OpenBLAS 0.3.27  USE64BITINT DYNAMIC_ARCH NO_AFFINITY SkylakeX SINGLE_THREADED
        Core in use  :  SkylakeX
   Copyright (c) 2011-2014, The OpenBLAS Project


Your calculation utilizes the atom-pairwise dispersion correction
based on EEQ partial charges (D4)


================================================================================

cite the ECPs for C  [vDZP-ECP], O  [vDZP-ECP] as follows:
   B-Ne (ecp-2-mwb), Al-Ar (ecp-10-mwb), Ga-Kr (ecp-28-mwb), Y-Cd (ecp-28-mwb), In-Xe (ecp-46-mwb):
     A. Bergner, M. Dolg, W. Küchle, H. Stoll, and H. Preuß, Mol. Phys. 80, 1431 (1993)., T. Leininger, A. Berning, A. Nicklass, H. Stoll, H.-J. Werner, and H.-J.Flad, Chem. Phys. 217, 19 (1997).
   Na-Mg, K-Ca, Rb-Sr, Cs-Ba (CRENBL):
     L. Fernandez Pacios and P. A. Christiansen, J. Chem. Phys. 82, 2664 (1985)., M. M. Hurley, L. F. Pacios, P. A. Christiansen, R. B. Ross, and W. C. Ermler, J. Chem. Phys. 84, 6840 (1986)., L. A. LaJohn, P. A. Christiansen, R. B. Ross, T. Atashroo, and W. C. Ermler, J. Chem. Phys. 87, 2812 (1987)., R. B. Ross, J. M. Powers, T. Atashroo, W. C. Ermler, L. A. LaJohn, and P. A. Christiansen, J. Chem. Phys. 93, 6654 (1990). 
   Sc-Zn (ecp-10-mdf):
     M. Dolg, U. Wedig, H. Stoll, and H. Preuss, J. Chem. Phys. 86, 866 (1986). 
   Y-Cd (ecp-28-mwb), Hf-Hg (ecp-60-mwb):
     D. Andrae, U. Häußermann, M. Dolg, H. Stoll, and H. Preuß, Theor. Chim. Acta 77, 123 (1990). 
   La (ecp-46-mwb):
     M. Dolg, H. Stoll, and H. Preuss, J. Chem. Phys. 90, 1730 (1989)., M. Dolg, H. Stoll, and H. Preuss, Theor. Chim. Acta 85, 441 (1993).
   Ce-Lu (SBKJC-ecp):
     T. R. Cundari and W. J. Stevens, J. Chem. Phys. 98, 5555 (1993).
   Tl-Rn (ecp-78-mwb):
     W. Küchle, M. Dolg, H. Stoll, and H. Preuss, Mol. Phys. 74, 1245 (1991).

ECP parameters for C  [vDZP-ECP], O  [vDZP-ECP] have been obtained from:
MM, AH, SG, J. Chem. Phys. 158, 014103 (2023), 10.1063/5.0133026

----- Orbital basis set information -----
Your calculation utilizes the basis: vDZP
   Marcel Mueller, Andreas Hansen, Stefan Grimme 
   J. Chem. Phys. 158, 014103 (2023). DOI: 10.1063/5.0133026

----- AuxJ basis set information -----
Your calculation utilizes the auxiliary basis: def2/J
   F. Weigend, Phys. Chem. Chem. Phys. 8, 1057 (2006).

================================================================================
                                        WARNINGS
                       Please study these warnings very carefully!
================================================================================

WARNING: Frozen-Core approximation turned on, but there are no core electrons.
  ===> : Turning off frozen-core approximation


WARNING: Geometry Optimization
  ===> : Switching off AutoStart
         For restart on a previous wavefunction, please use MOREAD

================================================================================
                                       INPUT FILE
================================================================================
NAME = ./output/eugenol/eugenol.inp
|  1> ! wB97X-3c OPT FREQ TightSCF
|  2> %pal
|  3>   nprocs 40
|  4> end
|  5> * xyz 0 1
|  6> C     -2.744266     2.053566     0.021219
|  7> O     -2.696914     0.655777     0.288663
|  8> C     -1.563790    -0.151213     0.100777
|  9> C     -1.656497    -1.515862     0.410406
| 10> C     -0.545368    -2.352556     0.241998
| 11> C      0.659499    -1.834987    -0.236696
| 12> C      0.765330    -0.474802    -0.561527
| 13> C     -0.345647     0.365701    -0.383759
| 14> C      2.075310     0.085506    -1.048886
| 15> C      2.997958     0.363305     0.104648
| 16> C      2.784764     1.379415     0.945984
| 17> O     -2.859118    -2.033574     0.888602
| 18> H     -2.006038     2.588860     0.655079
| 19> H     -2.536367     2.244156    -1.052873
| 20> H     -3.758618     2.433939     0.259395
| 21> H     -0.614317    -3.405196     0.485344
| 22> H      1.511423    -2.493586    -0.353351
| 23> H     -0.252898     1.416806    -0.622186
| 24> H      2.558883    -0.649146    -1.728543
| 25> H      1.917115     1.015318    -1.638256
| 26> H      3.866504    -0.272198     0.250278
| 27> H      3.471448     1.557537     1.767025
| 28> H      1.930369     2.037837     0.822391
| 29> H     -2.958763    -3.014604     1.122211
| 30> *
| 31> 
| 32>                          ****END OF INPUT****
================================================================================

                       *****************************
                       * Geometry Optimization Run *
                       *****************************

Geometry optimization settings:
Update method            Update   .... BFGS
Choice of coordinates    CoordSys .... (2022) Redundant Internals
Initial Hessian          InHess   .... Almloef's Model
Max. no of cycles        MaxIter  .... 72

Convergence Tolerances:
Energy Change            TolE     ....  5.0000e-06 Eh
Max. Gradient            TolMAXG  ....  3.0000e-04 Eh/bohr
RMS Gradient             TolRMSG  ....  1.0000e-04 Eh/bohr
Max. Displacement        TolMAXD  ....  4.0000e-03 bohr
RMS Displacement         TolRMSD  ....  2.0000e-03 bohr
Strict Convergence                .... False

------------------------------------------------------------------------------
                        ORCA OPTIMIZATION COORDINATE SETUP
------------------------------------------------------------------------------

The optimization will be done in redundant internal coordinates (2022)
Making redundant internal coordinates   ...  (2022 redundants) done
Evaluating the initial hessian          ...  (Almloef) done
Evaluating the coordinates              ...  done
Calculating the B-matrix                .... done
Calculating the G-matrix                .... done
Diagonalizing the G-matrix              .... done
Small eigenvalue found = 9.617e-03
Small eigenvalue found = 1.949e-02
Small eigenvalue found = 2.708e-02
The first mode is                       ....   41
The number of degrees of freedom        ....   66

    -----------------------------------------------------------------
                    Redundant Internal Coordinates


    -----------------------------------------------------------------
         Definition                    Initial Value    Approx d2E/dq
    -----------------------------------------------------------------
      1. B(O   1,C   0)                  1.4239         0.494014   
      2. B(C   2,O   1)                  1.4037         0.532040   
      3. B(C   3,C   2)                  1.4024         0.596969   
      4. B(C   4,C   3)                  1.4011         0.599875   
      5. B(C   5,C   4)                  1.3960         0.611245   
      6. B(C   6,C   5)                  1.4024         0.596901   
      7. B(C   7,C   2)                  1.4092         0.582243   
      8. B(C   7,C   6)                  1.4044         0.592621   
      9. B(C   8,C   6)                  1.5058         0.408268   
     10. B(C   9,C   8)                  1.5030         0.412487   
     11. B(C  10,C   9)                  1.3363         0.760967   
     12. B(O  11,C   3)                  1.3939         0.551610   
     13. B(H  12,C   0)                  1.1105         0.333928   
     14. B(H  13,C   0)                  1.1105         0.333972   
     15. B(H  14,C   0)                  1.1092         0.335578   
     16. B(H  15,C   4)                  1.0826         0.370024   
     17. B(H  16,C   5)                  1.0831         0.369326   
     18. B(H  17,C   7)                  1.0818         0.371125   
     19. B(H  18,C   8)                  1.1115         0.332721   
     20. B(H  19,C   8)                  1.1122         0.331928   
     21. B(H  20,C   9)                  1.0860         0.365401   
     22. B(H  21,C  10)                  1.0851         0.366685   
     23. B(H  22,C  10)                  1.0857         0.365808   
     24. B(H  23,O  11)                  1.0134         0.427381   
     25. A(H  12,C   0,H  14)          108.6660         0.284279   
     26. A(O   1,C   0,H  12)          110.1119         0.333410   
     27. A(H  13,C   0,H  14)          108.6651         0.284285   
     28. A(H  12,C   0,H  13)          110.1744         0.284067   
     29. A(O   1,C   0,H  14)          109.0692         0.333683   
     30. A(O   1,C   0,H  13)          110.1153         0.333418   
     31. A(C   0,O   1,C   2)          124.4740         0.400428   
     32. A(O   1,C   2,C   7)          122.2029         0.414910   
     33. A(O   1,C   2,C   3)          118.4567         0.416758   
     34. A(C   3,C   2,C   7)          119.3403         0.426291   
     35. A(C   2,C   3,O  11)          119.6161         0.419449   
     36. A(C   2,C   3,C   4)          120.1416         0.428576   
     37. A(C   4,C   3,O  11)          120.2422         0.419812   
     38. A(C   5,C   4,H  15)          119.5082         0.353684   
     39. A(C   3,C   4,H  15)          120.2070         0.352562   
     40. A(C   3,C   4,C   5)          120.2845         0.430398   
     41. A(C   4,C   5,H  16)          119.3645         0.353571   
     42. A(C   6,C   5,H  16)          120.3607         0.352153   
     43. A(C   4,C   5,C   6)          120.2748         0.430014   
     44. A(C   7,C   6,C   8)          120.4286         0.399738   
     45. A(C   5,C   6,C   8)          120.0990         0.400245   
     46. A(C   5,C   6,C   7)          119.4351         0.427634   
     47. A(C   6,C   7,H  17)          119.0638         0.352014   
     48. A(C   2,C   7,H  17)          120.4179         0.350964   
     49. A(C   2,C   7,C   6)          120.5182         0.425734   
     50. A(C   6,C   8,H  19)          111.0297         0.324710   
     51. A(C   9,C   8,H  18)          108.9280         0.325387   
     52. A(C   6,C   8,H  18)          109.2954         0.324838   
     53. A(C   6,C   8,C   9)          110.7568         0.375271   
     54. A(C   9,C   8,H  19)          109.8463         0.325259   
     55. A(H  18,C   8,H  19)          106.8830         0.283637   
     56. A(C   8,C   9,C  10)          121.7218         0.418597   
     57. A(C  10,C   9,H  20)          119.2164         0.366350   
     58. A(C   8,C   9,H  20)          119.0580         0.330453   
     59. A(H  21,C  10,H  22)          118.9862         0.292392   
     60. A(C   9,C  10,H  22)          120.9972         0.366420   
     61. A(C   9,C  10,H  21)          120.0165         0.366571   
     62. A(C   3,O  11,H  23)          121.5657         0.350893   
     63. D(C   2,O   1,C   0,H  13)     60.8910         0.019280   
     64. D(C   2,O   1,C   0,H  12)    -60.7939         0.019280   
     65. D(C   2,O   1,C   0,H  14)   -179.9510         0.019280   
     66. D(C   7,C   2,O   1,C   0)     -0.1416         0.020415   
     67. D(C   3,C   2,O   1,C   0)    179.7594         0.020415   
     68. D(C   4,C   3,C   2,O   1)   -179.7121         0.024554   
     69. D(O  11,C   3,C   2,C   7)   -179.9253         0.024554   
     70. D(O  11,C   3,C   2,O   1)      0.1707         0.024554   
     71. D(C   4,C   3,C   2,C   7)      0.1919         0.024554   
     72. D(H  15,C   4,C   3,O  11)     -0.1863         0.024807   
     73. D(H  15,C   4,C   3,C   2)    179.6958         0.024807   
     74. D(C   5,C   4,C   3,O  11)   -179.9927         0.024807   
     75. D(C   5,C   4,C   3,C   2)     -0.1106         0.024807   
     76. D(C   6,C   5,C   4,H  15)    179.7670         0.025810   
     77. D(C   6,C   5,C   4,C   3)     -0.4252         0.025810   
     78. D(H  16,C   5,C   4,H  15)     -0.3150         0.025810   
     79. D(H  16,C   5,C   4,C   3)    179.4927         0.025810   
     80. D(C   8,C   6,C   5,H  16)     -1.2596         0.024548   
     81. D(C   8,C   6,C   5,C   4)    178.6575         0.024548   
     82. D(C   7,C   6,C   5,H  16)   -179.0477         0.024548   
     83. D(C   7,C   6,C   5,C   4)      0.8695         0.024548   
     84. D(H  17,C   7,C   6,C   8)      1.3082         0.024179   
     85. D(H  17,C   7,C   6,C   5)    179.0888         0.024179   
     86. D(C   2,C   7,C   6,C   8)   -178.5688         0.024179   
     87. D(C   2,C   7,C   6,C   5)     -0.7881         0.024179   
     88. D(H  17,C   7,C   2,C   3)   -179.6152         0.023299   
     89. D(H  17,C   7,C   2,O   1)      0.2851         0.023299   
     90. D(C   6,C   7,C   2,C   3)      0.2601         0.023299   
     91. D(C   6,C   7,C   2,O   1)   -179.8396         0.023299   
     92. D(C   9,C   8,C   6,C   7)     97.0065         0.012349   
     93. D(C   9,C   8,C   6,C   5)    -80.7593         0.012349   
     94. D(H  19,C   8,C   6,C   5)    156.9183         0.012349   
     95. D(H  18,C   8,C   6,C   7)   -142.9781         0.012349   
     96. D(H  18,C   8,C   6,C   5)     39.2560         0.012349   
     97. D(H  20,C   9,C   8,H  18)    -11.5050         0.012596   
     98. D(H  20,C   9,C   8,C   6)    108.7297         0.012596   
     99. D(C  10,C   9,C   8,H  19)     51.0233         0.012596   
    100. D(C  10,C   9,C   8,H  18)    167.7784         0.012596   
    101. D(C  10,C   9,C   8,C   6)    -71.9868         0.012596   
    102. D(H  22,C  10,C   9,H  20)    179.4820         0.041414   
    103. D(H  22,C  10,C   9,C   8)      0.1997         0.041414   
    104. D(H  21,C  10,C   9,H  20)     -0.4288         0.041414   
    105. D(H  21,C  10,C   9,C   8)   -179.7111         0.041414   
    106. D(H  23,O  11,C   3,C   4)     -0.0660         0.022013   
    107. D(H  23,O  11,C   3,C   2)   -179.9487         0.022013   
    -----------------------------------------------------------------

Number of atoms                         .... 24
Number of degrees of freedom            .... 107


         *************************************************************
         *                GEOMETRY OPTIMIZATION CYCLE   1            *
         *************************************************************
---------------------------------
CARTESIAN COORDINATES (ANGSTROEM)
---------------------------------
  C     -2.744266    2.053566    0.021219
  O     -2.696914    0.655777    0.288663
  C     -1.563790   -0.151213    0.100777
  C     -1.656497   -1.515862    0.410406
  C     -0.545368   -2.352556    0.241998
  C      0.659499   -1.834987   -0.236696
  C      0.765330   -0.474802   -0.561527
  C     -0.345647    0.365701   -0.383759
  C      2.075310    0.085506   -1.048886
  C      2.997958    0.363305    0.104648
  C      2.784764    1.379415    0.945984
  O     -2.859118   -2.033574    0.888602
  H     -2.006038    2.588860    0.655079
  H     -2.536367    2.244156   -1.052873
  H     -3.758618    2.433939    0.259395
  H     -0.614317   -3.405196    0.485344
  H      1.511423   -2.493586   -0.353351
  H     -0.252898    1.416806   -0.622186
  H      2.558883   -0.649146   -1.728543
  H      1.917115    1.015318   -1.638256
  H      3.866504   -0.272198    0.250278
  H      3.471448    1.557537    1.767025
  H      1.930369    2.037837    0.822391
  H     -2.958763   -3.014604    1.122211

----------------------------
CARTESIAN COORDINATES (A.U.)
----------------------------
  NO LB      ZA    FRAG     MASS         X           Y           Z
   0 C     4.0000*   0    12.011   -5.185911    3.880677    0.040098
   1 O     6.0000*   0    15.999   -5.096429    1.239239    0.545494
   2 C     4.0000*   0    12.011   -2.955135   -0.285751    0.190441
   3 C     4.0000*   0    12.011   -3.130326   -2.864564    0.775555
   4 C     4.0000*   0    12.011   -1.030596   -4.445687    0.457310
   5 C     4.0000*   0    12.011    1.246272   -3.467623   -0.447291
   6 C     4.0000*   0    12.011    1.446264   -0.897246   -1.061132
   7 C     4.0000*   0    12.011   -0.653178    0.691075   -0.725199
   8 C     4.0000*   0    12.011    3.921768    0.161583   -1.982107
   9 C     4.0000*   0    12.011    5.665320    0.686547    0.197756
  10 C     4.0000*   0    12.011    5.262441    2.606717    1.787651
  11 O     6.0000*   0    15.999   -5.402950   -3.842898    1.679214
  12 H     1.0000    0     1.008   -3.790862    4.892236    1.237920
  13 H     1.0000    0     1.008   -4.793039    4.240840   -1.989642
  14 H     1.0000    0     1.008   -7.102759    4.599478    0.490186
  15 H     1.0000    0     1.008   -1.160891   -6.434888    0.917167
  16 H     1.0000    0     1.008    2.856176   -4.712195   -0.667737
  17 H     1.0000    0     1.008   -0.477908    2.677375   -1.175761
  18 H     1.0000    0     1.008    4.835588   -1.226708   -3.266473
  19 H     1.0000    0     1.008    3.622822    1.918673   -3.095855
  20 H     1.0000    0     1.008    7.306634   -0.514380    0.472957
  21 H     1.0000    0     1.008    6.560086    2.943318    3.339193
  22 H     1.0000    0     1.008    3.647869    3.850954    1.554094
  23 H     1.0000    0     1.008   -5.591252   -5.696776    2.120671
* core charge reduced due to ECP

--------------------------------
INTERNAL COORDINATES (ANGSTROEM)
--------------------------------
 C      0   0   0     0.000000000000     0.00000000     0.00000000
 O      1   0   0     1.423932088816     0.00000000     0.00000000
 C      2   1   0     1.403746418863   124.47403080     0.00000000
 C      3   2   1     1.402402081677   118.45668457   179.75943984
 C      4   3   2     1.401080211387   120.14156293   180.28788922
 C      5   4   3     1.395969234291   120.28452379   359.88939423
 C      6   5   4     1.402433104767   120.27477800   359.57476686
 C      7   6   5     1.404391914446   119.43513349     0.86945516
 C      7   6   5     1.505825836591   120.09899446   178.65754658
 C      9   7   6     1.503027712805   110.75682392   279.24065994
 C     10   9   7     1.336329853978   121.72178754   288.01315425
 O      4   3   2     1.393913339846   119.61614847     0.17070231
 H      1   2   3     1.110539844409   110.11191908   299.20606161
 H      1   2   3     1.110504464991   110.11529609    60.89098577
 H      1   2   3     1.109198542196   109.06923127   180.04898334
 H      5   4   3     1.082599745944   120.20698019   179.69581481
 H      6   5   4     1.083113813780   119.36448844   179.49272952
 H      8   7   6     1.081790891233   119.06379878   179.08881968
 H      9   7   6     1.111525998383   109.29540256    39.25596388
 H      9   7   6     1.112174900935   111.02968013   156.91830305
 H     10   9   7     1.086022243798   119.05797211   108.72972415
 H     11  10   9     1.085067134523   120.01652677   180.28885187
 H     11  10   9     1.085718921157   120.99724044     0.19971270
 H     12   4   3     1.013371675056   121.56569709   180.05125931

---------------------------
INTERNAL COORDINATES (A.U.)
---------------------------
 C      0   0   0     0.000000000000     0.00000000     0.00000000
 O      1   0   0     2.690841681165     0.00000000     0.00000000
 C      2   1   0     2.652696293125   124.47403080     0.00000000
 C      3   2   1     2.650155864010   118.45668457   179.75943984
 C      4   3   2     2.647657891178   120.14156293   180.28788922
 C      5   4   3     2.637999544189   120.28452379   359.88939423
 C      6   5   4     2.650214489155   120.27477800   359.57476686
 C      7   6   5     2.653916102997   119.43513349     0.86945516
 C      7   6   5     2.845598436540   120.09899446   178.65754658
 C      9   7   6     2.840310748896   110.75682392   279.24065994
 C     10   9   7     2.525297448601   121.72178754   288.01315425
 O      4   3   2     2.634114466729   119.61614847     0.17070231
 H      1   2   3     2.098616166741   110.11191908   299.20606161
 H      1   2   3     2.098549309330   110.11529609    60.89098577
 H      1   2   3     2.096081472895   109.06923127   180.04898334
 H      5   4   3     2.045817032486   120.20698019   179.69581481
 H      6   5   4     2.046788479912   119.36448844   179.49272952
 H      8   7   6     2.044288518601   119.06379878   179.08881968
 H      9   7   6     2.100479727678   109.29540256    39.25596388
 H      9   7   6     2.101705975787   111.02968013   156.91830305
 H     10   9   7     2.052284616126   119.05797211   108.72972415
 H     11  10   9     2.050479721166   120.01652677   180.28885187
 H     11  10   9     2.051711419403   120.99724044     0.19971270
 H     12   4   3     1.914994937729   121.56569709   180.05125931

---------------------
BASIS SET INFORMATION
---------------------
There are 3 groups of distinct atoms

 Group   1 Type C   : 6s6p2d contracted to 2s2p1d pattern {42/42/2}
 Group   2 Type O   : 6s6p2d contracted to 2s2p1d pattern {42/42/2}
 Group   3 Type H   : 8s2p contracted to 2s1p pattern {53/2}

Atom   0C    basis set group =>   1
Atom   1O    basis set group =>   2
Atom   2C    basis set group =>   1
Atom   3C    basis set group =>   1
Atom   4C    basis set group =>   1
Atom   5C    basis set group =>   1
Atom   6C    basis set group =>   1
Atom   7C    basis set group =>   1
Atom   8C    basis set group =>   1
Atom   9C    basis set group =>   1
Atom  10C    basis set group =>   1
Atom  11O    basis set group =>   2
Atom  12H    basis set group =>   3
Atom  13H    basis set group =>   3
Atom  14H    basis set group =>   3
Atom  15H    basis set group =>   3
Atom  16H    basis set group =>   3
Atom  17H    basis set group =>   3
Atom  18H    basis set group =>   3
Atom  19H    basis set group =>   3
Atom  20H    basis set group =>   3
Atom  21H    basis set group =>   3
Atom  22H    basis set group =>   3
Atom  23H    basis set group =>   3
---------------------------------
AUXILIARY/J BASIS SET INFORMATION
---------------------------------
There are 3 groups of distinct atoms

 Group   1 Type C   : 12s5p4d2f1g contracted to 6s4p3d1f1g pattern {711111/2111/211/2/1}
 Group   2 Type O   : 12s5p4d2f1g contracted to 6s4p3d1f1g pattern {711111/2111/211/2/1}
 Group   3 Type H   : 5s2p1d contracted to 3s1p1d pattern {311/2/1}

Atom   0C    basis set group =>   1
Atom   1O    basis set group =>   2
Atom   2C    basis set group =>   1
Atom   3C    basis set group =>   1
Atom   4C    basis set group =>   1
Atom   5C    basis set group =>   1
Atom   6C    basis set group =>   1
Atom   7C    basis set group =>   1
Atom   8C    basis set group =>   1
Atom   9C    basis set group =>   1
Atom  10C    basis set group =>   1
Atom  11O    basis set group =>   2
Atom  12H    basis set group =>   3
Atom  13H    basis set group =>   3
Atom  14H    basis set group =>   3
Atom  15H    basis set group =>   3
Atom  16H    basis set group =>   3
Atom  17H    basis set group =>   3
Atom  18H    basis set group =>   3
Atom  19H    basis set group =>   3
Atom  20H    basis set group =>   3
Atom  21H    basis set group =>   3
Atom  22H    basis set group =>   3
Atom  23H    basis set group =>   3
-------------------------
ECP PARAMETER INFORMATION
-------------------------

 Group 1, Type C  ECP vDZP-ECP (replacing 2 core electrons, lmax=3)
 Group 2, Type O  ECP vDZP-ECP (replacing 2 core electrons, lmax=3)

Atom   0C    ECP group =>   1
Atom   1O    ECP group =>   2
Atom   2C    ECP group =>   1
Atom   3C    ECP group =>   1
Atom   4C    ECP group =>   1
Atom   5C    ECP group =>   1
Atom   6C    ECP group =>   1
Atom   7C    ECP group =>   1
Atom   8C    ECP group =>   1
Atom   9C    ECP group =>   1
Atom  10C    ECP group =>   1
Atom  11O    ECP group =>   2



           ************************************************************
           *        Program running with 40 parallel MPI-processes    *
           *              working on a common directory               *
           ************************************************************
------------------------------------------------------------------------------
                             ORCA STARTUP CALCULATIONS
                           -- RI-GTO INTEGRALS CHOSEN --
------------------------------------------------------------------------------
------------------------------------------------------------------------------
                   ___                                                        
                  /   \      - P O W E R E D   B Y -                         
                 /     \                                                     
                 |  |  |   _    _      __       _____    __    __             
                 |  |  |  | |  | |    /  \     |  _  \  |  |  /  |          
                  \  \/   | |  | |   /    \    | | | |  |  | /  /          
                 / \  \   | |__| |  /  /\  \   | |_| |  |  |/  /          
                |  |  |   |  __  | /  /__\  \  |    /   |      \           
                |  |  |   | |  | | |   __   |  |    \   |  |\   \          
                \     /   | |  | | |  |  |  |  | |\  \  |  | \   \       
                 \___/    |_|  |_| |__|  |__|  |_| \__\ |__|  \__/        
                                                                              
                      - O R C A' S   B I G   F R I E N D -                    
                                      &                                       
                       - I N T E G R A L  F E E D E R -                       
                                                                              
 v1 FN, 2020, v2 2021, v3 2022-2024                                           
------------------------------------------------------------------------------


----------------------
SHARK INTEGRAL PACKAGE
----------------------

Number of atoms                             ...     24
Number of basis functions                   ...    216
Number of shells                            ...     96
Maximum angular momentum                    ...      2
Integral batch strategy                     ... SHARK/LIBINT Hybrid
RI-J (if used) integral strategy            ... SPLIT-RIJ (Revised 2003 algorithm where possible)
Printlevel                                  ...      1
Contraction scheme used                     ... SEGMENTED contraction
Prescreening option                         ... SCHWARTZ
   Thresh                                   ... 2.500e-11
   Tcut                                     ... 2.500e-12
   Tpresel                                  ... 2.500e-12 
Coulomb Range Separation                    ... NOT USED
Exchange Range Separation                   ... Long Range
   Mu parameter                             ... 3.000e-01
   Scaling (regular/separated)              ... 1.670e-01 8.330e-01
Multipole approximations                    ... NOT USED
Finite Nucleus Model                        ... NOT USED
CABS basis                                  ... NOT available
Auxiliary Coulomb fitting basis             ... AVAILABLE
   # of basis functions in Aux-J            ...    720
   # of shells in Aux-J                     ...    240
   Maximum angular momentum in Aux-J        ...      4
Auxiliary J/K fitting basis                 ... NOT available
Auxiliary Correlation fitting basis         ... NOT available
Auxiliary 'external' fitting basis          ... NOT available

Checking pre-screening integrals            ... done (  0.0 sec) Dimension = 96
Check shell pair data                       ... done (  0.0 sec)
Shell pair information
Shell pair cut-off parameter TPreSel        ...   2.5e-12
Total number of shell pairs                 ...      4656
Shell pairs after pre-screening             ...      4637
Total number of primitive shell pairs       ...     41964
Primitive shell pairs kept                  ...     33036
          la=0 lb=0:   1175 shell pairs
          la=1 lb=0:   1722 shell pairs
          la=1 lb=1:    658 shell pairs
          la=2 lb=0:    575 shell pairs
          la=2 lb=1:    429 shell pairs
          la=2 lb=2:     78 shell pairs

Calculating one electron integrals          ... done (  0.0 sec)
Calculating ECP integrals                   ... done (  0.1 sec)
Calculating RI/J V-Matrix + Cholesky decomp.... done (  0.0 sec)
Calculating Nuclear repulsion               ... done (  0.0 sec) ENN=    349.165269814131 Eh

Diagonalization of the overlap matrix:
Smallest eigenvalue                        ... 2.921e-04
Time for diagonalization                   ...    0.006 sec
Threshold for overlap eigenvalues          ... 1.000e-07
Number of eigenvalues below threshold      ... 0
Time for construction of square roots      ...    0.004 sec
Total time needed                          ...    0.014 sec

-------------------
DFT GRID GENERATION
-------------------

General Integration Accuracy     IntAcc      ... 4.388
Radial Grid Type                 RadialGrid  ... OptM3 with GC (2021)
Angular Grid (max. ang.)         AngularGrid ... 4 (Lebedev-302)
Angular grid pruning method      GridPruning ... 4 (adaptive)
Weight generation scheme         WeightScheme... mBecke (2022)
Basis function cutoff            BFCut       ... 1.0000e-11
Integration weight cutoff        WCut        ... 1.0000e-14
Partially contracted basis set               ... off
Rotationally invariant grid construction     ... off
Angular grids for H and He will be reduced by one unit

Total number of grid points                  ...   110696
Total number of batches                      ...     1741
Average number of points per batch           ...       63
Average number of grid points per atom       ...     4612

--------------------
COSX GRID GENERATION
--------------------

GRIDX 1
-------
General Integration Accuracy     IntAcc      ... 3.816
Radial Grid Type                 RadialGrid  ... OptM3 with GC (2021)
Angular Grid (max. ang.)         AngularGrid ... 1 (Lebedev-50)
Angular grid pruning method      GridPruning ... 4 (adaptive)
Weight generation scheme         WeightScheme... mBecke (2022)
Basis function cutoff            BFCut       ... 1.0000e-11
Integration weight cutoff        WCut        ... 1.0000e-14
Partially contracted basis set               ... on
Rotationally invariant grid construction     ... off
Angular grids for H and He will be reduced by one unit

Total number of grid points                  ...    14135
Total number of batches                      ...      125
Average number of points per batch           ...      113
Average number of grid points per atom       ...      589
UseSFitting                                  ... on

GRIDX 2
-------
General Integration Accuracy     IntAcc      ... 4.020
Radial Grid Type                 RadialGrid  ... OptM3 with GC (2021)
Angular Grid (max. ang.)         AngularGrid ... 2 (Lebedev-110)
Angular grid pruning method      GridPruning ... 4 (adaptive)
Weight generation scheme         WeightScheme... mBecke (2022)
Basis function cutoff            BFCut       ... 1.0000e-11
Integration weight cutoff        WCut        ... 1.0000e-14
Partially contracted basis set               ... on
Rotationally invariant grid construction     ... off
Angular grids for H and He will be reduced by one unit

Total number of grid points                  ...    30470
Total number of batches                      ...      249
Average number of points per batch           ...      122
Average number of grid points per atom       ...     1270
UseSFitting                                  ... on

GRIDX 3
-------
General Integration Accuracy     IntAcc      ... 4.338
Radial Grid Type                 RadialGrid  ... OptM3 with GC (2021)
Angular Grid (max. ang.)         AngularGrid ... 3 (Lebedev-194)
Angular grid pruning method      GridPruning ... 4 (adaptive)
Weight generation scheme         WeightScheme... mBecke (2022)
Basis function cutoff            BFCut       ... 1.0000e-11
Integration weight cutoff        WCut        ... 1.0000e-14
Partially contracted basis set               ... on
Rotationally invariant grid construction     ... off
Angular grids for H and He will be reduced by one unit

Total number of grid points                  ...    66728
Total number of batches                      ...      535
Average number of points per batch           ...      124
Average number of grid points per atom       ...     2780
UseSFitting                                  ... on
Initializing property integral containers    ... done (  0.0 sec)

SHARK setup successfully completed in   3.3 seconds

Maximum memory used throughout the entire STARTUP-calculation: 32.0 MB


           ************************************************************
           *        Program running with 40 parallel MPI-processes    *
           *              working on a common directory               *
           ************************************************************
-------------------------------------------------------------------------------
                                 ORCA GUESS
                   Start orbitals & Density for SCF / CASSCF
-------------------------------------------------------------------------------

------------
SCF SETTINGS
------------
Hamiltonian:
 Density Functional     Method          .... DFT(GTOs)
 Exchange Functional    Exchange        .... WB97X-V
 Correlation Functional Correlation     .... WB97X-V
 Gradients option       PostSCFGGA      .... off
 Hybrid DFT is turned on
   Fraction HF Exchange ScalHFX         ....  0.167000
   Scaling of DF-GGA-X  ScalDFX         ....  0.000000
   Scaling of DF-GGA-C  ScalDFC         ....  1.000000
   Scaling of DF-LDA-C  ScalLDAC        ....  1.000000
   Perturbative correction              ....  0.000000
 Long-range corrected/Screened/Range-Separated Hybrid DFT is turned on
   Amount of maximum screened exact exchange              ....  0.833000
   Range separation parameter mu (erf(mu*r12)/r12)        ....  0.300000
   NL short-range parameter             ....  6.000000
   NL long-range parameter              ....  0.010000
 RI-approximation to the Coulomb term is turned on
   Number of AuxJ basis functions       .... 720
   RIJ-COSX (HFX calculated with COS-X)).... on


General Settings:
 Integral files         IntName         .... ./output/eugenol/eugenol
 Hartree-Fock type      HFTyp           .... RHF
 Total Charge           Charge          ....    0
 Multiplicity           Mult            ....    1
 Number of Electrons    NEL             ....   64
 Basis Dimension        Dim             ....  216
 Nuclear Repulsion      ENuc            ....    349.1652698141 Eh

Convergence Acceleration:
 AO-DIIS                CNVDIIS         .... on
   Start iteration      DIISMaxIt       ....    12
   Startup error        DIISStart       ....  0.200000
   # of expansion vecs  DIISMaxEq       ....     5
   Bias factor          DIISBfac        ....   1.050
   Max. coefficient     DIISMaxC        ....  10.000
 MO-DIIS                CNVKDIIS        .... off
 Trust-Rad. Augm. Hess. CNVTRAH         .... auto
   Auto Start mean grad. ratio tolernc. ....  1.125000
   Auto Start start iteration           ....    50
   Auto Start num. interpolation iter.  ....    10
   Max. Number of Micro iterations      ....    24
   Max. Number of Macro iterations      .... Maxiter - #DIIS iter
   Number of Davidson start vectors     ....     2
   Converg. threshold    (grad. norm)   ....   1.000e-05
   Grad. Scal. Fac. for Micro threshold ....   0.100
   Minimum threshold for Micro iter.    ....   1.000e-02
   NR start threshold (gradient norm)   ....   1.000e-04
   Initial trust radius                 ....   0.400
   Minimum AH scaling param. (alpha)    ....   1.000
   Maximum AH scaling param. (alpha)    .... 1000.000
   Quad. conv. algorithm                .... NR
   White noise on init. David. guess    .... on
   Maximum white noise                  ....   0.010
   Pseudo random numbers                .... off
   Inactive MOs                         .... canonical
   Orbital update algorithm             .... Taylor
   Preconditioner                       .... Diag
   Full preconditioner red. dimension   ....   250
 SOSCF                  CNVSOSCF        .... on
   Start iteration      SOSCFMaxIt      ....   150
   Startup grad/error   SOSCFStart      ....  0.003300
   Hessian update       SOSCFHessUp     .... L-BFGS
 Level Shifting         CNVShift        .... on
   Level shift para.    LevelShift      ....    0.2500
   Turn off err/grad.   ShiftErr        ....    0.0010
 Zerner damping         CNVZerner       .... off
 Static damping         CNVDamp         .... on
   Fraction old density DampFac         ....    0.7000
   Max. Damping (<1)    DampMax         ....    0.9800
   Min. Damping (>=0)   DampMin         ....    0.0000
   Turn off err/grad.   DampErr         ....    0.1000

SCF Procedure:
 Maximum # iterations   MaxIter         ....   125
 SCF integral mode      SCFMode         .... Direct
   Integral package                     .... SHARK and LIBINT hybrid scheme
 Reset frequency        DirectResetFreq ....    20
 Integral Threshold     Thresh          ....  2.500e-11 Eh
 Primitive CutOff       TCut            ....  2.500e-12 Eh

Convergence Tolerance:
 Convergence Check Mode ConvCheckMode   .... Total+1el-Energy
 Convergence forced     ConvForced      .... 0
 Energy Change          TolE            ....  1.000e-08 Eh
 1-El. energy change                    ....  1.000e-05 Eh
 Orbital Gradient       TolG            ....  1.000e-05
 Orbital Rotation angle TolX            ....  1.000e-05
 DIIS Error             TolErr          ....  5.000e-07

------------------------------
INITIAL GUESS: MODEL POTENTIAL
------------------------------
Loading Hartree-Fock densities                     ... done
Atomic calculation to generate a density for atom 0 (C  with ECP)
  Multiplicity assumed   :    1
  Atomic configuration   : 1s2 2s2 2p2 
  Number of open shells  : 1
  Command: /home/aspe232/Project/Software/ORCA/6_0_1/build/orca ./output/eugenol/eugenol_atom6.inp "" > ./output/eugenol/eugenol_atom6.out
Returned from the atomic calculation with res=0
Atomic calculation to generate a density for atom 1 (O  with ECP)
  Multiplicity assumed   :    3
  Atomic configuration   : 1s2 2s2 2p4 
  Number of open shells  : 1
  Command: /home/aspe232/Project/Software/ORCA/6_0_1/build/orca ./output/eugenol/eugenol_atom8.inp "" > ./output/eugenol/eugenol_atom8.out
Returned from the atomic calculation with res=0
Calculating cut-offs                               ... done
Initializing the effective Hamiltonian             ... done
Setting up the integral package (SHARK)            ... done
Starting the Coulomb interaction                   ... done (   0.0 sec)
Making the grid                                    ... done (   0.9 sec)
Mapping shells                                     ... done
Starting the XC term evaluation                    ... done (   0.0 sec)
  promolecular density results
     # of electrons  =     87.995095507
     EX              =    -47.810241500
     EC              =     -3.615241903
     EX+EC           =    -51.425483403
Transforming the Hamiltonian                       ... done (   0.0 sec)
Diagonalizing the Hamiltonian                      ... done (   0.0 sec)
Back transforming the eigenvectors                 ... done (   0.0 sec)
Now organizing SCF variables                       ... done
                      ------------------
                      INITIAL GUESS DONE (   2.1 sec)
                      ------------------
             **** ENERGY FILE WAS UPDATED (./output/eugenol/eugenol.en.tmp) ****
Finished Guess after   2.6 sec
Maximum memory used throughout the entire GUESS-calculation: 19.7 MB


           ************************************************************
           *        Program running with 40 parallel MPI-processes    *
           *              working on a common directory               *
           ************************************************************

-------------------------------------------------------------------------------------------
                                      ORCA LEAN-SCF
                              memory conserving SCF solver
-------------------------------------------------------------------------------------------

----------------------------------------D-I-I-S--------------------------------------------
Iteration    Energy (Eh)           Delta-E    RMSDP     MaxDP     DIISErr   Damp  Time(sec)
-------------------------------------------------------------------------------------------
               ***  Starting incremental Fock matrix formation  ***
    1    -95.8330095082979483     0.00e+00  3.90e-03  7.87e-02  2.00e-01  0.700   4.3
    2    -95.9819151698237647    -1.49e-01  2.91e-03  5.79e-02  1.23e-01  0.700   3.4
                               ***Turning on AO-DIIS***
    3    -96.0623805793669021    -8.05e-02  1.63e-03  3.12e-02  6.80e-02  0.700   3.1
    4    -96.1103974233390659    -4.80e-02  3.56e-03  6.52e-02  4.73e-02  0.000   2.9
    5    -96.2117974591246252    -1.01e-01  2.49e-04  5.22e-03  3.60e-03  0.000   3.3
                              *** Initializing SOSCF ***
---------------------------------------S-O-S-C-F--------------------------------------
Iteration    Energy (Eh)           Delta-E    RMSDP     MaxDP     MaxGrad    Time(sec)
--------------------------------------------------------------------------------------
    6    -96.2120681652414191    -2.71e-04  1.11e-04  2.66e-03  2.22e-03     3.2
               *** Restarting incremental Fock matrix formation ***
    7    -96.2120565548569289     1.16e-05  7.80e-05  1.37e-03  9.78e-04     3.8
    8    -96.2120746024497180    -1.80e-05  6.52e-05  1.37e-03  2.97e-04     3.9
    9    -96.2120791695962794    -4.57e-06  2.10e-05  4.14e-04  1.63e-04     3.8
   10    -96.2120803371485067    -1.17e-06  5.24e-06  9.09e-05  4.39e-05     3.5
   11    -96.2120804143681880    -7.72e-08  3.56e-06  8.89e-05  2.78e-05     3.2
   12    -96.2120804324594019    -1.81e-08  1.17e-06  2.92e-05  6.65e-06     3.2
   13    -96.2120804491915464    -1.67e-08  4.72e-07  1.32e-05  3.33e-06     3.1
   14    -96.2120804547707280    -5.58e-09  1.29e-07  3.51e-06  1.07e-06     3.0
                 **** Energy Check signals convergence ****

               *****************************************************
               *                     SUCCESS                       *
               *           SCF CONVERGED AFTER  14 CYCLES          *
               *****************************************************

Recomputing exchange energy using gridx3       ... done (    3.317 sec)
Old exchange energy                            :    -12.473805758 Eh
New exchange energy                            :    -12.473832480 Eh
Exchange energy change after final integration :     -0.000026722 Eh
Total energy after final integration           :    -96.212107177 Eh
             **** ENERGY FILE WAS UPDATED (./output/eugenol/eugenol.en.tmp) ****

----------------
TOTAL SCF ENERGY
----------------

Total Energy       :        -96.21210717711097 Eh           -2618.06454 eV

Components:
Nuclear Repulsion  :        349.16526981413091 Eh            9501.27003 eV
Electronic Energy  :       -445.37735026890164 Eh          -12119.33384 eV
One Electron Energy:       -840.67177719781319 Eh          -22875.84204 eV
Two Electron Energy:        395.29442692891155 Eh           10756.50821 eV

Virial components:
Potential Energy   :       -170.67452001461720 Eh           -4644.28980 eV
Kinetic Energy     :         74.46241283750624 Eh            2026.22526 eV
Virial Ratio       :          2.29208957258835

DFT components:
N(Alpha)           :       31.999961485835 electrons
N(Beta)            :       31.999961485835 electrons
N(Total)           :       63.999922971671 electrons
E(X)               :      -13.898394275116 Eh       
E(C)               :       -2.452550549925 Eh       
E(XC)              :      -16.350944825041 Eh       

---------------
SCF CONVERGENCE
---------------

  Last Energy change         ...    5.5792e-09  Tolerance :   1.0000e-08
  Last MAX-Density change    ...    3.5096e-06  Tolerance :   1.0000e-07
  Last RMS-Density change    ...    1.2908e-07  Tolerance :   5.0000e-09
  Last DIIS Error            ...    2.2152e-03  Tolerance :   5.0000e-07
  Last Orbital Gradient      ...    1.0678e-06  Tolerance :   1.0000e-05
  Last Orbital Rotation      ...    1.9182e-06  Tolerance :   1.0000e-05


----------------
ORBITAL ENERGIES
----------------

  NO   OCC          E(Eh)            E(eV) 
   0   2.0000      -1.173937       -31.9445 
   1   2.0000      -1.149854       -31.2891 
   2   2.0000      -0.999170       -27.1888 
   3   2.0000      -0.942290       -25.6410 
   4   2.0000      -0.893195       -24.3051 
   5   2.0000      -0.882190       -24.0056 
   6   2.0000      -0.829975       -22.5848 
   7   2.0000      -0.807313       -21.9681 
   8   2.0000      -0.745803       -20.2943 
   9   2.0000      -0.718873       -19.5615 
  10   2.0000      -0.676975       -18.4214 
  11   2.0000      -0.666816       -18.1450 
  12   2.0000      -0.620882       -16.8950 
  13   2.0000      -0.614374       -16.7180 
  14   2.0000      -0.588387       -16.0108 
  15   2.0000      -0.579902       -15.7799 
  16   2.0000      -0.570814       -15.5326 
  17   2.0000      -0.557292       -15.1647 
  18   2.0000      -0.543039       -14.7768 
  19   2.0000      -0.535217       -14.5640 
  20   2.0000      -0.521331       -14.1861 
  21   2.0000      -0.506622       -13.7859 
  22   2.0000      -0.489374       -13.3165 
  23   2.0000      -0.466544       -12.6953 
  24   2.0000      -0.460879       -12.5412 
  25   2.0000      -0.451396       -12.2831 
  26   2.0000      -0.447569       -12.1790 
  27   2.0000      -0.423445       -11.5225 
  28   2.0000      -0.421220       -11.4620 
  29   2.0000      -0.362306        -9.8589 
  30   2.0000      -0.335533        -9.1303 
  31   2.0000      -0.299618        -8.1530 
  32   0.0000       0.058628         1.5954 
  33   0.0000       0.071528         1.9464 
  34   0.0000       0.075758         2.0615 
  35   0.0000       0.083658         2.2765 
  36   0.0000       0.093453         2.5430 
  37   0.0000       0.096059         2.6139 
  38   0.0000       0.113107         3.0778 
  39   0.0000       0.120149         3.2694 
  40   0.0000       0.120575         3.2810 
  41   0.0000       0.136753         3.7212 
  42   0.0000       0.148808         4.0493 
*Only the first 10 virtual orbitals were printed.

                    ********************************
                    * MULLIKEN POPULATION ANALYSIS *
                    ********************************

-----------------------
MULLIKEN ATOMIC CHARGES
-----------------------
   0 C :    0.073600
   1 O :   -0.330371
   2 C :    0.111617
   3 C :    0.098099
   4 C :    0.004464
   5 C :    0.015496
   6 C :   -0.062671
   7 C :   -0.021733
   8 C :   -0.088888
   9 C :   -0.033976
  10 C :   -0.025307
  11 O :   -0.290102
  12 H :    0.041772
  13 H :    0.044205
  14 H :    0.065901
  15 H :    0.013353
  16 H :    0.011619
  17 H :   -0.000031
  18 H :    0.054991
  19 H :    0.059704
  20 H :    0.016177
  21 H :    0.031337
  22 H :    0.014381
  23 H :    0.196364
Sum of atomic charges:   -0.0000000

--------------------------------
MULLIKEN REDUCED ORBITAL CHARGES
--------------------------------
  0 C s       :     0.984445  s :     0.984445
      pz      :     1.038937  p :     2.825693
      px      :     1.087775
      py      :     0.698980
      dz2     :     0.022295  d :     0.116262
      dxz     :     0.008786
      dyz     :     0.031424
      dx2y2   :     0.023131
      dxy     :     0.030625

  1 O s       :     1.710729  s :     1.710729
      pz      :     1.796235  p :     4.581613
      px      :     1.516643
      py      :     1.268735
      dz2     :     0.004666  d :     0.038030
      dxz     :     0.004968
      dyz     :     0.006735
      dx2y2   :     0.012037
      dxy     :     0.009624

  2 C s       :     1.061495  s :     1.061495
      pz      :     0.964604  p :     2.663263
      px      :     0.814787
      py      :     0.883872
      dz2     :     0.014215  d :     0.163625
      dxz     :     0.031966
      dyz     :     0.028530
      dx2y2   :     0.049378
      dxy     :     0.039536

  3 C s       :     1.057581  s :     1.057581
      pz      :     0.948729  p :     2.678170
      px      :     0.769885
      py      :     0.959556
      dz2     :     0.018147  d :     0.166150
      dxz     :     0.033998
      dyz     :     0.025540
      dx2y2   :     0.047410
      dxy     :     0.041054

  4 C s       :     0.991654  s :     0.991654
      pz      :     1.000985  p :     2.912192
      px      :     0.938746
      py      :     0.972461
      dz2     :     0.008948  d :     0.091690
      dxz     :     0.020471
      dyz     :     0.010321
      dx2y2   :     0.029183
      dxy     :     0.022766

  5 C s       :     0.993575  s :     0.993575
      pz      :     0.984197  p :     2.897094
      px      :     0.955956
      py      :     0.956941
      dz2     :     0.010632  d :     0.093834
      dxz     :     0.011795
      dyz     :     0.016149
      dx2y2   :     0.022184
      dxy     :     0.033074

  6 C s       :     1.046704  s :     1.046704
      pz      :     0.966830  p :     2.893726
      px      :     0.947514
      py      :     0.979382
      dz2     :     0.009269  d :     0.122241
      dxz     :     0.020376
      dyz     :     0.023698
      dx2y2   :     0.034282
      dxy     :     0.034616

  7 C s       :     0.981333  s :     0.981333
      pz      :     1.024851  p :     2.951509
      px      :     0.948545
      py      :     0.978113
      dz2     :     0.009109  d :     0.088891
      dxz     :     0.019747
      dyz     :     0.008891
      dx2y2   :     0.030753
      dxy     :     0.020391

  8 C s       :     0.975641  s :     0.975641
      pz      :     0.992859  p :     3.011881
      px      :     0.957371
      py      :     1.061651
      dz2     :     0.015188  d :     0.101366
      dxz     :     0.025286
      dyz     :     0.024271
      dx2y2   :     0.018419
      dxy     :     0.018201

  9 C s       :     1.061406  s :     1.061406
      pz      :     0.946741  p :     2.877661
      px      :     0.953326
      py      :     0.977595
      dz2     :     0.026534  d :     0.094909
      dxz     :     0.016818
      dyz     :     0.016207
      dx2y2   :     0.013019
      dxy     :     0.022330

 10 C s       :     1.008669  s :     1.008669
      pz      :     0.985179  p :     2.951681
      px      :     0.984357
      py      :     0.982146
      dz2     :     0.016378  d :     0.064956
      dxz     :     0.014263
      dyz     :     0.007892
      dx2y2   :     0.009539
      dxy     :     0.016885

 11 O s       :     1.623872  s :     1.623872
      pz      :     1.767339  p :     4.637574
      px      :     1.499613
      py      :     1.370622
      dz2     :     0.004310  d :     0.028656
      dxz     :     0.006096
      dyz     :     0.001952
      dx2y2   :     0.012653
      dxy     :     0.003645

 12 H s       :     0.917492  s :     0.917492
      pz      :     0.014987  p :     0.040736
      px      :     0.016371
      py      :     0.009378

 13 H s       :     0.915026  s :     0.915026
      pz      :     0.023816  p :     0.040770
      px      :     0.010804
      py      :     0.006150

 14 H s       :     0.893669  s :     0.893669
      pz      :     0.011246  p :     0.040430
      px      :     0.022539
      py      :     0.006644

 15 H s       :     0.935686  s :     0.935686
      pz      :     0.015593  p :     0.050961
      px      :     0.010259
      py      :     0.025109

 16 H s       :     0.937691  s :     0.937691
      pz      :     0.014792  p :     0.050690
      px      :     0.020187
      py      :     0.015711

 17 H s       :     0.946754  s :     0.946754
      pz      :     0.016505  p :     0.053277
      px      :     0.010928
      py      :     0.025844

 18 H s       :     0.901809  s :     0.901809
      pz      :     0.015088  p :     0.043200
      px      :     0.012700
      py      :     0.015413

 19 H s       :     0.897020  s :     0.897020
      pz      :     0.013743  p :     0.043275
      px      :     0.009891
      py      :     0.019641

 20 H s       :     0.935814  s :     0.935814
      pz      :     0.011249  p :     0.048009
      px      :     0.020716
      py      :     0.016044

 21 H s       :     0.918266  s :     0.918266
      pz      :     0.020670  p :     0.050397
      px      :     0.017859
      py      :     0.011869

 22 H s       :     0.935068  s :     0.935068
      pz      :     0.011397  p :     0.050551
      px      :     0.021866
      py      :     0.017288

 23 H s       :     0.705632  s :     0.705632
      pz      :     0.032203  p :     0.098003
      px      :     0.024230
      py      :     0.041570



                     *******************************
                     * LOEWDIN POPULATION ANALYSIS *
                     *******************************

----------------------
LOEWDIN ATOMIC CHARGES
----------------------
   0 C :   -0.059718
   1 O :   -0.066896
   2 C :   -0.002440
   3 C :   -0.010187
   4 C :   -0.049508
   5 C :   -0.048600
   6 C :   -0.041596
   7 C :   -0.044628
   8 C :   -0.092208
   9 C :   -0.045654
  10 C :   -0.068189
  11 O :   -0.066976
  12 H :    0.044504
  13 H :    0.045037
  14 H :    0.065348
  15 H :    0.042862
  16 H :    0.042651
  17 H :    0.036797
  18 H :    0.059235
  19 H :    0.061473
  20 H :    0.038248
  21 H :    0.036366
  22 H :    0.032978
  23 H :    0.091103

-------------------------------
LOEWDIN REDUCED ORBITAL CHARGES
-------------------------------
  0 C s       :     0.784774  s :     0.784774
      pz      :     1.073773  p :     2.926219
      px      :     1.091708
      py      :     0.760738
      dz2     :     0.069887  d :     0.348725
      dxz     :     0.026869
      dyz     :     0.088470
      dx2y2   :     0.075875
      dxy     :     0.087625

  1 O s       :     1.393663  s :     1.393663
      pz      :     1.719944  p :     4.571955
      px      :     1.531517
      py      :     1.320494
      dz2     :     0.010753  d :     0.101278
      dxz     :     0.010063
      dyz     :     0.019487
      dx2y2   :     0.030393
      dxy     :     0.030582

  2 C s       :     0.773088  s :     0.773088
      pz      :     0.924849  p :     2.750471
      px      :     0.889818
      py      :     0.935804
      dz2     :     0.047116  d :     0.478881
      dxz     :     0.086008
      dyz     :     0.074832
      dx2y2   :     0.145851
      dxy     :     0.125074

  3 C s       :     0.770925  s :     0.770925
      pz      :     0.903547  p :     2.755331
      px      :     0.860809
      py      :     0.990974
      dz2     :     0.053545  d :     0.483931
      dxz     :     0.092945
      dyz     :     0.068845
      dx2y2   :     0.147546
      dxy     :     0.121051

  4 C s       :     0.799696  s :     0.799696
      pz      :     0.932577  p :     2.955990
      px      :     1.001934
      py      :     1.021479
      dz2     :     0.029095  d :     0.293822
      dxz     :     0.059707
      dyz     :     0.026600
      dx2y2   :     0.102558
      dxy     :     0.075862

  5 C s       :     0.794517  s :     0.794517
      pz      :     0.924420  p :     2.951562
      px      :     1.013435
      py      :     1.013706
      dz2     :     0.033925  d :     0.302522
      dxz     :     0.032854
      dyz     :     0.048675
      dx2y2   :     0.074513
      dxy     :     0.112554

  6 C s       :     0.781108  s :     0.781108
      pz      :     0.893177  p :     2.877687
      px      :     0.967790
      py      :     1.016720
      dz2     :     0.031424  d :     0.382801
      dxz     :     0.060374
      dyz     :     0.066884
      dx2y2   :     0.111411
      dxy     :     0.112708

  7 C s       :     0.794098  s :     0.794098
      pz      :     0.945719  p :     2.963614
      px      :     0.990291
      py      :     1.027605
      dz2     :     0.029104  d :     0.286916
      dxz     :     0.058430
      dyz     :     0.024305
      dx2y2   :     0.106111
      dxy     :     0.068967

  8 C s       :     0.758280  s :     0.758280
      pz      :     1.003524  p :     3.020692
      px      :     0.972054
      py      :     1.045113
      dz2     :     0.041606  d :     0.313236
      dxz     :     0.076135
      dyz     :     0.081463
      dx2y2   :     0.058514
      dxy     :     0.055518

  9 C s       :     0.815540  s :     0.815540
      pz      :     0.956135  p :     2.922993
      px      :     0.970278
      py      :     0.996579
      dz2     :     0.083596  d :     0.307122
      dxz     :     0.050941
      dyz     :     0.059728
      dx2y2   :     0.037364
      dxy     :     0.075492

 10 C s       :     0.832828  s :     0.832828
      pz      :     1.006823  p :     3.019445
      px      :     1.010544
      py      :     1.002078
      dz2     :     0.050452  d :     0.215916
      dxz     :     0.044368
      dyz     :     0.033801
      dx2y2   :     0.027160
      dxy     :     0.060135

 11 O s       :     1.374038  s :     1.374038
      pz      :     1.688956  p :     4.621329
      px      :     1.506490
      py      :     1.425883
      dz2     :     0.009643  d :     0.071609
      dxz     :     0.013420
      dyz     :     0.005547
      dx2y2   :     0.031496
      dxy     :     0.011503

 12 H s       :     0.816713  s :     0.816713
      pz      :     0.048872  p :     0.138783
      px      :     0.054297
      py      :     0.035614

 13 H s       :     0.816164  s :     0.816164
      pz      :     0.069598  p :     0.138799
      px      :     0.041676
      py      :     0.027524

 14 H s       :     0.801600  s :     0.801600
      pz      :     0.041098  p :     0.133052
      px      :     0.065063
      py      :     0.026891

 15 H s       :     0.805929  s :     0.805929
      pz      :     0.047245  p :     0.151209
      px      :     0.035213
      py      :     0.068751

 16 H s       :     0.806780  s :     0.806780
      pz      :     0.045265  p :     0.150569
      px      :     0.057764
      py      :     0.047541

 17 H s       :     0.806778  s :     0.806778
      pz      :     0.049583  p :     0.156426
      px      :     0.036517
      py      :     0.070325

 18 H s       :     0.796893  s :     0.796893
      pz      :     0.049490  p :     0.143872
      px      :     0.043073
      py      :     0.051309

 19 H s       :     0.795745  s :     0.795745
      pz      :     0.046171  p :     0.142782
      px      :     0.037162
      py      :     0.059449

 20 H s       :     0.810556  s :     0.810556
      pz      :     0.038929  p :     0.151197
      px      :     0.061971
      py      :     0.050296

 21 H s       :     0.811021  s :     0.811021
      pz      :     0.058573  p :     0.152612
      px      :     0.053633
      py      :     0.040406

 22 H s       :     0.817171  s :     0.817171
      pz      :     0.039190  p :     0.149851
      px      :     0.060748
      py      :     0.049914

 23 H s       :     0.620835  s :     0.620835
      pz      :     0.088058  p :     0.288061
      px      :     0.062705
      py      :     0.137298



                      *****************************
                      * MAYER POPULATION ANALYSIS *
                      *****************************

  NA   - Mulliken gross atomic population
  ZA   - Total nuclear charge
  QA   - Mulliken gross atomic charge
  VA   - Mayer's total valence
  BVA  - Mayer's bonded valence
  FA   - Mayer's free valence

  ATOM       NA         ZA         QA         VA         BVA        FA
  0 C      3.9264     4.0000     0.0736     3.9494     3.9494    -0.0000
  1 O      6.3304     6.0000    -0.3304     2.0204     2.0204    -0.0000
  2 C      3.8884     4.0000     0.1116     4.1338     4.1338     0.0000
  3 C      3.9019     4.0000     0.0981     4.1155     4.1155    -0.0000
  4 C      3.9955     4.0000     0.0045     4.0015     4.0015    -0.0000
  5 C      3.9845     4.0000     0.0155     4.0627     4.0627     0.0000
  6 C      4.0627     4.0000    -0.0627     4.1353     4.1353    -0.0000
  7 C      4.0217     4.0000    -0.0217     4.0348     4.0348    -0.0000
  8 C      4.0889     4.0000    -0.0889     3.9893     3.9893    -0.0000
  9 C      4.0340     4.0000    -0.0340     4.0144     4.0144     0.0000
 10 C      4.0253     4.0000    -0.0253     3.9870     3.9870     0.0000
 11 O      6.2901     6.0000    -0.2901     2.1195     2.1195     0.0000
 12 H      0.9582     1.0000     0.0418     1.0156     1.0156     0.0000
 13 H      0.9558     1.0000     0.0442     1.0141     1.0141    -0.0000
 14 H      0.9341     1.0000     0.0659     1.0262     1.0262    -0.0000
 15 H      0.9866     1.0000     0.0134     1.0541     1.0541    -0.0000
 16 H      0.9884     1.0000     0.0116     1.0462     1.0462    -0.0000
 17 H      1.0000     1.0000    -0.0000     1.0477     1.0477    -0.0000
 18 H      0.9450     1.0000     0.0550     1.0193     1.0193    -0.0000
 19 H      0.9403     1.0000     0.0597     1.0218     1.0218    -0.0000
 20 H      0.9838     1.0000     0.0162     1.0460     1.0460     0.0000
 21 H      0.9687     1.0000     0.0313     1.0368     1.0368    -0.0000
 22 H      0.9856     1.0000     0.0144     1.0398     1.0398     0.0000
 23 H      0.8036     1.0000     0.1964     1.0637     1.0637    -0.0000

  Mayer bond orders larger than 0.100000
B(  0-C ,  1-O ) :   0.9349 B(  0-C , 12-H ) :   0.9905 B(  0-C , 13-H ) :   0.9908 
B(  0-C , 14-H ) :   1.0023 B(  1-O ,  2-C ) :   1.0485 B(  2-C ,  3-C ) :   1.4046 
B(  2-C ,  7-C ) :   1.4335 B(  3-C ,  4-C ) :   1.4256 B(  3-C , 11-O ) :   1.0683 
B(  4-C ,  5-C ) :   1.4471 B(  4-C , 15-H ) :   0.9830 B(  5-C ,  6-C ) :   1.4425 
B(  5-C , 16-H ) :   0.9862 B(  6-C ,  7-C ) :   1.4491 B(  6-C ,  8-C ) :   1.0081 
B(  7-C , 17-H ) :   0.9815 B(  8-C ,  9-C ) :   0.9955 B(  8-C , 18-H ) :   0.9932 
B(  8-C , 19-H ) :   0.9869 B(  9-C , 10-C ) :   1.9414 B(  9-C , 20-H ) :   1.0060 
B( 10-C , 21-H ) :   0.9982 B( 10-C , 22-H ) :   1.0028 B( 11-O , 23-H ) :   1.0166 


-------
TIMINGS
-------

Total SCF time: 0 days 0 hours 0 min 55 sec 

Total time                  ....      55.181 sec
Sum of individual times     ....      53.168 sec  ( 96.4%)

SCF preparation             ....       2.234 sec  (  4.0%)
Fock matrix formation       ....      49.472 sec  ( 89.7%)
  Startup                   ....       0.202 sec  (  0.4% of F)
  Split-RI-J                ....       1.797 sec  (  3.6% of F)
  Chain of spheres X        ....      22.124 sec  ( 44.7% of F)
  XC integration            ....      24.689 sec  ( 49.9% of F)
    XC Preparation          ....       0.000 sec  (  0.0% of XC)
    Basis function eval.    ....       0.550 sec  (  2.2% of XC)
    Density eval.           ....       0.214 sec  (  0.9% of XC)
    XC-Functional eval.     ....       0.194 sec  (  0.8% of XC)
    XC-Potential eval.      ....       0.293 sec  (  1.2% of XC)
Diagonalization             ....       0.000 sec  (  0.0%)
Density matrix formation    ....       0.223 sec  (  0.4%)
Total Energy calculation    ....       0.212 sec  (  0.4%)
Population analysis         ....       0.054 sec  (  0.1%)
Orbital Transformation      ....       0.102 sec  (  0.2%)
Orbital Orthonormalization  ....       0.000 sec  (  0.0%)
DIIS solution               ....       0.560 sec  (  1.0%)
SOSCF solution              ....       0.311 sec  (  0.6%)
Finished LeanSCF after  55.2 sec

Maximum memory used throughout the entire LEANSCF-calculation: 37.2 MB


           ************************************************************
           *        Program running with 40 parallel MPI-processes    *
           *              working on a common directory               *
           ************************************************************

------------------------------------------------------------------------------
                         ORCA PROPERTY INTEGRAL CALCULATIONS
------------------------------------------------------------------------------

GBWName                                   ... ./output/eugenol/eugenol.gbw
Number of atoms                           ...     24
Number of basis functions                 ...    216
Max core memory                           ...   1024 MB

Dipole integrals                          ... YES
Quadrupole integrals                      ...  NO
Linear momentum integrals                 ...  NO
Angular momentum integrals                ...  NO
Higher moments length integrals           ...  NO
Higher moments velocity integrals         ...  NO
Kinetic energy integrals                  ...  NO
GIAO right hand sides                     ...  NO
GIAO dipole derivative integrals          ...  NO
SOC integrals                             ...  NO
EPR diamagnetic integrals (GIAO)          ...  NO
EPR gauge integrals                       ...  NO
Field gradient integrals                  ...  NO (   0 nuclei)
Spin-dipole/Fermi contact integrals       ...  NO (   0 nuclei)
Contact density integrals                 ...  NO (   0 nuclei)
Nucleus-orbit integrals                   ...  NO (   0 nuclei)
Geometric perturbations                   ...  NO (  24 nuclei)

Choice of electric origin   ... Center of mass
Position of electric origin ... ( -0.6512, -0.5013,  0.1603) 
Choice of magnetic origin   ... GIAO
Position of magnetic origin ... (  0.0000,  0.0000,  0.0000) 

Calculating integrals                     ... Electric Dipole (Length)     done (  0.0 sec)

Property integrals calculated in   0.0 sec

Maximum memory used throughout the entire PROPINT-calculation: 16.2 MB


-------------------------------------------------------------------------------
                          DFT DISPERSION CORRECTION                            
                                                                               
                                DFTD4 V3.4.0                                   
-------------------------------------------------------------------------------
The wB97X-3c composite method is recognized
Using three-body term ABC
Active option DFTDOPT                   ...         5   

-------------------------   ----------------
Dispersion correction           -0.029179553
-------------------------   ----------------


-------------------------   --------------------
FINAL SINGLE POINT ENERGY       -96.241286729932
-------------------------   --------------------



           ************************************************************
           *        Program running with 40 parallel MPI-processes    *
           *              working on a common directory               *
           ************************************************************
------------------------------------------------------------------------------
                         ORCA SCF GRADIENT CALCULATION
------------------------------------------------------------------------------

Nuc. rep. gradient        (SHARK) ... done (  0.0 sec)
HCore & Overlap gradient  (SHARK) ... done (  0.0 sec)
ECP gradient              (SHARK) ... done (  0.4 sec)
Split-RIJ-J gradient      (SHARK) ... done (  0.4 sec)
COSX-gradient                     ... done (  5.2 sec)
XC gradient                       ... done (  1.6 sec)
Dispersion correction             ... done (  0.1 sec)

-------------------
DISPERSION GRADIENT
-------------------

   1   C   :   -0.000296316    0.000509754   -0.000018696
   2   O   :   -0.000364683    0.000293454    0.000051234
   3   C   :   -0.000361182    0.000089186    0.000056866
   4   C   :   -0.000342522   -0.000357990    0.000173485
   5   C   :    0.000019717   -0.000619587    0.000098738
   6   C   :    0.000158173   -0.000651996   -0.000067816
   7   C   :    0.000155320   -0.000109312   -0.000318233
   8   C   :   -0.000142263    0.000267179   -0.000234405
   9   C   :    0.000401757    0.000091442   -0.000430168
  10   C   :    0.000599610    0.000183455    0.000099773
  11   C   :    0.000423714    0.000412488    0.000407146
  12   O   :   -0.000435088   -0.000362059    0.000209825
  13   H   :   -0.000105927    0.000124310    0.000039891
  14   H   :   -0.000114125    0.000110299   -0.000022722
  15   H   :   -0.000044320    0.000054299    0.000004485
  16   H   :    0.000014708   -0.000160613    0.000033623
  17   H   :    0.000065359   -0.000197206   -0.000007148
  18   H   :   -0.000037189    0.000146421   -0.000081049
  19   H   :    0.000113618   -0.000014785   -0.000141075
  20   H   :    0.000087774    0.000064178   -0.000151493
[...]
 10:    177.53   0.000152    0.77  0.000266  ( 0.001969 -0.000386 -0.016198)
 11:    207.08   0.000452    2.28  0.000681  ( 0.022530 -0.000213 -0.013160)
 12:    247.56   0.000692    3.50  0.000872  ( 0.026285 -0.000367  0.013464)
 13:    289.46   0.001020    5.16  0.001100  ( 0.028699  0.003043  0.016343)
 14:    304.04   0.006270   31.69  0.006436  ( 0.000919 -0.008690  0.079745)
 15:    319.07   0.012500   63.17  0.012226  (-0.026234  0.000191 -0.107413)
 16:    373.26   0.000729    3.69  0.000610  ( 0.001515  0.016472 -0.018337)
 17:    388.01   0.001041    5.26  0.000838  (-0.012121  0.005583 -0.025680)
 18:    415.18   0.001068    5.40  0.000802  ( 0.010866  0.012420  0.023023)
 19:    476.01   0.000612    3.09  0.000401  ( 0.007837  0.003410  0.018120)
 20:    502.23   0.000221    1.12  0.000137  (-0.003338  0.010933 -0.002576)
 21:    560.40   0.000850    4.30  0.000473  ( 0.021152  0.001096 -0.004967)
 22:    576.34   0.001028    5.20  0.000557  ( 0.020276  0.010850 -0.005277)
 23:    626.18   0.002852   14.41  0.001421  ( 0.030175 -0.004347  0.022181)
 24:    674.26   0.002579   13.03  0.001194  (-0.023982  0.005825  0.024181)
 25:    755.94   0.000885    4.47  0.000365  (-0.006477  0.005992  0.016957)
 26:    780.82   0.002794   14.12  0.001117  ( 0.024563 -0.013356 -0.018300)
 27:    827.60   0.007044   35.60  0.002656  ( 0.038853  0.010236  0.032278)
 28:    843.26   0.004704   23.77  0.001741  ( 0.006940  0.014825 -0.038376)
 29:    896.87   0.002821   14.25  0.000981  ( 0.013131 -0.005155  0.027972)
 30:    932.70   0.001505    7.61  0.000504  (-0.008405 -0.003156  0.020566)
 31:    955.05   0.000375    1.90  0.000123  ( 0.010446  0.001689  0.003274)
 32:    962.28   0.008460   42.75  0.002744  ( 0.050358 -0.010600 -0.009761)
 33:    979.28   0.000924    4.67  0.000294  (-0.014405  0.009255 -0.001096)
 34:   1000.58   0.002052   10.37  0.000640  (-0.021515  0.011927  0.005916)
 35:   1051.43   0.002727   13.78  0.000809  (-0.027659  0.005018  0.004378)
 36:   1116.18   0.004674   23.62  0.001307  (-0.022972  0.027471  0.004943)
 37:   1150.69   0.004588   23.19  0.001244  (-0.026863 -0.022849  0.000777)
 38:   1172.80   0.023109  116.78  0.006149  (-0.045747 -0.063251  0.007449)
 39:   1198.62   0.022374  113.07  0.005825  ( 0.067808  0.032792 -0.012320)
 40:   1204.99   0.000152    0.77  0.000039  ( 0.000586 -0.000572  0.006217)
 41:   1230.68   0.007444   37.62  0.001887  ( 0.036924 -0.020355 -0.010476)
 42:   1245.04   0.001299    6.56  0.000326  ( 0.010350 -0.014267 -0.003859)
 43:   1265.48   0.000381    1.92  0.000094  (-0.007405 -0.005684  0.002600)
 44:   1316.45   0.022863  115.54  0.005420  (-0.003909  0.073455  0.002945)
 45:   1326.68   0.011054   55.86  0.002600  ( 0.047978 -0.012381 -0.012037)
 46:   1341.14   0.015738   79.53  0.003662  ( 0.056929 -0.017702 -0.010374)
 47:   1349.00   0.003307   16.71  0.000765  ( 0.020950 -0.016556 -0.007216)
 48:   1379.71   0.002007   10.14  0.000454  ( 0.019628  0.007608 -0.003296)
 49:   1421.66   0.028610  144.58  0.006280  (-0.072978  0.027535  0.013997)
 50:   1477.26   0.000554    2.80  0.000117  ( 0.006735  0.007304 -0.004276)
 51:   1494.98   0.003046   15.39  0.000636  (-0.004992  0.024711 -0.000513)
 52:   1509.47   0.002412   12.19  0.000499  (-0.014210 -0.002095  0.017100)
 53:   1523.60   0.002039   10.30  0.000418  (-0.007244 -0.018928 -0.002609)
 54:   1528.91   0.002391   12.08  0.000488  ( 0.003417 -0.000082  0.021826)
 55:   1537.69   0.010180   51.44  0.002066  (-0.029463  0.033882  0.007062)
 56:   1616.23   0.046422  234.60  0.008963  (-0.092239  0.010874  0.018358)
 57:   1715.50   0.009163   46.30  0.001667  ( 0.014401 -0.038071 -0.003156)
 58:   1725.65   0.001590    8.03  0.000287  (-0.005050 -0.016175  0.000558)
 59:   1767.99   0.003547   17.93  0.000626  ( 0.010763  0.022378  0.003075)
 60:   3087.45   0.009097   45.97  0.000919  (-0.004468  0.029952  0.001543)
 61:   3104.78   0.004295   21.71  0.000432  (-0.013746  0.003594  0.015160)
 62:   3159.76   0.001119    5.65  0.000111  (-0.003715  0.008596 -0.004777)
 63:   3173.28   0.004992   25.23  0.000491  (-0.004331  0.001043 -0.021703)
 64:   3202.02   0.001882    9.51  0.000183  (-0.002977 -0.010266  0.008319)
 65:   3218.88   0.000974    4.92  0.000094  ( 0.004615 -0.001142  0.008472)
 66:   3228.53   0.001777    8.98  0.000172  ( 0.011631 -0.005503 -0.002483)
 67:   3235.47   0.002453   12.40  0.000237  ( 0.011603  0.009919 -0.001891)
 68:   3259.77   0.001553    7.85  0.000149  ( 0.005440 -0.010727 -0.002007)
 69:   3278.47   0.000395    2.00  0.000038  (-0.003570  0.004988 -0.000132)
 70:   3303.08   0.000974    4.92  0.000092  (-0.002741 -0.001237 -0.009110)
 71:   3967.69   0.020992  106.08  0.001651  (-0.019278 -0.035702  0.002189)

* The epsilon (eps) is given for a Dirac delta lineshape.
** The dipole moment derivative (T) already includes vibrational overlap.

The first frequency considered to be a vibration is 6
The total number of vibrations considered is 66


--------------------------
THERMOCHEMISTRY AT 298.15K
--------------------------

Temperature         ...   298.15 K
Pressure            ...     1.00 atm
Total Mass          ...   164.20 AMU
Quasi RRHO          ...     True
Cut-Off Frequency   ...     1.00 cm^-1

Throughout the following assumptions are being made:
  (1) The electronic state is orbitally nondegenerate
  (2) There are no thermally accessible electronically excited states
  (3) Hindered rotations indicated by low frequency modes are not
      treated as such but are treated as vibrations and this may
      cause some error
  (4) All equations used are the standard statistical mechanics
      equations for an ideal gas
  (5) All vibrations are strictly harmonic

freq.      30.75  E(vib)   ...       0.55 
freq.      71.99  E(vib)   ...       0.50 
freq.      87.70  E(vib)   ...       0.48 
freq.     117.19  E(vib)   ...       0.44 
freq.     177.53  E(vib)   ...       0.37 
freq.     207.08  E(vib)   ...       0.34 
freq.     247.56  E(vib)   ...       0.31 
freq.     289.46  E(vib)   ...       0.27 
freq.     304.04  E(vib)   ...       0.26 
freq.     319.07  E(vib)   ...       0.25 
freq.     373.26  E(vib)   ...       0.21 
freq.     388.01  E(vib)   ...       0.20 
freq.     415.18  E(vib)   ...       0.19 
freq.     476.01  E(vib)   ...       0.15 
freq.     502.23  E(vib)   ...       0.14 
freq.     560.40  E(vib)   ...       0.11 
freq.     576.34  E(vib)   ...       0.11 
freq.     626.18  E(vib)   ...       0.09 
freq.     674.26  E(vib)   ...       0.08 
freq.     755.94  E(vib)   ...       0.06 
freq.     780.82  E(vib)   ...       0.05 
freq.     827.60  E(vib)   ...       0.04 
freq.     843.26  E(vib)   ...       0.04 
freq.     896.87  E(vib)   ...       0.03 
freq.     932.70  E(vib)   ...       0.03 
freq.     955.05  E(vib)   ...       0.03 
freq.     962.28  E(vib)   ...       0.03 
freq.     979.28  E(vib)   ...       0.03 
freq.    1000.58  E(vib)   ...       0.02 
freq.    1051.43  E(vib)   ...       0.02 
freq.    1116.18  E(vib)   ...       0.01 
freq.    1150.69  E(vib)   ...       0.01 
freq.    1172.80  E(vib)   ...       0.01 
freq.    1198.62  E(vib)   ...       0.01 
freq.    1204.99  E(vib)   ...       0.01 
freq.    1230.68  E(vib)   ...       0.01 
freq.    1245.04  E(vib)   ...       0.01 
freq.    1265.48  E(vib)   ...       0.01 
freq.    1316.45  E(vib)   ...       0.01 
freq.    1326.68  E(vib)   ...       0.01 
freq.    1341.14  E(vib)   ...       0.01 
freq.    1349.00  E(vib)   ...       0.01 
freq.    1379.71  E(vib)   ...       0.01 
freq.    1421.66  E(vib)   ...       0.00 
freq.    1477.26  E(vib)   ...       0.00 
freq.    1494.98  E(vib)   ...       0.00 
freq.    1509.47  E(vib)   ...       0.00 
freq.    1523.60  E(vib)   ...       0.00 
freq.    1528.91  E(vib)   ...       0.00 
freq.    1537.69  E(vib)   ...       0.00 
freq.    1616.23  E(vib)   ...       0.00 
freq.    1715.50  E(vib)   ...       0.00 
freq.    1725.65  E(vib)   ...       0.00 
freq.    1767.99  E(vib)   ...       0.00 
freq.    3087.45  E(vib)   ...       0.00 
freq.    3104.78  E(vib)   ...       0.00 
freq.    3159.76  E(vib)   ...       0.00 
freq.    3173.28  E(vib)   ...       0.00 
freq.    3202.02  E(vib)   ...       0.00 
freq.    3218.88  E(vib)   ...       0.00 
freq.    3228.53  E(vib)   ...       0.00 
freq.    3235.47  E(vib)   ...       0.00 
freq.    3259.77  E(vib)   ...       0.00 
freq.    3278.47  E(vib)   ...       0.00 
freq.    3303.08  E(vib)   ...       0.00 
freq.    3967.69  E(vib)   ...       0.00 

------------
INNER ENERGY
------------

The inner energy is: U= E(el) + E(ZPE) + E(vib) + E(rot) + E(trans)
    E(el)   - is the total energy from the electronic structure calculation
              = E(kin-el) + E(nuc-el) + E(el-el) + E(nuc-nuc)
    E(ZPE)  - the the zero temperature vibrational energy from the frequency calculation
    E(vib)  - the the finite temperature correction to E(ZPE) due to population
              of excited vibrational states
    E(rot)  - is the rotational thermal energy
    E(trans)- is the translational thermal energy

Summary of contributions to the inner energy U:
Electronic energy                ...    -96.26553645 Eh
Zero point energy                ...      0.20336205 Eh     127.61 kcal/mol
Thermal vibrational correction   ...      0.00888952 Eh       5.58 kcal/mol
Thermal rotational correction    ...      0.00141627 Eh       0.89 kcal/mol
Thermal translational correction ...      0.00141627 Eh       0.89 kcal/mol
-----------------------------------------------------------------------
Total thermal energy                    -96.05045235 Eh


Summary of corrections to the electronic energy:
(perhaps to be used in another calculation)
Total thermal correction                  0.01172206 Eh       7.36 kcal/mol
Non-thermal (ZPE) correction              0.20336205 Eh     127.61 kcal/mol
-----------------------------------------------------------------------
Total correction                          0.21508411 Eh     134.97 kcal/mol


--------
ENTHALPY
--------

The enthalpy is H = U + kB*T
                kB is Boltzmann's constant
Total thermal energy              ...    -96.05045235 Eh 
Thermal Enthalpy correction       ...      0.00094421 Eh       0.59 kcal/mol
-----------------------------------------------------------------------
Total Enthalpy                    ...    -96.04950814 Eh


Note: Only C1 symmetry has been detected, increase convergence thresholds 
      if your molecule has a higher symmetry. Symmetry factor of 1.0 is   
      used for the rotational entropy correction. 
 

Note: Rotational entropy computed according to Herzberg 
Infrared and Raman Spectra, Chapter V,1, Van Nostrand Reinhold, 1945 
Point Group:  C1, Symmetry Number:   1  
Rotational constants in cm-1:     0.047967     0.021197     0.015177 

Vibrational entropy computed according to the QRRHO of S. Grimme
Chem.Eur.J. 2012 18 9955 using a reference frequency of 100.0 cm-1


-------
ENTROPY
-------

The entropy contributions are T*S = T*(S(el)+S(vib)+S(rot)+S(trans))
     S(el)   - electronic entropy
     S(vib)  - vibrational entropy
     S(rot)  - rotational entropy
     S(trans)- translational entropy
The entropies will be listed as multiplied by the temperature to get
units of energy

Electronic entropy                ...      0.00000000 Eh      0.00 kcal/mol
Vibrational entropy               ...      0.01535093 Eh      9.63 kcal/mol
Rotational entropy                ...      0.01474116 Eh      9.25 kcal/mol
Translational entropy             ...      0.01957363 Eh     12.28 kcal/mol
-----------------------------------------------------------------------
Final entropy term                ...      0.04966572 Eh     31.17 kcal/mol

In case the symmetry of your molecule has not been determined correctly
or in case you have a reason to use a different symmetry number we print 
out the resulting rotational entropy values for sn=1,12:

 non-linear molecules -----------------------------------
|  sn= 1 | S(rot)=       0.01474116 Eh      9.25 kcal/mol|
|  sn= 2 | S(rot)=       0.01408671 Eh      8.84 kcal/mol|
|  sn= 3 | S(rot)=       0.01370387 Eh      8.60 kcal/mol|
|  sn= 4 | S(rot)=       0.01343225 Eh      8.43 kcal/mol|
|  sn= 5 | S(rot)=       0.01322156 Eh      8.30 kcal/mol|
|  sn= 6 | S(rot)=       0.01304942 Eh      8.19 kcal/mol|
|  sn= 7 | S(rot)=       0.01290387 Eh      8.10 kcal/mol|
|  sn= 8 | S(rot)=       0.01277779 Eh      8.02 kcal/mol|
|  sn= 9 | S(rot)=       0.01266658 Eh      7.95 kcal/mol|
|  sn=10 | S(rot)=       0.01256711 Eh      7.89 kcal/mol|
|  sn=11 | S(rot)=       0.01247712 Eh      7.83 kcal/mol|
|  sn=12 | S(rot)=       0.01239496 Eh      7.78 kcal/mol|
 linear molecules ---------------------------------------
|  Dinfh | S(rot)=       0.00928002 Eh      5.82 kcal/mol|
|  Cinfv | S(rot)=       0.00993447 Eh      6.23 kcal/mol|
 --------------------------------------------------------


-------------------
GIBBS FREE ENERGY
-------------------

The Gibbs free energy is G = H - T*S

Total enthalpy                    ...    -96.04950814 Eh 
Total entropy correction          ...     -0.04966572 Eh    -31.17 kcal/mol
-----------------------------------------------------------------------
Final Gibbs free energy         ...    -96.09917386 Eh

For completeness - the Gibbs free energy minus the electronic energy
G-E(el)                           ...      0.16636260 Eh    104.39 kcal/mol


Maximum memory used throughout the entire PROP-calculation: 109.8 MB

--------------------------------
SUGGESTED CITATIONS FOR THIS RUN
--------------------------------

Below you find a list of papers that are relevant to this ORCA run
We neither can nor want to force you to cite these papers, but we appreciate if you do
You receive ORCA, which is the product of decades of hard work by many enthusiastic individuals, for free
The only thing we kindly ask in return is that you cite our papers,
We deeply appreciate it, if you show your appreciation for ORCA by not just citing the generic ORCA reference.

Please note that relegating all ORCA citations to the supporting information does *not* help us.
SI sections are not indexed - citations you put there will not count into any citation statistics
But we need these citations in order to attract the funding resources that allow us to do what we are doing

Therefore, if you are a happy ORCA user, please consider citing a few of the papers listed below in the main body of your paper

In addition to the list printed below, the program has created the file ./output/eugenol/eugenol.bibtex that contains the list in bibtex format
You can import this file easily into all common literature databanks and citation aid programs


List of essential papers. We consider these as the minimum necessary citations

  1. Neese,F.
     Software update: the ORCA program system, version 5.0
     WIRES Comput. Molec. Sci., 2022 12(1)e1606
     doi.org/10.1002/wcms.1606
  2. Mueller,M.; Hansen,A.; Grimme,S.
     wB97X-3c: A composite range-separated hybrid DFT method with a molecule-optimized polarized valence double-zeta basis set
     J. Chem. Phys., 2023 158 014103
     doi.org/10.1063/5.0133026

List of papers to cite with high priority. The work reported in these papers was absolutely
necessary for this run to complete.
Our perspective: the developers of density functionals and basis sets usually get cited in chemistry papers
Good! But without the algorithms to do something with them, the functionals or basis sets would not do anything.
Hence, in our opinion, the algorithm design and method developments papers are equally worthy of getting cited

  1. Neese,F.
     An improvement of the resolution of the identity approximation for the formation of the Coulomb matrix
     J. Comp. Chem., 2003 24(14)1740-1747
     doi.org/10.1002/jcc.10318
  2. Neese,F.; Wennmohs,F.; Hansen,A.; Becker,U.
     Efficient, approximate and parallel Hartree-Fock and hybrid DFT calculations. A 'chain-of-spheres' algorithm for the Hartree-Fock exchange
     Chem. Phys., 2009 356(1-3)98-109
     doi.org/10.1016/j.chemphys.2008.10.036
  3. Bykov,D.; Petrenko,T.; Izsak,R.; Kossmann,S.; Becker,U.; Valeev,E.; Neese,F.
     Efficient implementation of the analytic second derivatives of Hartree-Fock and hybrid DFT energies: a detailed analysis of different approximations
     Molec. Phys., 2015 113 1961-1977
     doi.org/10.1080/00268976.2015.1025114
  4. Helmich-Paris,B.; de Souza,B.; Neese,F.; Izsák,R.
     An improved chain of spheres for exchange algorithm
     J. Chem. Phys., 2021 155 104109
     doi.org/doi: 10.1063/5.0058766.
  5. Neese,F.
     The SHARK Integral Generation and Digestion System
     J. Comp. Chem., 2022  1-16
     doi.org/10.1002/jcc.26942
  6. Caldeweyher,E.; Bannwarth,C.; Grimme,S.
     Extension of the D3 dispersion coefficient model
     J. Chem. Phys., 2017 147 034112
     doi.org/10.1063/1.4993215
  7. Caldeweyher,E.; Ehlert,S.; Hansen,A.; Neugebauer,H.; Spicher,S.; Bannwarth,C.; Grimme,S.
     A generally applicable atomic-charge dependent London dispersion correction
     J. Chem. Phys., 2019 150 154122
     doi.org/10.1063/1.5090222
  8. Caldeweyher,E.; Mewes,J.; Ehlert,S.; Grimme,S.
     Extension and evaluation of the D4 London-dispersion model for periodic systems
     Phys. Chem. Chem. Phys., 2020 22(16)8499-8512
     doi.org/10.1039/D0CP00502A
  9. Wittmann,L.; Gordiy,I.; Friede,M.; Helmich-Paris,B.; Grimme,S.; Hansen,A.; Bursch,M.
     Extension of the D3 and D4 London Dispersion Corrections to the full Actinides Series
     Phys. Chem. Chem. Phys., 2024 26(32)21379-21394
     doi.org/https://doi.org/10.1039/D4CP01514B 

List of suggested additional citations. These are papers that are important in the 'surrounding' of 
of this run, or papers that preceded the highly important papers. If you like your results we are grateful for a citation.

  1. Izsak,R.; Neese,F.
     An overlap fitted chain of spheres exchange method
     J. Chem. Phys., 2011 135 144105
     doi.org/10.1063/1.3646921
  2. Izsak,R.; Hansen,A.; Neese,F.
     The resolution of identity and chain of spheres approximations for the LPNO-CCSD singles Fock term
     Molec. Phys., 2012 110 2413-2417
     doi.org/10.1080/00268976.2012.687466
  3. Neese,F.
     The ORCA program system
     WIRES Comput. Molec. Sci., 2012 2(1)73-78
     doi.org/10.1002/wcms.81
  4. Izsak,R.; Neese,F.; Klopper,W.
     Robust fitting techniques in the chain of spheres approximation to the Fock exchange: The role of the complementary space
     J. Chem. Phys., 2013 139 
     doi.org/10.1063/1.4819264
  5. Neese,F.
     Software update: the ORCA program system, version 4.0
     WIRES Comput. Molec. Sci., 2018 8(1)1-6
     doi.org/10.1002/wcms.1327
  6. Neese,F.; Wennmohs,F.; Becker,U.; Riplinger,C.
     The ORCA quantum chemistry program package
     J. Chem. Phys., 2020 152 Art. No. L224108
     doi.org/10.1063/5.0004608

List of optional additional citations

  1. Neese,F.
     Approximate second-order SCF convergence for spin unrestricted wavefunctions
     Chem. Phys. Lett., 2000 325(1-3)93-98
     doi.org/10.1016/s0009-2614(00)00662-x

Timings for individual modules:

Sum of individual times          ...     1098.771 sec (=  18.313 min)
Startup calculation              ...       63.158 sec (=   1.053 min)   5.7 %
SCF iterations                   ...      735.912 sec (=  12.265 min)  67.0 %
Property integrals               ...       50.649 sec (=   0.844 min)   4.6 %
SCF Response                     ...       35.464 sec (=   0.591 min)   3.2 %
Property calculations            ...       75.611 sec (=   1.260 min)   6.9 %
SCF Gradient evaluation          ...      137.740 sec (=   2.296 min)  12.5 %
Geometry relaxation              ...        0.237 sec (=   0.004 min)   0.0 %
                             ****ORCA TERMINATED NORMALLY****
TOTAL RUN TIME: 0 days 0 hours 18 minutes 27 seconds 140 msec
