
                                 *****************
                                 * O   R   C   A *
                                 *****************

                                            #,                                       
                                            ###                                      
                                            ####                                     
                                            #####                                    
                                            ######                                   
                                           ########,                                 
                                     ,,################,,,,,                         
                               ,,#################################,,                 
                          ,,##########################################,,             
                       ,#########################################, ''#####,          
                    ,#############################################,,   '####,        
                  ,##################################################,,,,####,       
                ,###########''''           ''''###############################       
              ,#####''   ,,,,##########,,,,          '''####'''          '####       
            ,##' ,,,,###########################,,,                        '##       
           ' ,,###''''                  '''############,,,                           
         ,,##''                                '''############,,,,        ,,,,,,###''
      ,#''                                            '''#######################'''  
     '                                                          ''''####''''         
             ,#######,   #######,   ,#######,      ##                                
            ,#'     '#,  ##    ##  ,#'     '#,    #''#        ,####,   ,####,        
            ##       ##  ##   ,#'  ##            #'  '#       #'       #'  '#        
            ##       ##  #######   ##           ,######,      #####,   #    #        
            '#,     ,#'  ##    ##  '#,     ,#' ,#      #,     #,   #   #,  ,#        
             '#######'   ##     ##  '#######'  #'      '#     '####' # '####'        



                #########################################################
                #                        -***-                          #
                #          Department of theory and spectroscopy        #
                #                                                       #
                #                      Frank Neese                      #
                #                                                       #
                #     Directorship, Architecture, Infrastructure        #
                #                    SHARK, DRIVERS                     #
                #        Core code/Algorithms in most modules           #
                #                                                       #
                #        Max Planck Institute fuer Kohlenforschung      #
                #                Kaiser Wilhelm Platz 1                 #
                #                 D-45470 Muelheim/Ruhr                 #
                #                      Germany                          #
                #                                                       #
                #                  All rights reserved                  #
                #                        -***-                          #
                #########################################################


                         Program Version 6.0.1  -  RELEASE   -


 With contributions from (in alphabetic order):
[Max-Planck-Institut fuer Kohlenforschung]                               
  Daniel Aravena         : Magnetic Suceptibility                        
  Michael Atanasov       : Ab Initio Ligand Field Theory (pilot matlab implementation)
  Alexander A. Auer      : GIAO ZORA, VPT2 properties, NMR spectrum      
  Ute Becker             : All parallelization in ORCA, NUMFREQ, NUMCALC 
  Giovanni Bistoni       : ED, misc. LED, open-shell LED, HFLD           
  Martin Brehm           : Molecular dynamics                            
  Dmytro Bykov           : pre 5.0 version of the SCF Hessian            
  Marcos Casanova-Páez   : Triplet and SCS-CIS(D). UHF-(DLPNO)-IP/EA/STEOM-CCSD. UHF-CVS-IP/STEOM-CCSD   
  Vijay G. Chilkuri      : MRCI spin determinant printing, contributions to CSF-ICE 
  Pauline Colinet        : FMM embedding                                 
  Dipayan Datta          : RHF DLPNO-CCSD density                        
  Achintya Kumar Dutta   : EOM-CC, STEOM-CC                              
  Nicolas Foglia         : Exact transition moments, OPA infrastructure, MCD improvements    
  Dmitry Ganyushin       : Spin-Orbit,Spin-Spin,Magnetic field MRCI      
  Miquel Garcia-Rates    : C-PCM and meta-GGA Hessian, CCSD/C-PCM, Gaussian charge scheme 
  Tiago L. C. Gouveia    : GS-ROHF, GS-ROCIS                             
  Yang Guo               : DLPNO-NEVPT2, F12-NEVPT2, CIM, IAO-localization        
  Andreas Hansen         : Spin unrestricted coupled pair/coupled cluster methods 
  Ingolf Harden          : AUTO-CI MPn and infrastructure                
  Benjamin Helmich-Paris : MC-RPA, TRAH-(SCF,CASSCF), AVAS, COSX integrals, SCF dyn. polar. 
  Lee Huntington         : MR-EOM, pCC                                   
  Robert Izsak           : Overlap fitted RIJCOSX, COSX-SCS-MP3, EOM     
  Riya Kayal             : Wick's Theorem for AUTO-CI, AUTO-CI UHF-CCSDT 
  Emily Kempfer          : AUTO-CI, RHF CISDT and CCSDT                  
  Christian Kollmar      : KDIIS, OOCD, Brueckner-CCSD(T), CCSD density, CASPT2, CASPT2-K, improved NEVPT2 
  Axel Koslowski         : Symmetry handling                             
  Simone Kossmann        : meta-GGA functionals, TD-DFT gradient, OOMP2, (MP2 Hessian; deprecated post 5.0) 
  Lucas Lang             : DCDCAS                                        
  Marvin Lechner         : AUTO-CI (C++ implementation), FIC-MRCC        
  Spencer Leger          : CASSCF response                               
  Dagmar Lenk            : GEPOL surface, SMD, ORCA-2-JSON               
  Dimitrios Liakos       : Extrapolation schemes; Compound Job, initial MDCI parallelization 
  Dimitrios Manganas     : Further ROCIS development; embedding schemes. LFT, Crystal Embedding 
  Dimitrios Pantazis     : SARC Basis sets                               
  Anastasios Papadopoulos: AUTO-CI, single reference methods and gradients 
  Taras Petrenko         : pre 6.0 DFT Hessian and TD-DFT gradient, (ASA, deprecated), ECA, 1-Electron XAS/XES, NRVS 
  Peter Pinski           : DLPNO-MP2, DLPNO-MP2 Gradient                 
  Christoph Reimann      : Effective Core Potentials                     
  Marius Retegan         : Local ZFS, SOC                                
  Christoph Riplinger    : Optimizer, TS searches, QM/MM, DLPNO-CCSD(T), (RO)-DLPNO pert. Triples 
  Michael Roemelt        : Original ROCIS implementation                 
  Masaaki Saitow         : Open-shell DLPNO-CCSD energy and density      
  Barbara Sandhoefer     : DKH picture change effects                    
  Kantharuban Sivalingam : CASSCF convergence/infrastructure, NEVPT2 and variants, FIC-MRCI 
  Bernardo de Souza      : ESD, SOC TD-DFT                               
  Georgi L. Stoychev     : AutoAux, RI-MP2 NMR, DLPNO-MP2 response, X2C  
  Van Anh Tran           : RI-MP2 g-tensors                              
  Willem Van den Heuvel  : Paramagnetic NMR                              
  Zikuan Wang            : NOTCH, Electric field optimization            
  Frank Wennmohs         : Technical directorship and infrastructure     
  Hang Xu                : AUTO-CI-Response properties                   
                                                                         
[FACCTs GmbH]                                                            
  Markus Bursch, Miquel Garcia-Rates, Christoph Riplinger, Bernardo de Souza, Georgi L. Stoychev 
                                                                 
  APM, Basis sets (HGBS, AHGBS, def-TZVP (Ac-Lr), def2-XVPD (La-Lu)), CI-OPT, improved COSX, DLPNO-Multilevel,           
  DOCKER, DRACO, updates on ESD, GOAT, IRC, LR-CPCM, MBIS, meta-GGA TD-DFT gradient, ML-optimized integration grids, 
  MM, NACMEs, nearIR, NEB, NEB-TS, NL-DFT gradient (VV10), 2- and 3-layer-ONIOM, interface openCOSMO-RS, QMMM,   
  Crystal-QMMM, SF, symmetry and pop. for TD-DFT, r2SCAN hybrids, SOLVATOR                                   
                                                                         
[Other institutions]                                                     
  V. Asgeirsson          : NEB                                           
  Christoph Bannwarth    : sTDA-DFT, sTD-DFT, PBEh-3c, B97-3c, D3        
  Sebastian Ehlert       : rSCAN, r2SCAN, r2SCAN-3c, D4, dhf basis sets  
  Marvin Friede          : D4 for Fr, Ra, Ac-Lr                          
  Lars Goerigk           : TD-DFT with DH, B97 family of functionals     
  Stefan Grimme          : VdW corrections, initial TS optimization, DFT functionals, gCP, sTDA/sTD-DF 
  Waldemar Hujo          : DFT-NL                                        
  H. Jonsson             : NEB                                           
  Holger Kruse           : gCP                                           
  Marcel Mueller         : wB97X-3c, vDZP basis set                      
  Hagen Neugebauer       : wr2SCAN                                       
  Tobias Risthaus        : range-separated hybrid DFT                    
  Lukas Wittmann         : regularized MP2, r2SCAN double-hybrids, wr2SCAN        
                                                                         
We gratefully acknowledge several colleagues who have allowed us to      
interface, adapt or use parts of their codes:                            
  Ed Valeev, F. Pavosevic, A. Kumar             : LibInt (2-el integral package), F12 methods 
  Garnet Chan, S. Sharma, J. Yang, R. Olivares  : DMRG                   
  Ulf Ekstrom                                   : XCFun DFT Library      
  Mihaly Kallay                                 : mrcc  (arbitrary order and MRCC methods)
  Frank Weinhold                                : gennbo (NPA and NBO analysis)           
  Simon Mueller                                 : openCOSMO-RS                            
  Christopher J. Cramer and Donald G. Truhlar   : smd solvation model                     
  S Lehtola, MJT Oliveira, MAL Marques          : LibXC Library                           
  Liviu Ungur et al                             : ANISO software                          


 Your calculation uses the libint2 library for the computation of 2-el integrals
 For citations please refer to: http://libint.valeyev.net

 Your ORCA version has been built with support for libXC version: 6.2.2
 For citations please refer to: https://libxc.gitlab.io

 This ORCA versions uses:
   CBLAS   interface :  Fast vector & matrix operations
   LAPACKE interface :  Fast linear algebra routines
   SCALAPACK package :  Parallel linear algebra routines
   Shared memory     :  Shared parallel matrices
   BLAS/LAPACK       :  OpenBLAS 0.3.27  USE64BITINT DYNAMIC_ARCH NO_AFFINITY SkylakeX SINGLE_THREADED
        Core in use  :  SkylakeX
   Copyright (c) 2011-2014, The OpenBLAS Project


Your calculation utilizes the atom-pairwise dispersion correction
based on EEQ partial charges (D4)


================================================================================

cite the ECPs for C  [vDZP-ECP] as follows:
   B-Ne (ecp-2-mwb), Al-Ar (ecp-10-mwb), Ga-Kr (ecp-28-mwb), Y-Cd (ecp-28-mwb), In-Xe (ecp-46-mwb):
     A. Bergner, M. Dolg, W. Küchle, H. Stoll, and H. Preuß, Mol. Phys. 80, 1431 (1993)., T. Leininger, A. Berning, A. Nicklass, H. Stoll, H.-J. Werner, and H.-J.Flad, Chem. Phys. 217, 19 (1997).
   Na-Mg, K-Ca, Rb-Sr, Cs-Ba (CRENBL):
     L. Fernandez Pacios and P. A. Christiansen, J. Chem. Phys. 82, 2664 (1985)., M. M. Hurley, L. F. Pacios, P. A. Christiansen, R. B. Ross, and W. C. Ermler, J. Chem. Phys. 84, 6840 (1986)., L. A. LaJohn, P. A. Christiansen, R. B. Ross, T. Atashroo, and W. C. Ermler, J. Chem. Phys. 87, 2812 (1987)., R. B. Ross, J. M. Powers, T. Atashroo, W. C. Ermler, L. A. LaJohn, and P. A. Christiansen, J. Chem. Phys. 93, 6654 (1990). 
   Sc-Zn (ecp-10-mdf):
     M. Dolg, U. Wedig, H. Stoll, and H. Preuss, J. Chem. Phys. 86, 866 (1986). 
   Y-Cd (ecp-28-mwb), Hf-Hg (ecp-60-mwb):
     D. Andrae, U. Häußermann, M. Dolg, H. Stoll, and H. Preuß, Theor. Chim. Acta 77, 123 (1990). 
   La (ecp-46-mwb):
     M. Dolg, H. Stoll, and H. Preuss, J. Chem. Phys. 90, 1730 (1989)., M. Dolg, H. Stoll, and H. Preuss, Theor. Chim. Acta 85, 441 (1993).
   Ce-Lu (SBKJC-ecp):
     T. R. Cundari and W. J. Stevens, J. Chem. Phys. 98, 5555 (1993).
   Tl-Rn (ecp-78-mwb):
     W. Küchle, M. Dolg, H. Stoll, and H. Preuss, Mol. Phys. 74, 1245 (1991).

ECP parameters for C  [vDZP-ECP] have been obtained from:
MM, AH, SG, J. Chem. Phys. 158, 014103 (2023), 10.1063/5.0133026

----- Orbital basis set information -----
Your calculation utilizes the basis: vDZP
   Marcel Mueller, Andreas Hansen, Stefan Grimme 
   J. Chem. Phys. 158, 014103 (2023). DOI: 10.1063/5.0133026

----- AuxJ basis set information -----
Your calculation utilizes the auxiliary basis: def2/J
   F. Weigend, Phys. Chem. Chem. Phys. 8, 1057 (2006).

================================================================================
                                        WARNINGS
                       Please study these warnings very carefully!
================================================================================

WARNING: Frozen-Core approximation turned on, but there are no core electrons.
  ===> : Turning off frozen-core approximation


WARNING: Geometry Optimization
  ===> : Switching off AutoStart
         For restart on a previous wavefunction, please use MOREAD

================================================================================
                                       INPUT FILE
================================================================================
NAME = ./output/alpha_cedrene/alpha_cedrene.inp
|  1> ! wB97X-3c OPT FREQ TightSCF
|  2> %pal
|  3>   nprocs 40
|  4> end
|  5> * xyz 0 1
|  6> C      3.069485     1.823152    -0.395194
|  7> C      2.305035     0.520019    -0.663525
|  8> C      2.835473    -0.682608     0.176591
|  9> C      1.614386    -1.588689     0.488703
| 10> C      0.537147    -0.974896    -0.384658
| 11> C      0.796524     0.525913    -0.338299
| 12> C      0.493045     1.225281     1.055793
| 13> C     -0.978423     1.476242     1.336165
| 14> C     -1.929828     1.072447     0.473983
| 15> C     -1.503340     0.266294    -0.737997
| 16> C     -0.257783     0.983589    -1.340179
| 17> C     -0.992653    -1.169590    -0.310198
| 18> C     -1.470104    -2.206625    -1.355437
| 19> C     -1.450173    -1.671864     1.083894
| 20> C     -3.376644     1.382837     0.735921
| 21> H      3.176946     2.020800     0.691942
| 22> H      4.089869     1.747766    -0.827059
| 23> H      2.546838     2.675676    -0.878299
| 24> H      2.436889     0.287002    -1.746067
| 25> H      3.292948    -0.342155     1.131269
| 26> H      3.600007    -1.243588    -0.403558
| 27> H      1.809250    -2.645352     0.202749
| 28> H      1.349323    -1.546434     1.565649
| 29> H      0.822938    -1.340268    -1.407952
| 30> H      0.950638     2.234070     1.065902
| 31> H      0.932147     0.665303     1.905188
| 32> H     -1.252275     2.025246     2.232766
| 33> H     -2.323865     0.225223    -1.488055
| 34> H     -0.363152     2.091488    -1.369153
| 35> H     -0.046305     0.620183    -2.371654
| 36> H     -0.989146    -3.192258    -1.174806
| 37> H     -1.218890    -1.880726    -2.388325
| 38> H     -2.572667    -2.334112    -1.297649
| 39> H     -1.021463    -1.075080     1.912361
| 40> H     -2.558130    -1.640882     1.159119
| 41> H     -1.120342    -2.721156     1.242536
| 42> H     -3.527223     2.482777     0.749173
| 43> H     -4.027581     0.944647    -0.049037
| 44> H     -3.678902     0.960328     1.717396
| 45> *
| 46> 
| 47>                          ****END OF INPUT****
================================================================================

                       *****************************
                       * Geometry Optimization Run *
                       *****************************

Geometry optimization settings:
Update method            Update   .... BFGS
Choice of coordinates    CoordSys .... (2022) Redundant Internals
Initial Hessian          InHess   .... Almloef's Model
Max. no of cycles        MaxIter  .... 117

Convergence Tolerances:
Energy Change            TolE     ....  5.0000e-06 Eh
Max. Gradient            TolMAXG  ....  3.0000e-04 Eh/bohr
RMS Gradient             TolRMSG  ....  1.0000e-04 Eh/bohr
Max. Displacement        TolMAXD  ....  4.0000e-03 bohr
RMS Displacement         TolRMSD  ....  2.0000e-03 bohr
Strict Convergence                .... False

------------------------------------------------------------------------------
                        ORCA OPTIMIZATION COORDINATE SETUP
------------------------------------------------------------------------------

The optimization will be done in redundant internal coordinates (2022)
Making redundant internal coordinates   ...  (2022 redundants) done
Evaluating the initial hessian          ...  (Almloef) done
Evaluating the coordinates              ...  done
Calculating the B-matrix                .... done
Calculating the G-matrix                .... done
Diagonalizing the G-matrix              .... done
Small eigenvalue found = 2.609e-02
The first mode is                       ....  111
The number of degrees of freedom        ....  111

    -----------------------------------------------------------------
                    Redundant Internal Coordinates


    -----------------------------------------------------------------
         Definition                    Initial Value    Approx d2E/dq
    -----------------------------------------------------------------
      1. B(C   1,C   0)                  1.5345         0.367515   
      2. B(C   2,C   1)                  1.5600         0.334642   
      3. B(C   3,C   2)                  1.5522         0.344266   
      4. B(C   4,C   3)                  1.5166         0.392487   
      5. B(C   5,C   1)                  1.5432         0.355915   
      6. B(C   5,C   4)                  1.5238         0.382233   
      7. B(C   6,C   5)                  1.5889         0.300853   
      8. B(C   7,C   6)                  1.5188         0.389240   
      9. B(C   8,C   7)                  1.3459         0.734545   
     10. B(C   9,C   8)                  1.5168         0.392142   
     11. B(C  10,C   9)                  1.5584         0.336589   
     12. B(C  10,C   5)                  1.5247         0.380881   
     13. B(C  11,C   9)                  1.5829         0.307593   
     14. B(C  11,C   4)                  1.5439         0.354931   
     15. B(C  12,C  11)                  1.5479         0.349828   
     16. B(C  13,C  11)                  1.5508         0.346045   
     17. B(C  14,C   8)                  1.5027         0.412922   
     18. B(H  15,C   0)                  1.1102         0.334382   
     19. B(H  16,C   0)                  1.1106         0.333887   
     20. B(H  17,C   0)                  1.1106         0.333901   
     21. B(H  18,C   1)                  1.1152         0.328310   
     22. B(H  19,C   2)                  1.1120         0.332110   
     23. B(H  20,C   2)                  1.1117         0.332559   
     24. B(H  21,C   3)                  1.1119         0.332288   
     25. B(H  22,C   3)                  1.1099         0.334726   
     26. B(H  23,C   4)                  1.1235         0.318375   
     27. B(H  24,C   6)                  1.1078         0.337347   
     28. B(H  25,C   6)                  1.1081         0.336950   
     29. B(H  26,C   7)                  1.0864         0.364876   
     30. B(H  27,C   9)                  1.1124         0.331599   
     31. B(H  28,C  10)                  1.1133         0.330589   
     32. B(H  29,C  10)                  1.1139         0.329856   
     33. B(H  30,C  12)                  1.1115         0.332759   
     34. B(H  31,C  12)                  1.1118         0.332344   
     35. B(H  32,C  12)                  1.1114         0.332860   
     36. B(H  33,C  13)                  1.1074         0.337821   
     37. B(H  34,C  13)                  1.1109         0.333438   
     38. B(H  35,C  13)                  1.1113         0.333007   
     39. B(H  36,C  14)                  1.1103         0.334249   
     40. B(H  37,C  14)                  1.1099         0.334708   
     41. B(H  38,C  14)                  1.1105         0.334001   
     42. A(C   1,C   0,H  16)          109.3953         0.319473   
     43. A(H  15,C   0,H  16)          107.6948         0.284116   
     44. A(C   1,C   0,H  15)          111.7564         0.319550   
     45. A(H  16,C   0,H  17)          108.3816         0.284053   
     46. A(H  15,C   0,H  17)          109.5646         0.284118   
     47. A(C   1,C   0,H  17)          109.9623         0.319475   
     48. A(C   2,C   1,H  18)          108.7539         0.313778   
     49. A(C   5,C   1,H  18)          108.7213         0.316935   
     50. A(C   0,C   1,H  18)          106.7565         0.318596   
     51. A(C   0,C   1,C   5)          116.5450         0.359358   
     52. A(C   2,C   1,C   5)          102.8170         0.353685   
     53. A(C   0,C   1,C   2)          113.0254         0.355613   
     54. A(H  19,C   2,H  20)          108.6388         0.283640   
     55. A(C   1,C   2,H  20)          109.9889         0.314433   
     56. A(C   1,C   2,H  19)          111.4819         0.314364   
     57. A(C   3,C   2,H  19)          109.2514         0.315815   
     58. A(C   3,C   2,H  20)          110.5722         0.315884   
     59. A(C   1,C   2,C   3)          106.9065         0.351699   
     60. A(C   4,C   3,H  22)          111.9467         0.323061   
     61. A(C   2,C   3,C   4)          101.9312         0.361352   
     62. A(H  21,C   3,H  22)          109.1221         0.283950   
     63. A(C   2,C   3,H  22)          111.1463         0.316218   
     64. A(C   4,C   3,H  21)          111.1623         0.322674   
     65. A(C   2,C   3,H  21)          111.4172         0.315842   
     66. A(C  11,C   4,H  23)          104.7711         0.315214   
     67. A(C   5,C   4,H  23)          107.7410         0.319040   
     68. A(C   3,C   4,C   5)          105.0819         0.367878   
     69. A(C   3,C   4,H  23)          102.2517         0.320423   
     70. A(C   5,C   4,C  11)          106.9417         0.361601   
     71. A(C   3,C   4,C  11)          128.6825         0.363239   
     72. A(C   1,C   5,C   4)           98.9877         0.361772   
     73. A(C   1,C   5,C  10)          122.5885         0.361553   
     74. A(C   6,C   5,C  10)          108.1995         0.351380   
     75. A(C   4,C   5,C   6)          115.3217         0.351590   
     76. A(C   1,C   5,C   6)          111.9188         0.347384   
     77. A(C   4,C   5,C  10)           99.0881         0.365990   
     78. A(H  24,C   6,H  25)          106.8290         0.284911   
     79. A(C   5,C   6,H  25)          111.9889         0.309721   
     80. A(C   7,C   6,H  24)          104.3618         0.323034   
     81. A(C   5,C   6,H  24)          109.2647         0.309780   
     82. A(C   5,C   6,C   7)          114.8176         0.352672   
     83. A(C   7,C   6,H  25)          109.0211         0.322972   
     84. A(C   6,C   7,H  26)          118.6891         0.327226   
     85. A(C   6,C   7,C   8)          121.1317         0.411706   
     86. A(C   8,C   7,H  26)          120.1379         0.364051   
     87. A(C   9,C   8,C  14)          121.3167         0.372739   
     88. A(C   7,C   8,C  14)          120.4600         0.416049   
     89. A(C   7,C   8,C   9)          118.1993         0.412249   
     90. A(C  11,C   9,H  27)          112.7492         0.310029   
     91. A(C  10,C   9,H  27)          110.2418         0.314581   
     92. A(C   8,C   9,H  27)          110.5470         0.322518   
     93. A(C  10,C   9,C  11)          105.3136         0.345423   
     94. A(C   8,C   9,C  11)          110.9091         0.354444   
     95. A(C   8,C   9,C  10)          106.7899         0.359911   
     96. A(C   9,C  10,H  28)          113.1081         0.314426   
     97. A(C   5,C  10,H  28)          112.4122         0.320823   
     98. A(C   5,C  10,C   9)           99.2416         0.358131   
     99. A(H  28,C  10,H  29)          108.5750         0.283079   
    100. A(C   9,C  10,H  29)          111.0637         0.314313   
    101. A(C   5,C  10,H  29)          112.2882         0.320706   
    102. A(C  12,C  11,C  13)          107.3998         0.354661   
    103. A(C   9,C  11,C  13)          116.2034         0.347036   
    104. A(C   4,C  11,C  13)          112.1175         0.355533   
    105. A(C   9,C  11,C  12)          109.0098         0.347671   
    106. A(C   4,C  11,C  12)          110.9498         0.356189   
    107. A(C   4,C  11,C   9)          101.0841         0.348521   
    108. A(H  31,C  12,H  32)          107.8227         0.283710   
    109. A(H  30,C  12,H  32)          108.6085         0.283765   
    110. A(C  11,C  12,H  32)          110.3491         0.316755   
    111. A(H  30,C  12,H  31)          108.2479         0.283697   
    112. A(C  11,C  12,H  31)          111.1769         0.316675   
    113. A(C  11,C  12,H  30)          110.5420         0.316740   
    114. A(H  34,C  13,H  35)          108.2201         0.283875   
    115. A(H  33,C  13,H  35)          106.6871         0.284452   
    116. A(C  11,C  13,H  35)          110.2776         0.316218   
    117. A(H  33,C  13,H  34)          108.6878         0.284509   
    118. A(C  11,C  13,H  34)          110.2465         0.316285   
    119. A(C  11,C  13,H  33)          112.5671         0.316958   
    120. A(H  37,C  14,H  38)          108.3745         0.284174   
    121. A(H  36,C  14,H  38)          109.2365         0.284114   
    122. A(C   8,C  14,H  38)          109.7263         0.325649   
    123. A(H  36,C  14,H  37)          108.6644         0.284207   
    124. A(C   8,C  14,H  37)          111.0900         0.325762   
    125. A(C   8,C  14,H  36)          109.7114         0.325689   
    126. D(C   2,C   1,C   0,H  16)     70.8191         0.010806   
    127. D(C   5,C   1,C   0,H  17)    -51.4621         0.010806   
    128. D(C   5,C   1,C   0,H  15)     70.4461         0.010806   
    129. D(C   5,C   1,C   0,H  16)   -170.3806         0.010806   
    130. D(C   2,C   1,C   0,H  17)   -170.2624         0.010806   
    131. D(C   2,C   1,C   0,H  15)    -48.3542         0.010806   
    132. D(H  19,C   2,C   1,C   5)    -98.7998         0.009094   
    133. D(H  19,C   2,C   1,C   0)     27.6903         0.009094   
    134. D(C   3,C   2,C   1,C   0)    147.0276         0.009094   
    135. D(H  19,C   2,C   1,H  18)    146.0579         0.009094   
    136. D(C   3,C   2,C   1,H  18)    -94.6049         0.009094   
    137. D(C   3,C   2,C   1,C   5)     20.5375         0.009094   
    138. D(C   4,C   3,C   2,H  19)    130.0655         0.009575   
    139. D(C   4,C   3,C   2,C   1)      9.2970         0.009575   
    140. D(C   4,C   3,C   2,H  20)   -110.4185         0.009575   
    141. D(H  21,C   3,C   2,C   1)    127.9323         0.009575   
    142. D(H  21,C   3,C   2,H  20)      8.2168         0.009575   
    143. D(H  21,C   3,C   2,H  19)   -111.2992         0.009575   
    144. D(C  11,C   4,C   3,H  22)    -44.9733         0.012240   
    145. D(C  11,C   4,C   3,H  21)     77.3504         0.012240   
    146. D(C   5,C   4,C   3,H  21)   -155.6099         0.012240   
    147. D(C   5,C   4,C   3,C   2)    -36.7934         0.012240   
    148. D(C   5,C   4,C   3,H  22)     82.0663         0.012240   
    149. D(C  11,C   4,C   3,C   2)   -163.8330         0.012240   
    150. D(C   6,C   5,C   1,H  18)   -164.4465         0.010180   
    151. D(C   6,C   5,C   1,C   2)     80.3877         0.010180   
    152. D(C   6,C   5,C   1,C   0)    -43.8104         0.010180   
    153. D(C   4,C   5,C   1,H  18)     73.5210         0.010180   
    154. D(C   1,C   5,C   4,C   3)     49.8303         0.011637   
    155. D(C   4,C   5,C   1,C   2)    -41.6448         0.010180   
    156. D(C   4,C   5,C   1,C   0)   -165.8429         0.010180   
    157. D(C   6,C   5,C   4,H  23)   -178.1833         0.011637   
    158. D(C   6,C   5,C   4,C  11)     69.6509         0.011637   
    159. D(C   6,C   5,C   4,C   3)    -69.7038         0.011637   
    160. D(C   1,C   5,C   4,H  23)    -58.6492         0.011637   
    161. D(C   1,C   5,C   4,C  11)   -170.8150         0.011637   
    162. D(H  24,C   6,C   5,C  10)    -84.5760         0.007536   
    163. D(H  24,C   6,C   5,C   4)    165.5772         0.007536   
    164. D(H  24,C   6,C   5,C   1)     53.4486         0.007536   
    165. D(C   7,C   6,C   5,C   4)    -77.6075         0.007536   
    166. D(C   7,C   6,C   5,C   1)    170.2639         0.007536   
    167. D(C   7,C   6,C   5,C  10)     32.2393         0.007536   
    168. D(H  26,C   7,C   6,H  24)    -55.3918         0.011274   
    169. D(H  26,C   7,C   6,C   5)   -174.9715         0.011274   
    170. D(C   8,C   7,C   6,H  25)   -123.8722         0.011274   
    171. D(C   8,C   7,C   6,H  24)    122.2751         0.011274   
    172. D(C   8,C   7,C   6,C   5)      2.6954         0.011274   
    173. D(C  14,C   8,C   7,H  26)      0.3934         0.038327   
    174. D(C  14,C   8,C   7,C   6)   -177.2400         0.038327   
    175. D(C   9,C   8,C   7,H  26)   -177.8480         0.038327   
    176. D(C   9,C   8,C   7,C   6)      4.5186         0.038327   
    177. D(H  27,C   9,C   8,C   7)   -165.3744         0.011434   
    178. D(C  11,C   9,C   8,C  14)   -109.4227         0.011434   
    179. D(C  11,C   9,C   8,C   7)     68.8029         0.011434   
    180. D(C  10,C   9,C   8,C  14)    136.3360         0.011434   
    181. D(C  10,C   9,C   8,C   7)    -45.4384         0.011434   
    182. D(H  28,C  10,C   5,C   6)     51.0281         0.011559   
    183. D(H  28,C  10,C   5,C   4)    171.5946         0.011559   
    184. D(H  28,C  10,C   5,C   1)    -81.5459         0.011559   
    185. D(C   9,C  10,C   5,C   6)    -68.7883         0.011559   
    186. D(C   9,C  10,C   5,C   4)     51.7781         0.011559   
    187. D(C   5,C  10,C   9,C   8)     76.6947         0.009190   
    188. D(C   9,C  10,C   5,C   1)    158.6377         0.011559   
    189. D(H  28,C  10,C   9,H  27)     77.5255         0.009190   
    190. D(H  28,C  10,C   9,C  11)   -160.5840         0.009190   
    191. D(H  28,C  10,C   9,C   8)    -42.6068         0.009190   
    192. D(C   5,C  10,C   9,H  27)   -163.1729         0.009190   
    193. D(C   5,C  10,C   9,C  11)    -41.2824         0.009190   
    194. D(C  12,C  11,C   9,H  27)     17.0696         0.007831   
    195. D(C  12,C  11,C   9,C   8)    141.6533         0.007831   
    196. D(C   4,C  11,C   9,H  27)    133.9966         0.007831   
    197. D(C   4,C  11,C   9,C  10)     13.7450         0.007831   
    198. D(C   4,C  11,C   9,C   8)   -101.4197         0.007831   
    199. D(C  12,C  11,C   4,H  23)     20.5431         0.010128   
    200. D(C  12,C  11,C   4,C   5)    134.7318         0.010128   
    201. D(C  12,C  11,C   4,C   3)    -98.9451         0.010128   
    202. D(C   9,C  11,C   4,H  23)    -94.9511         0.010128   
    203. D(C  12,C  11,C   9,C  10)   -103.1820         0.007831   
    204. D(C   9,C  11,C   4,C   5)     19.2376         0.010128   
    205. D(C   9,C  11,C   4,C   3)    145.5607         0.010128   
    206. D(H  31,C  12,C  11,C  13)    177.1019         0.009861   
    207. D(H  31,C  12,C  11,C   9)     50.4188         0.009861   
    208. D(H  31,C  12,C  11,C   4)    -60.0461         0.009861   
    209. D(H  30,C  12,C  11,C  13)    -62.6477         0.009861   
    210. D(H  30,C  12,C  11,C   9)    170.6692         0.009861   
    211. D(H  30,C  12,C  11,C   4)     60.2043         0.009861   
    212. D(H  34,C  13,C  11,C  12)    -67.2162         0.009666   
    213. D(H  34,C  13,C  11,C   9)     55.1054         0.009666   
    214. D(H  34,C  13,C  11,C   4)    170.6554         0.009666   
    215. D(H  33,C  13,C  11,C  12)    171.2422         0.009666   
    216. D(H  33,C  13,C  11,C   9)    -66.4362         0.009666   
    217. D(H  33,C  13,C  11,C   4)     49.1138         0.009666   
    218. D(H  38,C  14,C   8,C   7)    -57.9380         0.012622   
    219. D(H  37,C  14,C   8,C   9)      0.4322         0.012622   
    220. D(H  37,C  14,C   8,C   7)   -177.7536         0.012622   
    221. D(H  36,C  14,C   8,C   9)   -119.7350         0.012622   
    222. D(H  36,C  14,C   8,C   7)     62.0792         0.012622   
    -----------------------------------------------------------------

Number of atoms                         .... 39
Number of degrees of freedom            .... 222


         *************************************************************
         *                GEOMETRY OPTIMIZATION CYCLE   1            *
         *************************************************************
---------------------------------
CARTESIAN COORDINATES (ANGSTROEM)
---------------------------------
  C      3.069485    1.823152   -0.395194
  C      2.305035    0.520019   -0.663525
  C      2.835473   -0.682608    0.176591
  C      1.614386   -1.588689    0.488703
  C      0.537147   -0.974896   -0.384658
  C      0.796524    0.525913   -0.338299
  C      0.493045    1.225281    1.055793
  C     -0.978423    1.476242    1.336165
  C     -1.929828    1.072447    0.473983
  C     -1.503340    0.266294   -0.737997
  C     -0.257783    0.983589   -1.340179
  C     -0.992653   -1.169590   -0.310198
  C     -1.470104   -2.206625   -1.355437
  C     -1.450173   -1.671864    1.083894
  C     -3.376644    1.382837    0.735921
  H      3.176946    2.020800    0.691942
  H      4.089869    1.747766   -0.827059
  H      2.546838    2.675676   -0.878299
  H      2.436889    0.287002   -1.746067
  H      3.292948   -0.342155    1.131269
  H      3.600007   -1.243588   -0.403558
  H      1.809250   -2.645352    0.202749
  H      1.349323   -1.546434    1.565649
  H      0.822938   -1.340268   -1.407952
  H      0.950638    2.234070    1.065902
  H      0.932147    0.665303    1.905188
  H     -1.252275    2.025246    2.232766
  H     -2.323865    0.225223   -1.488055
  H     -0.363152    2.091488   -1.369153
  H     -0.046305    0.620183   -2.371654
  H     -0.989146   -3.192258   -1.174806
  H     -1.218890   -1.880726   -2.388325
  H     -2.572667   -2.334112   -1.297649
  H     -1.021463   -1.075080    1.912361
  H     -2.558130   -1.640882    1.159119
  H     -1.120342   -2.721156    1.242536
  H     -3.527223    2.482777    0.749173
  H     -4.027581    0.944647   -0.049037
  H     -3.678902    0.960328    1.717396

----------------------------
CARTESIAN COORDINATES (A.U.)
----------------------------
  NO LB      ZA    FRAG     MASS         X           Y           Z
   0 C     4.0000*   0    12.011    5.800486    3.445258   -0.746808
   1 C     4.0000*   0    12.011    4.355885    0.982693   -1.253881
   2 C     4.0000*   0    12.011    5.358267   -1.289942    0.333709
   3 C     4.0000*   0    12.011    3.050747   -3.002187    0.923515
   4 C     4.0000*   0    12.011    1.015061   -1.842286   -0.726898
   5 C     4.0000*   0    12.011    1.505212    0.993832   -0.639292
   6 C     4.0000*   0    12.011    0.931720    2.315446    1.995160
   7 C     4.0000*   0    12.011   -1.848952    2.789693    2.524986
   8 C     4.0000*   0    12.011   -3.646846    2.026631    0.895698
   9 C     4.0000*   0    12.011   -2.840901    0.503223   -1.394612
  10 C     4.0000*   0    12.011   -0.487139    1.858714   -2.532571
  11 C     4.0000*   0    12.011   -1.875842   -2.210205   -0.586189
  12 C     4.0000*   0    12.011   -2.778094   -4.169917   -2.561405
  13 C     4.0000*   0    12.011   -2.740430   -3.159365    2.048263
  14 C     4.0000*   0    12.011   -6.380932    2.613183    1.390689
  15 H     1.0000    0     1.008    6.003558    3.818759    1.307581
  16 H     1.0000    0     1.008    7.728732    3.302799   -1.562915
  17 H     1.0000    0     1.008    4.812826    5.056295   -1.659745
  18 H     1.0000    0     1.008    4.605053    0.542355   -3.299588
  19 H     1.0000    0     1.008    6.222770   -0.646579    2.137789
  20 H     1.0000    0     1.008    6.803027   -2.350041   -0.762614
  21 H     1.0000    0     1.008    3.418987   -4.998991    0.383140
  22 H     1.0000    0     1.008    2.549851   -2.922337    2.958648
  23 H     1.0000    0     1.008    1.555127   -2.532739   -2.660644
  24 H     1.0000    0     1.008    1.796445    4.221780    2.014263
  25 H     1.0000    0     1.008    1.761503    1.257240    3.600284
  26 H     1.0000    0     1.008   -2.366457    3.827160    4.219316
  27 H     1.0000    0     1.008   -4.391468    0.425610   -2.812016
  28 H     1.0000    0     1.008   -0.686258    3.952340   -2.587324
  29 H     1.0000    0     1.008   -0.087504    1.171976   -4.481777
  30 H     1.0000    0     1.008   -1.869215   -6.032493   -2.220062
  31 H     1.0000    0     1.008   -2.303368   -3.554057   -4.513280
  32 H     1.0000    0     1.008   -4.861636   -4.410832   -2.452201
  33 H     1.0000    0     1.008   -1.930285   -2.031607    3.613839
  34 H     1.0000    0     1.008   -4.834165   -3.100818    2.190417
  35 H     1.0000    0     1.008   -2.117140   -5.142240    2.348053
  36 H     1.0000    0     1.008   -6.665485    4.691769    1.415732
  37 H     1.0000    0     1.008   -7.611025    1.785124   -0.092667
  38 H     1.0000    0     1.008   -6.952117    1.814757    3.245408
* core charge reduced due to ECP

--------------------------------
INTERNAL COORDINATES (ANGSTROEM)
--------------------------------
 C      0   0   0     0.000000000000     0.00000000     0.00000000
 C      1   0   0     1.534451349424     0.00000000     0.00000000
 C      2   1   0     1.559958674590   113.02535249     0.00000000
 C      3   2   1     1.552240361759   106.90646856   147.02758731
 C      4   3   2     1.516557003970   101.93116070     9.29697871
 C      5   4   3     1.523762855398   105.08187022   323.20664051
 C      6   5   4     1.588932851737   115.32174328   290.29620044
 C      7   6   5     1.518817947263   114.81764172   282.39247887
 C      8   7   6     1.345949359067   121.13172999     2.69536087
 C      9   8   7     1.516796029120   118.19930605     4.51862515
 C      6   5   4     1.524727551278    99.08808215   175.10731463
 C      5   4   3     1.543935907101   128.68253820   196.16698796
 C     12   5   4     1.547877778039   110.94978184   261.05489712
 C     12   5   4     1.550837266105   112.11753869    21.13684182
 C      9   8   7     1.502740831215   120.45996749   182.76004932
 H      1   2   3     1.110169933353   111.75641832   311.64575676
 H      1   2   3     1.110573696194   109.39532816    70.81906556
 H      1   2   3     1.110561793963   109.96225813   189.73757897
 H      2   1   3     1.115158993762   106.75653212   240.47602613
 H      3   2   1     1.112025945973   111.48187591    27.69034333
 H      3   2   1     1.111658067823   109.98889293   267.11783925
 H      4   3   2     1.111880553019   111.41724811   127.93226659
 H      4   3   2     1.109890339588   111.14627103   249.87046826
 H      5   4   3     1.123522943469   102.25173406    75.63065748
 H      7   6   5     1.107767481041   109.26471580   165.57718005
 H      7   6   5     1.108087448225   111.98893769    47.42073639
 H      8   7   6     1.086413210119   118.68913063   185.02845020
 H     10   9   8     1.112445551940   110.54703534   194.62557669
 H     11   6   5     1.113275488385   112.41218499   171.59456913
 H     11   6   5     1.113879500191   112.28815082   294.37638583
 H     13  12   5     1.111494744303   110.54204429    60.20432133
 H     13  12   5     1.111834633631   111.17692058   299.95391005
 H     13  12   5     1.111412415390   110.34908379   180.36509875
 H     14  12   5     1.107384746529   112.56705076    49.11381929
 H     14  12   5     1.110939871819   110.24649232   170.65543809
 H     14  12   5     1.111291804158   110.27763796   290.09838357
 H     15   9   8     1.110278187818   109.71136639    62.07921169
 H     15   9   8     1.109904732773   111.08996925   182.24638654
 H     15   9   8     1.110480494772   109.72633917   302.06198950

---------------------------
INTERNAL COORDINATES (A.U.)
---------------------------
 C      0   0   0     0.000000000000     0.00000000     0.00000000
 C      1   0   0     2.899692816238     0.00000000     0.00000000
 C      2   1   0     2.947894675210   113.02535249     0.00000000
 C      3   2   1     2.933309177744   106.90646856   147.02758731
 C      4   3   2     2.865877403984   101.93116070     9.29697871
 C      5   4   3     2.879494489744   105.08187022   323.20664051
 C      6   5   4     3.002647934973   115.32174328   290.29620044
 C      7   6   5     2.870149967612   114.81764172   282.39247887
 C      8   7   6     2.543475678764   121.13172999     2.69536087
 C      9   8   7     2.866329096055   118.19930605     4.51862515
 C      6   5   4     2.881317500759    99.08808215   175.10731463
 C      5   4   3     2.917616032748   128.68253820   196.16698796
 C     12   5   4     2.925065089276   110.94978184   261.05489712
 C     12   5   4     2.930657711218   112.11753869    21.13684182
 C      9   8   7     2.839768621257   120.45996749   182.76004932
 H      1   2   3     2.097917136151   111.75641832   311.64575676
 H      1   2   3     2.098680137342   109.39532816    70.81906556
 H      1   2   3     2.098657645386   109.96225813   189.73757897
 H      2   1   3     2.107345093990   106.75653212   240.47602613
 H      3   2   1     2.101424491704   111.48187591    27.69034333
 H      3   2   1     2.100729302750   109.98889293   267.11783925
 H      4   3   2     2.101149738838   111.41724811   127.93226659
 H      4   3   2     2.097388780506   111.14627103   249.87046826
 H      5   4   3     2.123150668333   102.25173406    75.63065748
 H      7   6   5     2.093377159231   109.26471580   165.57718005
 H      7   6   5     2.093981809580   111.98893769    47.42073639
 H      8   7   6     2.053023435399   118.68913063   185.02845020
 H     10   9   8     2.102217432065   110.54703534   194.62557669
 H     11   6   5     2.103785784654   112.41218499   171.59456913
 H     11   6   5     2.104927201549   112.28815082   294.37638583
 H     13  12   5     2.100420666026   110.54204429    60.20432133
 H     13  12   5     2.101062963771   111.17692058   299.95391005
 H     13  12   5     2.100265086926   110.34908379   180.36509875
 H     14  12   5     2.092653895822   112.56705076    49.11381929
 H     14  12   5     2.099372108992   110.24649232   170.65543809
 H     14  12   5     2.100037164730   110.27763796   290.09838357
 H     15   9   8     2.098121707443   109.71136639    62.07921169
 H     15   9   8     2.097415979685   111.08996925   182.24638654
 H     15   9   8     2.098504012181   109.72633917   302.06198950

---------------------
BASIS SET INFORMATION
---------------------
There are 2 groups of distinct atoms

 Group   1 Type C   : 6s6p2d contracted to 2s2p1d pattern {42/42/2}
 Group   2 Type H   : 8s2p contracted to 2s1p pattern {53/2}

Atom   0C    basis set group =>   1
Atom   1C    basis set group =>   1
Atom   2C    basis set group =>   1
Atom   3C    basis set group =>   1
Atom   4C    basis set group =>   1
Atom   5C    basis set group =>   1
Atom   6C    basis set group =>   1
Atom   7C    basis set group =>   1
Atom   8C    basis set group =>   1
Atom   9C    basis set group =>   1
Atom  10C    basis set group =>   1
Atom  11C    basis set group =>   1
Atom  12C    basis set group =>   1
Atom  13C    basis set group =>   1
Atom  14C    basis set group =>   1
Atom  15H    basis set group =>   2
Atom  16H    basis set group =>   2
Atom  17H    basis set group =>   2
Atom  18H    basis set group =>   2
Atom  19H    basis set group =>   2
Atom  20H    basis set group =>   2
Atom  21H    basis set group =>   2
Atom  22H    basis set group =>   2
Atom  23H    basis set group =>   2
Atom  24H    basis set group =>   2
Atom  25H    basis set group =>   2
Atom  26H    basis set group =>   2
Atom  27H    basis set group =>   2
Atom  28H    basis set group =>   2
Atom  29H    basis set group =>   2
Atom  30H    basis set group =>   2
Atom  31H    basis set group =>   2
Atom  32H    basis set group =>   2
Atom  33H    basis set group =>   2
Atom  34H    basis set group =>   2
Atom  35H    basis set group =>   2
Atom  36H    basis set group =>   2
Atom  37H    basis set group =>   2
Atom  38H    basis set group =>   2
---------------------------------
AUXILIARY/J BASIS SET INFORMATION
---------------------------------
There are 2 groups of distinct atoms

 Group   1 Type C   : 12s5p4d2f1g contracted to 6s4p3d1f1g pattern {711111/2111/211/2/1}
 Group   2 Type H   : 5s2p1d contracted to 3s1p1d pattern {311/2/1}

Atom   0C    basis set group =>   1
Atom   1C    basis set group =>   1
Atom   2C    basis set group =>   1
Atom   3C    basis set group =>   1
Atom   4C    basis set group =>   1
Atom   5C    basis set group =>   1
Atom   6C    basis set group =>   1
Atom   7C    basis set group =>   1
Atom   8C    basis set group =>   1
Atom   9C    basis set group =>   1
Atom  10C    basis set group =>   1
Atom  11C    basis set group =>   1
Atom  12C    basis set group =>   1
Atom  13C    basis set group =>   1
Atom  14C    basis set group =>   1
Atom  15H    basis set group =>   2
Atom  16H    basis set group =>   2
Atom  17H    basis set group =>   2
Atom  18H    basis set group =>   2
Atom  19H    basis set group =>   2
Atom  20H    basis set group =>   2
Atom  21H    basis set group =>   2
Atom  22H    basis set group =>   2
Atom  23H    basis set group =>   2
Atom  24H    basis set group =>   2
Atom  25H    basis set group =>   2
Atom  26H    basis set group =>   2
Atom  27H    basis set group =>   2
Atom  28H    basis set group =>   2
Atom  29H    basis set group =>   2
Atom  30H    basis set group =>   2
Atom  31H    basis set group =>   2
Atom  32H    basis set group =>   2
Atom  33H    basis set group =>   2
Atom  34H    basis set group =>   2
Atom  35H    basis set group =>   2
Atom  36H    basis set group =>   2
Atom  37H    basis set group =>   2
Atom  38H    basis set group =>   2
-------------------------
ECP PARAMETER INFORMATION
-------------------------

 Group 1, Type C  ECP vDZP-ECP (replacing 2 core electrons, lmax=3)

Atom   0C    ECP group =>   1
Atom   1C    ECP group =>   1
Atom   2C    ECP group =>   1
Atom   3C    ECP group =>   1
Atom   4C    ECP group =>   1
Atom   5C    ECP group =>   1
Atom   6C    ECP group =>   1
Atom   7C    ECP group =>   1
Atom   8C    ECP group =>   1
Atom   9C    ECP group =>   1
Atom  10C    ECP group =>   1
Atom  11C    ECP group =>   1
Atom  12C    ECP group =>   1
Atom  13C    ECP group =>   1
Atom  14C    ECP group =>   1



           ************************************************************
           *        Program running with 40 parallel MPI-processes    *
           *              working on a common directory               *
           ************************************************************
------------------------------------------------------------------------------
                             ORCA STARTUP CALCULATIONS
                           -- RI-GTO INTEGRALS CHOSEN --
------------------------------------------------------------------------------
------------------------------------------------------------------------------
                   ___                                                        
                  /   \      - P O W E R E D   B Y -                         
                 /     \                                                     
                 |  |  |   _    _      __       _____    __    __             
                 |  |  |  | |  | |    /  \     |  _  \  |  |  /  |          
                  \  \/   | |  | |   /    \    | | | |  |  | /  /          
                 / \  \   | |__| |  /  /\  \   | |_| |  |  |/  /          
                |  |  |   |  __  | /  /__\  \  |    /   |      \           
                |  |  |   | |  | | |   __   |  |    \   |  |\   \          
                \     /   | |  | | |  |  |  |  | |\  \  |  | \   \       
                 \___/    |_|  |_| |__|  |__|  |_| \__\ |__|  \__/        
                                                                              
                      - O R C A' S   B I G   F R I E N D -                    
                                      &                                       
                       - I N T E G R A L  F E E D E R -                       
                                                                              
 v1 FN, 2020, v2 2021, v3 2022-2024                                           
------------------------------------------------------------------------------


----------------------
SHARK INTEGRAL PACKAGE
----------------------

Number of atoms                             ...     39
Number of basis functions                   ...    315
Number of shells                            ...    147
Maximum angular momentum                    ...      2
Integral batch strategy                     ... SHARK/LIBINT Hybrid
RI-J (if used) integral strategy            ... SPLIT-RIJ (Revised 2003 algorithm where possible)
Printlevel                                  ...      1
Contraction scheme used                     ... SEGMENTED contraction
Prescreening option                         ... SCHWARTZ
   Thresh                                   ... 2.500e-11
   Tcut                                     ... 2.500e-12
   Tpresel                                  ... 2.500e-12 
Coulomb Range Separation                    ... NOT USED
Exchange Range Separation                   ... Long Range
   Mu parameter                             ... 3.000e-01
   Scaling (regular/separated)              ... 1.670e-01 8.330e-01
Multipole approximations                    ... NOT USED
Finite Nucleus Model                        ... NOT USED
CABS basis                                  ... NOT available
Auxiliary Coulomb fitting basis             ... AVAILABLE
   # of basis functions in Aux-J            ...    999
   # of shells in Aux-J                     ...    345
   Maximum angular momentum in Aux-J        ...      4
Auxiliary J/K fitting basis                 ... NOT available
Auxiliary Correlation fitting basis         ... NOT available
Auxiliary 'external' fitting basis          ... NOT available

Checking pre-screening integrals            ... done (  0.0 sec) Dimension = 147
Check shell pair data                       ... done (  0.0 sec)
Shell pair information
Shell pair cut-off parameter TPreSel        ...   2.5e-12
Total number of shell pairs                 ...     10878
Shell pairs after pre-screening             ...     10849
Total number of primitive shell pairs       ...    102036
Primitive shell pairs kept                  ...     80468
          la=0 lb=0:   3078 shell pairs
          la=1 lb=0:   4196 shell pairs
          la=1 lb=1:   1475 shell pairs
          la=2 lb=0:   1170 shell pairs
          la=2 lb=1:    810 shell pairs
          la=2 lb=2:    120 shell pairs

Calculating one electron integrals          ... done (  0.0 sec)
Calculating ECP integrals                   ... done (  0.2 sec)
Calculating RI/J V-Matrix + Cholesky decomp.... done (  0.0 sec)
Calculating Nuclear repulsion               ... done (  0.0 sec) ENN=    597.906034866764 Eh

Diagonalization of the overlap matrix:
Smallest eigenvalue                        ... 8.016e-04
Time for diagonalization                   ...    0.014 sec
Threshold for overlap eigenvalues          ... 1.000e-07
Number of eigenvalues below threshold      ... 0
Time for construction of square roots      ...    0.007 sec
Total time needed                          ...    0.024 sec

-------------------
DFT GRID GENERATION
-------------------

General Integration Accuracy     IntAcc      ... 4.388
Radial Grid Type                 RadialGrid  ... OptM3 with GC (2021)
Angular Grid (max. ang.)         AngularGrid ... 4 (Lebedev-302)
Angular grid pruning method      GridPruning ... 4 (adaptive)
Weight generation scheme         WeightScheme... mBecke (2022)
Basis function cutoff            BFCut       ... 1.0000e-11
Integration weight cutoff        WCut        ... 1.0000e-14
Partially contracted basis set               ... off
Rotationally invariant grid construction     ... off
Angular grids for H and He will be reduced by one unit

Total number of grid points                  ...   164090
Total number of batches                      ...     2585
Average number of points per batch           ...       63
Average number of grid points per atom       ...     4207

--------------------
COSX GRID GENERATION
--------------------

GRIDX 1
-------
General Integration Accuracy     IntAcc      ... 3.816
Radial Grid Type                 RadialGrid  ... OptM3 with GC (2021)
Angular Grid (max. ang.)         AngularGrid ... 1 (Lebedev-50)
Angular grid pruning method      GridPruning ... 4 (adaptive)
Weight generation scheme         WeightScheme... mBecke (2022)
Basis function cutoff            BFCut       ... 1.0000e-11
Integration weight cutoff        WCut        ... 1.0000e-14
Partially contracted basis set               ... on
Rotationally invariant grid construction     ... off
Angular grids for H and He will be reduced by one unit

Total number of grid points                  ...    20929
Total number of batches                      ...      190
Average number of points per batch           ...      110
Average number of grid points per atom       ...      537
UseSFitting                                  ... on

GRIDX 2
-------
General Integration Accuracy     IntAcc      ... 4.020
Radial Grid Type                 RadialGrid  ... OptM3 with GC (2021)
Angular Grid (max. ang.)         AngularGrid ... 2 (Lebedev-110)
Angular grid pruning method      GridPruning ... 4 (adaptive)
Weight generation scheme         WeightScheme... mBecke (2022)
Basis function cutoff            BFCut       ... 1.0000e-11
Integration weight cutoff        WCut        ... 1.0000e-14
Partially contracted basis set               ... on
Rotationally invariant grid construction     ... off
Angular grids for H and He will be reduced by one unit

Total number of grid points                  ...    43156
Total number of batches                      ...      358
Average number of points per batch           ...      120
Average number of grid points per atom       ...     1107
UseSFitting                                  ... on

GRIDX 3
-------
General Integration Accuracy     IntAcc      ... 4.338
Radial Grid Type                 RadialGrid  ... OptM3 with GC (2021)
Angular Grid (max. ang.)         AngularGrid ... 3 (Lebedev-194)
Angular grid pruning method      GridPruning ... 4 (adaptive)
Weight generation scheme         WeightScheme... mBecke (2022)
Basis function cutoff            BFCut       ... 1.0000e-11
Integration weight cutoff        WCut        ... 1.0000e-14
Partially contracted basis set               ... on
Rotationally invariant grid construction     ... off
Angular grids for H and He will be reduced by one unit

Total number of grid points                  ...    93536
Total number of batches                      ...      753
Average number of points per batch           ...      124
Average number of grid points per atom       ...     2398
UseSFitting                                  ... on
Initializing property integral containers    ... done (  0.0 sec)

SHARK setup successfully completed in   5.3 seconds

Maximum memory used throughout the entire STARTUP-calculation: 52.2 MB


           ************************************************************
           *        Program running with 40 parallel MPI-processes    *
           *              working on a common directory               *
           ************************************************************
-------------------------------------------------------------------------------
                                 ORCA GUESS
                   Start orbitals & Density for SCF / CASSCF
-------------------------------------------------------------------------------

------------
SCF SETTINGS
------------
Hamiltonian:
 Density Functional     Method          .... DFT(GTOs)
 Exchange Functional    Exchange        .... WB97X-V
 Correlation Functional Correlation     .... WB97X-V
 Gradients option       PostSCFGGA      .... off
 Hybrid DFT is turned on
   Fraction HF Exchange ScalHFX         ....  0.167000
   Scaling of DF-GGA-X  ScalDFX         ....  0.000000
   Scaling of DF-GGA-C  ScalDFC         ....  1.000000
   Scaling of DF-LDA-C  ScalLDAC        ....  1.000000
   Perturbative correction              ....  0.000000
 Long-range corrected/Screened/Range-Separated Hybrid DFT is turned on
   Amount of maximum screened exact exchange              ....  0.833000
   Range separation parameter mu (erf(mu*r12)/r12)        ....  0.300000
   NL short-range parameter             ....  6.000000
   NL long-range parameter              ....  0.010000
 RI-approximation to the Coulomb term is turned on
   Number of AuxJ basis functions       .... 999
   RIJ-COSX (HFX calculated with COS-X)).... on


General Settings:
 Integral files         IntName         .... ./output/alpha_cedrene/alpha_cedrene
 Hartree-Fock type      HFTyp           .... RHF
 Total Charge           Charge          ....    0
 Multiplicity           Mult            ....    1
 Number of Electrons    NEL             ....   84
 Basis Dimension        Dim             ....  315
 Nuclear Repulsion      ENuc            ....    597.9060348668 Eh

Convergence Acceleration:
 AO-DIIS                CNVDIIS         .... on
   Start iteration      DIISMaxIt       ....    12
   Startup error        DIISStart       ....  0.200000
   # of expansion vecs  DIISMaxEq       ....     5
   Bias factor          DIISBfac        ....   1.050
   Max. coefficient     DIISMaxC        ....  10.000
 MO-DIIS                CNVKDIIS        .... off
 Trust-Rad. Augm. Hess. CNVTRAH         .... auto
   Auto Start mean grad. ratio tolernc. ....  1.125000
   Auto Start start iteration           ....    50
   Auto Start num. interpolation iter.  ....    10
   Max. Number of Micro iterations      ....    24
   Max. Number of Macro iterations      .... Maxiter - #DIIS iter
   Number of Davidson start vectors     ....     2
   Converg. threshold    (grad. norm)   ....   1.000e-05
   Grad. Scal. Fac. for Micro threshold ....   0.100
   Minimum threshold for Micro iter.    ....   1.000e-02
   NR start threshold (gradient norm)   ....   1.000e-04
   Initial trust radius                 ....   0.400
   Minimum AH scaling param. (alpha)    ....   1.000
   Maximum AH scaling param. (alpha)    .... 1000.000
   Quad. conv. algorithm                .... NR
   White noise on init. David. guess    .... on
   Maximum white noise                  ....   0.010
   Pseudo random numbers                .... off
   Inactive MOs                         .... canonical
   Orbital update algorithm             .... Taylor
   Preconditioner                       .... Diag
   Full preconditioner red. dimension   ....   250
 SOSCF                  CNVSOSCF        .... on
   Start iteration      SOSCFMaxIt      ....   150
   Startup grad/error   SOSCFStart      ....  0.003300
   Hessian update       SOSCFHessUp     .... L-BFGS
 Level Shifting         CNVShift        .... on
   Level shift para.    LevelShift      ....    0.2500
   Turn off err/grad.   ShiftErr        ....    0.0010
 Zerner damping         CNVZerner       .... off
 Static damping         CNVDamp         .... on
   Fraction old density DampFac         ....    0.7000
   Max. Damping (<1)    DampMax         ....    0.9800
   Min. Damping (>=0)   DampMin         ....    0.0000
   Turn off err/grad.   DampErr         ....    0.1000

SCF Procedure:
 Maximum # iterations   MaxIter         ....   125
 SCF integral mode      SCFMode         .... Direct
   Integral package                     .... SHARK and LIBINT hybrid scheme
 Reset frequency        DirectResetFreq ....    20
 Integral Threshold     Thresh          ....  2.500e-11 Eh
 Primitive CutOff       TCut            ....  2.500e-12 Eh

Convergence Tolerance:
 Convergence Check Mode ConvCheckMode   .... Total+1el-Energy
 Convergence forced     ConvForced      .... 0
 Energy Change          TolE            ....  1.000e-08 Eh
 1-El. energy change                    ....  1.000e-05 Eh
 Orbital Gradient       TolG            ....  1.000e-05
 Orbital Rotation angle TolX            ....  1.000e-05
 DIIS Error             TolErr          ....  5.000e-07

------------------------------
INITIAL GUESS: MODEL POTENTIAL
------------------------------
Loading Hartree-Fock densities                     ... done
Atomic calculation to generate a density for atom 0 (C  with ECP)
  Multiplicity assumed   :    1
  Atomic configuration   : 1s2 2s2 2p2 
  Number of open shells  : 1
  Command: /home/aspe232/Project/Software/ORCA/6_0_1/build/orca ./output/alpha_cedrene/alpha_cedrene_atom6.inp "" > ./output/alpha_cedrene/alpha_cedrene_atom6.out
Returned from the atomic calculation with res=0
Calculating cut-offs                               ... done
Initializing the effective Hamiltonian             ... done
Setting up the integral package (SHARK)            ... done
Starting the Coulomb interaction                   ... done (   0.1 sec)
Making the grid                                    ... done (   1.1 sec)
Mapping shells                                     ... done
Starting the XC term evaluation                    ... done (   0.1 sec)
  promolecular density results
     # of electrons  =    113.993191999
     EX              =    -55.421712262
     EC              =     -4.583617518
     EX+EC           =    -60.005329780
Transforming the Hamiltonian                       ... done (   0.0 sec)
Diagonalizing the Hamiltonian                      ... done (   0.0 sec)
Back transforming the eigenvectors                 ... done (   0.0 sec)
Now organizing SCF variables                       ... done
                      ------------------
                      INITIAL GUESS DONE (   1.9 sec)
                      ------------------
             **** ENERGY FILE WAS UPDATED (./output/alpha_cedrene/alpha_cedrene.en.tmp) ****
Finished Guess after   2.9 sec
Maximum memory used throughout the entire GUESS-calculation: 35.2 MB


           ************************************************************
           *        Program running with 40 parallel MPI-processes    *
           *              working on a common directory               *
           ************************************************************

-------------------------------------------------------------------------------------------
                                      ORCA LEAN-SCF
                              memory conserving SCF solver
-------------------------------------------------------------------------------------------

----------------------------------------D-I-I-S--------------------------------------------
Iteration    Energy (Eh)           Delta-E    RMSDP     MaxDP     DIISErr   Damp  Time(sec)
-------------------------------------------------------------------------------------------
               ***  Starting incremental Fock matrix formation  ***
    1    -99.1882143018983697     0.00e+00  3.60e-03  7.85e-02  1.99e-01  0.700   8.5
    2    -99.4695326311400549    -2.81e-01  2.61e-03  5.57e-02  1.15e-01  0.700   6.6
                               ***Turning on AO-DIIS***
    3    -99.6116263792812333    -1.42e-01  1.39e-03  2.99e-02  5.96e-02  0.700   6.0
    4    -99.6952312668920513    -8.36e-02  3.06e-03  7.20e-02  3.65e-02  0.000   6.2
    5    -99.8715884605971951    -1.76e-01  2.39e-04  4.53e-03  5.33e-03  0.000   6.3
                              *** Initializing SOSCF ***
---------------------------------------S-O-S-C-F--------------------------------------
Iteration    Energy (Eh)           Delta-E    RMSDP     MaxDP     MaxGrad    Time(sec)
--------------------------------------------------------------------------------------
    6    -99.8721416803150532    -5.53e-04  1.13e-04  1.82e-03  1.46e-03     6.0
               *** Restarting incremental Fock matrix formation ***
    7    -99.8722766069646468    -1.35e-04  6.13e-05  9.13e-04  2.14e-04     8.5
    8    -99.8722888910426718    -1.23e-05  3.52e-05  6.13e-04  9.51e-05     7.9
    9    -99.8722908925217325    -2.00e-06  1.23e-05  1.97e-04  5.11e-05     7.4
   10    -99.8722913466477848    -4.54e-07  1.95e-06  4.52e-05  7.96e-06     7.2
   11    -99.8722913311503362     1.55e-08  7.17e-07  2.29e-05  8.15e-06     6.6
   12    -99.8722913432638961    -1.21e-08  1.78e-07  7.74e-06  1.08e-06     6.1
                  *** Gradient check signals convergence ***

               *****************************************************
               *                     SUCCESS                       *
               *           SCF CONVERGED AFTER  12 CYCLES          *
               *****************************************************

Recomputing exchange energy using gridx3       ... done (   10.043 sec)
Old exchange energy                            :    -15.901344053 Eh
New exchange energy                            :    -15.901355393 Eh
Exchange energy change after final integration :     -0.000011339 Eh
Total energy after final integration           :    -99.872302683 Eh
             **** ENERGY FILE WAS UPDATED (./output/alpha_cedrene/alpha_cedrene.en.tmp) ****

----------------
TOTAL SCF ENERGY
----------------

Total Energy       :        -99.87230268273632 Eh           -2717.66352 eV

Components:
Nuclear Repulsion  :        597.90603486676400 Eh           16269.85035 eV
Electronic Energy  :       -697.77832621002790 Eh          -18987.51356 eV
One Electron Energy:      -1334.86924780569097 Eh          -36323.63889 eV
Two Electron Energy:        637.09092159566308 Eh           17336.12533 eV

Virial components:
Potential Energy   :       -177.84641192318901 Eh           -4839.44690 eV
Kinetic Energy     :         77.97410924045268 Eh            2121.78338 eV
Virial Ratio       :          2.28083928954873

DFT components:
N(Alpha)           :       42.000095820639 electrons
N(Beta)            :       42.000095820639 electrons
N(Total)           :       84.000191641277 electrons
E(X)               :      -16.109120013954 Eh       
E(C)               :       -3.155570439212 Eh       
E(XC)              :      -19.264690453166 Eh       

---------------
SCF CONVERGENCE
---------------

  Last Energy change         ...    1.2114e-08  Tolerance :   1.0000e-08
  Last MAX-Density change    ...    7.7425e-06  Tolerance :   1.0000e-07
  Last RMS-Density change    ...    1.7778e-07  Tolerance :   5.0000e-09
  Last DIIS Error            ...    1.4552e-03  Tolerance :   5.0000e-07
  Last Orbital Gradient      ...    1.0840e-06  Tolerance :   1.0000e-05
  Last Orbital Rotation      ...    2.2161e-06  Tolerance :   1.0000e-05


----------------
ORBITAL ENERGIES
----------------

  NO   OCC          E(Eh)            E(eV) 
   0   2.0000      -1.022064       -27.8118 
   1   2.0000      -0.957681       -26.0598 
   2   2.0000      -0.926846       -25.2207 
   3   2.0000      -0.888675       -24.1821 
   4   2.0000      -0.869484       -23.6599 
   5   2.0000      -0.860169       -23.4064 
   6   2.0000      -0.812009       -22.0959 
   7   2.0000      -0.806823       -21.9548 
   8   2.0000      -0.779959       -21.2238 
   9   2.0000      -0.753568       -20.5056 
  10   2.0000      -0.742986       -20.2177 
  11   2.0000      -0.703400       -19.1405 
  12   2.0000      -0.664657       -18.0862 
  13   2.0000      -0.633849       -17.2479 
  14   2.0000      -0.615254       -16.7419 
  15   2.0000      -0.594166       -16.1681 
  16   2.0000      -0.584973       -15.9179 
  17   2.0000      -0.561870       -15.2893 
  18   2.0000      -0.557244       -15.1634 
  19   2.0000      -0.541130       -14.7249 
  20   2.0000      -0.530621       -14.4389 
  21   2.0000      -0.520854       -14.1732 
  22   2.0000      -0.518441       -14.1075 
  23   2.0000      -0.514029       -13.9874 
  24   2.0000      -0.509789       -13.8721 
  25   2.0000      -0.504682       -13.7331 
  26   2.0000      -0.495843       -13.4926 
  27   2.0000      -0.491912       -13.3856 
  28   2.0000      -0.478197       -13.0124 
  29   2.0000      -0.473675       -12.8893 
  30   2.0000      -0.462712       -12.5910 
  31   2.0000      -0.452142       -12.3034 
  32   2.0000      -0.447847       -12.1865 
  33   2.0000      -0.426285       -11.5998 
  34   2.0000      -0.425131       -11.5684 
  35   2.0000      -0.420747       -11.4491 
  36   2.0000      -0.414575       -11.2812 
  37   2.0000      -0.400145       -10.8885 
  38   2.0000      -0.397147       -10.8069 
  39   2.0000      -0.380296       -10.3484 
  40   2.0000      -0.376169       -10.2361 
  41   2.0000      -0.316107        -8.6017 
  42   0.0000       0.084125         2.2891 
  43   0.0000       0.090061         2.4507 
  44   0.0000       0.091847         2.4993 
  45   0.0000       0.096259         2.6193 
  46   0.0000       0.099170         2.6986 
  47   0.0000       0.113264         3.0821 
  48   0.0000       0.116310         3.1650 
  49   0.0000       0.121986         3.3194 
  50   0.0000       0.132572         3.6075 
  51   0.0000       0.134753         3.6668 
  52   0.0000       0.146531         3.9873 
*Only the first 10 virtual orbitals were printed.

                    ********************************
                    * MULLIKEN POPULATION ANALYSIS *
                    ********************************

-----------------------
MULLIKEN ATOMIC CHARGES
-----------------------
   0 C :   -0.069124
   1 C :   -0.066497
   2 C :   -0.057380
   3 C :   -0.037725
   4 C :   -0.003705
   5 C :   -0.167019
   6 C :   -0.048249
   7 C :   -0.014580
   8 C :   -0.059328
   9 C :   -0.048731
  10 C :    0.017839
  11 C :   -0.173772
  12 C :   -0.041859
  13 C :   -0.014569
  14 C :   -0.084429
  15 H :    0.031395
  16 H :    0.038605
  17 H :    0.035930
  18 H :    0.037764
  19 H :    0.036083
  20 H :    0.044474
  21 H :    0.038718
  22 H :    0.030137
  23 H :    0.026323
  24 H :    0.054839
  25 H :    0.035410
  26 H :    0.012975
  27 H :    0.037514
  28 H :    0.044874
  29 H :    0.029270
  30 H :    0.034787
  31 H :    0.031399
  32 H :    0.035703
  33 H :    0.033870
  34 H :    0.031858
  35 H :    0.033799
  36 H :    0.053898
  37 H :    0.032685
  38 H :    0.046816
Sum of atomic charges:   -0.0000000

--------------------------------
MULLIKEN REDUCED ORBITAL CHARGES
--------------------------------
  0 C s       :     0.955884  s :     0.955884
      pz      :     1.030459  p :     3.038922
      px      :     1.026509
      py      :     0.981954
      dz2     :     0.017781  d :     0.074318
      dxz     :     0.009507
      dyz     :     0.013675
      dx2y2   :     0.018850
      dxy     :     0.014504

  1 C s       :     1.040813  s :     1.040813
      pz      :     1.019921  p :     2.903878
      px      :     0.939030
      py      :     0.944927
      dz2     :     0.029459  d :     0.121806
      dxz     :     0.014430
      dyz     :     0.020306
      dx2y2   :     0.028926
      dxy     :     0.028685

  2 C s       :     1.007260  s :     1.007260
      pz      :     1.021929  p :     2.957317
      px      :     0.984371
      py      :     0.951017
      dz2     :     0.015413  d :     0.092803
      dxz     :     0.020551
      dyz     :     0.017468
      dx2y2   :     0.015908
      dxy     :     0.023462

  3 C s       :     0.990531  s :     0.990531
      pz      :     1.006583  p :     2.949884
      px      :     0.939237
      py      :     1.004064
      dz2     :     0.027358  d :     0.097310
      dxz     :     0.017789
      dyz     :     0.009301
      dx2y2   :     0.023581
      dxy     :     0.019282

  4 C s       :     1.005523  s :     1.005523
      pz      :     1.016140  p :     2.870367
      px      :     0.934388
      py      :     0.919838
      dz2     :     0.026878  d :     0.127815
      dxz     :     0.021828
      dyz     :     0.019001
      dx2y2   :     0.033536
      dxy     :     0.026572

  5 C s       :     1.059560  s :     1.059560
      pz      :     1.001584  p :     2.962781
      px      :     0.982821
      py      :     0.978376
      dz2     :     0.029466  d :     0.144678
      dxz     :     0.028252
      dyz     :     0.026169
      dx2y2   :     0.036715
      dxy     :     0.024075

  6 C s       :     0.977950  s :     0.977950
      pz      :     0.969741  p :     2.974146
      px      :     0.977894
      py      :     1.026510
      dz2     :     0.020041  d :     0.096153
      dxz     :     0.020746
      dyz     :     0.015885
      dx2y2   :     0.018137
      dxy     :     0.021345

  7 C s       :     1.017305  s :     1.017305
      pz      :     0.983230  p :     2.905989
      px      :     0.925138
      py      :     0.997622
      dz2     :     0.019385  d :     0.091285
      dxz     :     0.021514
      dyz     :     0.012301
      dx2y2   :     0.016763
      dxy     :     0.021322

  8 C s       :     1.070479  s :     1.070479
      pz      :     0.983292  p :     2.869267
      px      :     0.923792
      py      :     0.962183
      dz2     :     0.026826  d :     0.119582
      dxz     :     0.030332
      dyz     :     0.015898
      dx2y2   :     0.022451
      dxy     :     0.024075

  9 C s       :     1.029329  s :     1.029329
      pz      :     0.988108  p :     2.902411
      px      :     0.992237
      py      :     0.922066
      dz2     :     0.019411  d :     0.116991
      dxz     :     0.028872
      dyz     :     0.023102
      dx2y2   :     0.025544
      dxy     :     0.020062

 10 C s       :     0.980518  s :     0.980518
      pz      :     0.968534  p :     2.903139
      px      :     0.921694
      py      :     1.012911
      dz2     :     0.024670  d :     0.098503
      dxz     :     0.019910
      dyz     :     0.012341
      dx2y2   :     0.025770
      dxy     :     0.015813

 11 C s       :     1.086636  s :     1.086636
      pz      :     1.005479  p :     2.947749
      px      :     0.978615
      py      :     0.963655
      dz2     :     0.029213  d :     0.139387
      dxz     :     0.024154
      dyz     :     0.030621
      dx2y2   :     0.031448
      dxy     :     0.023951

 12 C s       :     0.956231  s :     0.956231
      pz      :     0.987970  p :     3.010669
      px      :     1.030013
      py      :     0.992686
      dz2     :     0.024659  d :     0.074959
      dxz     :     0.006427
      dyz     :     0.011944
      dx2y2   :     0.020300
      dxy     :     0.011628

 13 C s       :     0.942571  s :     0.942571
      pz      :     0.960542  p :     2.998172
      px      :     1.019658
      py      :     1.017972
      dz2     :     0.019880  d :     0.073826
      dxz     :     0.011397
      dyz     :     0.016069
      dx2y2   :     0.020412
      dxy     :     0.006067

 14 C s       :     0.954718  s :     0.954718
      pz      :     1.040184  p :     3.055961
      px      :     0.971882
      py      :     1.043895
      dz2     :     0.012895  d :     0.073750
      dxz     :     0.019634
      dyz     :     0.007282
      dx2y2   :     0.019136
      dxy     :     0.014803

 15 H s       :     0.924505  s :     0.924505
      pz      :     0.023099  p :     0.044100
      px      :     0.010797
      py      :     0.010203

 16 H s       :     0.918099  s :     0.918099
      pz      :     0.011841  p :     0.043296
      px      :     0.021348
      py      :     0.010107

 17 H s       :     0.920808  s :     0.920808
      pz      :     0.012434  p :     0.043262
      px      :     0.012534
      py      :     0.018293

 18 H s       :     0.922112  s :     0.922112
      pz      :     0.021400  p :     0.040124
      px      :     0.008796
      py      :     0.009928

 19 H s       :     0.921266  s :     0.921266
      pz      :     0.019761  p :     0.042651
      px      :     0.011969
      py      :     0.010921

 20 H s       :     0.913196  s :     0.913196
      pz      :     0.013257  p :     0.042330
      px      :     0.015761
      py      :     0.013311

 21 H s       :     0.918808  s :     0.918808
      pz      :     0.010291  p :     0.042474
      px      :     0.010738
      py      :     0.021445

 22 H s       :     0.926109  s :     0.926109
      pz      :     0.022611  p :     0.043754
      px      :     0.011318
      py      :     0.009824

 23 H s       :     0.933472  s :     0.933472
      pz      :     0.020617  p :     0.040205
      px      :     0.009540
      py      :     0.010047

 24 H s       :     0.900907  s :     0.900907
      pz      :     0.009190  p :     0.044255
      px      :     0.013787
      py      :     0.021277

 25 H s       :     0.920512  s :     0.920512
      pz      :     0.017559  p :     0.044079
      px      :     0.012400
      py      :     0.014120

 26 H s       :     0.938481  s :     0.938481
      pz      :     0.020847  p :     0.048544
      px      :     0.010793
      py      :     0.016904

 27 H s       :     0.921251  s :     0.921251
      pz      :     0.015797  p :     0.041236
      px      :     0.016452
      py      :     0.008986

 28 H s       :     0.913059  s :     0.913059
      pz      :     0.008552  p :     0.042067
      px      :     0.010108
      py      :     0.023408

 29 H s       :     0.928370  s :     0.928370
      pz      :     0.021167  p :     0.042359
      px      :     0.010457
      py      :     0.010735

 30 H s       :     0.922435  s :     0.922435
      pz      :     0.009894  p :     0.042778
      px      :     0.012012
      py      :     0.020872

 31 H s       :     0.925474  s :     0.925474
      pz      :     0.021905  p :     0.043127
      px      :     0.010718
      py      :     0.010504

 32 H s       :     0.921546  s :     0.921546
      pz      :     0.009688  p :     0.042751
      px      :     0.023249
      py      :     0.009814

 33 H s       :     0.920303  s :     0.920303
      pz      :     0.017691  p :     0.045827
      px      :     0.012061
      py      :     0.016075

 34 H s       :     0.924928  s :     0.924928
      pz      :     0.009728  p :     0.043214
      px      :     0.023462
      py      :     0.010024

 35 H s       :     0.922959  s :     0.922959
      pz      :     0.010068  p :     0.043242
      px      :     0.011023
      py      :     0.022152

 36 H s       :     0.901865  s :     0.901865
      pz      :     0.010351  p :     0.044237
      px      :     0.010484
      py      :     0.023402

[...]
 81:   1507.34   0.002058   10.40  0.000426  (-0.000762 -0.016845  0.011908)
 82:   1514.28   0.000032    0.16  0.000007  (-0.000603  0.002147  0.001262)
 83:   1515.76   0.000200    1.01  0.000041  (-0.000037 -0.000661  0.006375)
 84:   1519.55   0.000778    3.93  0.000160  (-0.010774 -0.005961  0.002848)
 85:   1522.15   0.002051   10.36  0.000420  ( 0.000078 -0.006390 -0.019482)
 86:   1527.17   0.000402    2.03  0.000082  (-0.008320  0.002983  0.002025)
 87:   1531.19   0.000914    4.62  0.000186  ( 0.000802  0.003647  0.013124)
 88:   1534.52   0.002562   12.95  0.000521  ( 0.018274  0.011001 -0.008126)
 89:   1537.31   0.001813    9.16  0.000368  ( 0.004363 -0.008699  0.016533)
 90:   1540.54   0.003265   16.50  0.000661  ( 0.015002 -0.020241  0.005158)
 91:   1552.50   0.001985   10.03  0.000399  ( 0.012419 -0.003146  0.015323)
 92:   1814.17   0.000187    0.95  0.000032  ( 0.002495  0.003938  0.003236)
 93:   3054.58   0.002560   12.94  0.000262  ( 0.008555 -0.003576 -0.013249)
 94:   3083.79   0.001558    7.87  0.000158  (-0.002309  0.002899  0.011995)
 95:   3084.56   0.010679   53.97  0.001080  ( 0.007094  0.019022  0.025849)
 96:   3091.82   0.006059   30.62  0.000612  (-0.023553  0.007523 -0.000456)
 97:   3093.42   0.002437   12.32  0.000246  (-0.004439  0.003407 -0.014647)
 98:   3096.26   0.008308   41.99  0.000837  ( 0.021211  0.019219  0.004252)
 99:   3098.35   0.007522   38.02  0.000758  ( 0.017443  0.017662 -0.011894)
100:   3103.61   0.006791   34.32  0.000683  (-0.012431 -0.009247  0.021041)
101:   3110.01   0.008145   41.16  0.000817  ( 0.027192  0.008822  0.000325)
102:   3121.99   0.012074   61.01  0.001207  (-0.023798  0.003759 -0.025027)
103:   3125.30   0.005994   30.29  0.000598  (-0.010986  0.017375 -0.013262)
104:   3135.20   0.005126   25.91  0.000510  ( 0.003200 -0.019734  0.010515)
105:   3158.79   0.000426    2.15  0.000042  (-0.004582  0.002015  0.004127)
106:   3167.71   0.002527   12.77  0.000249  ( 0.002266 -0.014060  0.006796)
107:   3168.77   0.003858   19.50  0.000380  (-0.002152  0.019019  0.003682)
108:   3172.60   0.000544    2.75  0.000053  ( 0.003082 -0.003008  0.005912)
109:   3176.75   0.006228   31.48  0.000612  ( 0.022003 -0.011110  0.002061)
110:   3177.55   0.004069   20.56  0.000400  ( 0.000519  0.019865 -0.002170)
111:   3178.39   0.008244   41.66  0.000809  ( 0.015925 -0.007871 -0.022222)
112:   3178.88   0.005611   28.35  0.000551  (-0.020043  0.011426  0.004301)
113:   3190.24   0.004694   23.72  0.000459  (-0.001378  0.000276  0.021382)
114:   3200.14   0.002086   10.54  0.000203  (-0.000034 -0.007507 -0.012126)
115:   3213.73   0.005365   27.11  0.000521  ( 0.005588  0.014487  0.016729)
116:   3215.00   0.003320   16.78  0.000322  ( 0.009839 -0.007783 -0.012840)

* The epsilon (eps) is given for a Dirac delta lineshape.
** The dipole moment derivative (T) already includes vibrational overlap.

The first frequency considered to be a vibration is 6
The total number of vibrations considered is 111


--------------------------
THERMOCHEMISTRY AT 298.15K
--------------------------

Temperature         ...   298.15 K
Pressure            ...     1.00 atm
Total Mass          ...   204.36 AMU
Quasi RRHO          ...     True
Cut-Off Frequency   ...     1.00 cm^-1

Throughout the following assumptions are being made:
  (1) The electronic state is orbitally nondegenerate
  (2) There are no thermally accessible electronically excited states
  (3) Hindered rotations indicated by low frequency modes are not
      treated as such but are treated as vibrations and this may
      cause some error
  (4) All equations used are the standard statistical mechanics
      equations for an ideal gas
  (5) All vibrations are strictly harmonic

freq.      77.11  E(vib)   ...       0.49 
freq.     124.23  E(vib)   ...       0.43 
freq.     149.51  E(vib)   ...       0.40 
freq.     185.61  E(vib)   ...       0.37 
freq.     198.91  E(vib)   ...       0.35 
freq.     207.22  E(vib)   ...       0.34 
freq.     234.80  E(vib)   ...       0.32 
freq.     245.13  E(vib)   ...       0.31 
freq.     261.02  E(vib)   ...       0.30 
freq.     268.30  E(vib)   ...       0.29 
freq.     289.25  E(vib)   ...       0.27 
freq.     301.37  E(vib)   ...       0.26 
freq.     310.45  E(vib)   ...       0.26 
freq.     337.21  E(vib)   ...       0.24 
freq.     350.59  E(vib)   ...       0.23 
freq.     407.69  E(vib)   ...       0.19 
freq.     409.72  E(vib)   ...       0.19 
freq.     444.09  E(vib)   ...       0.17 
freq.     464.88  E(vib)   ...       0.16 
freq.     523.16  E(vib)   ...       0.13 
freq.     560.10  E(vib)   ...       0.12 
freq.     575.87  E(vib)   ...       0.11 
freq.     598.11  E(vib)   ...       0.10 
freq.     623.88  E(vib)   ...       0.09 
freq.     649.69  E(vib)   ...       0.08 
freq.     678.78  E(vib)   ...       0.08 
freq.     772.28  E(vib)   ...       0.05 
freq.     822.43  E(vib)   ...       0.05 
freq.     834.06  E(vib)   ...       0.04 
freq.     847.29  E(vib)   ...       0.04 
freq.     874.96  E(vib)   ...       0.04 
freq.     906.98  E(vib)   ...       0.03 
freq.     939.15  E(vib)   ...       0.03 
freq.     952.98  E(vib)   ...       0.03 
freq.     959.02  E(vib)   ...       0.03 
freq.     974.81  E(vib)   ...       0.03 
freq.     985.26  E(vib)   ...       0.02 
freq.    1001.09  E(vib)   ...       0.02 
freq.    1007.14  E(vib)   ...       0.02 
freq.    1025.69  E(vib)   ...       0.02 
freq.    1030.07  E(vib)   ...       0.02 
freq.    1044.52  E(vib)   ...       0.02 
freq.    1063.51  E(vib)   ...       0.02 
freq.    1088.62  E(vib)   ...       0.02 
freq.    1090.58  E(vib)   ...       0.02 
freq.    1103.68  E(vib)   ...       0.02 
freq.    1127.34  E(vib)   ...       0.01 
freq.    1145.34  E(vib)   ...       0.01 
freq.    1147.60  E(vib)   ...       0.01 
freq.    1185.75  E(vib)   ...       0.01 
freq.    1189.69  E(vib)   ...       0.01 
freq.    1206.62  E(vib)   ...       0.01 
freq.    1221.27  E(vib)   ...       0.01 
freq.    1228.38  E(vib)   ...       0.01 
freq.    1258.48  E(vib)   ...       0.01 
freq.    1264.11  E(vib)   ...       0.01 
freq.    1279.10  E(vib)   ...       0.01 
freq.    1294.81  E(vib)   ...       0.01 
freq.    1306.60  E(vib)   ...       0.01 
freq.    1326.31  E(vib)   ...       0.01 
freq.    1340.70  E(vib)   ...       0.01 
freq.    1344.32  E(vib)   ...       0.01 
freq.    1357.12  E(vib)   ...       0.01 
freq.    1359.76  E(vib)   ...       0.01 
freq.    1371.53  E(vib)   ...       0.01 
freq.    1394.43  E(vib)   ...       0.00 
freq.    1419.96  E(vib)   ...       0.00 
freq.    1427.59  E(vib)   ...       0.00 
freq.    1432.72  E(vib)   ...       0.00 
freq.    1439.77  E(vib)   ...       0.00 
freq.    1447.03  E(vib)   ...       0.00 
freq.    1450.54  E(vib)   ...       0.00 
freq.    1454.94  E(vib)   ...       0.00 
freq.    1476.96  E(vib)   ...       0.00 
freq.    1504.91  E(vib)   ...       0.00 
freq.    1507.34  E(vib)   ...       0.00 
freq.    1514.28  E(vib)   ...       0.00 
freq.    1515.76  E(vib)   ...       0.00 
freq.    1519.55  E(vib)   ...       0.00 
freq.    1522.15  E(vib)   ...       0.00 
freq.    1527.17  E(vib)   ...       0.00 
freq.    1531.19  E(vib)   ...       0.00 
freq.    1534.52  E(vib)   ...       0.00 
freq.    1537.31  E(vib)   ...       0.00 
freq.    1540.54  E(vib)   ...       0.00 
freq.    1552.50  E(vib)   ...       0.00 
freq.    1814.17  E(vib)   ...       0.00 
freq.    3054.58  E(vib)   ...       0.00 
freq.    3083.79  E(vib)   ...       0.00 
freq.    3084.56  E(vib)   ...       0.00 
freq.    3091.82  E(vib)   ...       0.00 
freq.    3093.42  E(vib)   ...       0.00 
freq.    3096.26  E(vib)   ...       0.00 
freq.    3098.35  E(vib)   ...       0.00 
freq.    3103.61  E(vib)   ...       0.00 
freq.    3110.01  E(vib)   ...       0.00 
freq.    3121.99  E(vib)   ...       0.00 
freq.    3125.30  E(vib)   ...       0.00 
freq.    3135.20  E(vib)   ...       0.00 
freq.    3158.79  E(vib)   ...       0.00 
freq.    3167.71  E(vib)   ...       0.00 
freq.    3168.77  E(vib)   ...       0.00 
freq.    3172.60  E(vib)   ...       0.00 
freq.    3176.75  E(vib)   ...       0.00 
freq.    3177.55  E(vib)   ...       0.00 
freq.    3178.39  E(vib)   ...       0.00 
freq.    3178.88  E(vib)   ...       0.00 
freq.    3190.24  E(vib)   ...       0.00 
freq.    3200.14  E(vib)   ...       0.00 
freq.    3213.73  E(vib)   ...       0.00 
freq.    3215.00  E(vib)   ...       0.00 

------------
INNER ENERGY
------------

The inner energy is: U= E(el) + E(ZPE) + E(vib) + E(rot) + E(trans)
    E(el)   - is the total energy from the electronic structure calculation
              = E(kin-el) + E(nuc-el) + E(el-el) + E(nuc-nuc)
    E(ZPE)  - the the zero temperature vibrational energy from the frequency calculation
    E(vib)  - the the finite temperature correction to E(ZPE) due to population
              of excited vibrational states
    E(rot)  - is the rotational thermal energy
    E(trans)- is the translational thermal energy

Summary of contributions to the inner energy U:
Electronic energy                ...    -99.94676924 Eh
Zero point energy                ...      0.36728265 Eh     230.47 kcal/mol
Thermal vibrational correction   ...      0.01125737 Eh       7.06 kcal/mol
Thermal rotational correction    ...      0.00141627 Eh       0.89 kcal/mol
Thermal translational correction ...      0.00141627 Eh       0.89 kcal/mol
-----------------------------------------------------------------------
Total thermal energy                    -99.56539668 Eh


Summary of corrections to the electronic energy:
(perhaps to be used in another calculation)
Total thermal correction                  0.01408991 Eh       8.84 kcal/mol
Non-thermal (ZPE) correction              0.36728265 Eh     230.47 kcal/mol
-----------------------------------------------------------------------
Total correction                          0.38137257 Eh     239.31 kcal/mol


--------
ENTHALPY
--------

The enthalpy is H = U + kB*T
                kB is Boltzmann's constant
Total thermal energy              ...    -99.56539668 Eh 
Thermal Enthalpy correction       ...      0.00094421 Eh       0.59 kcal/mol
-----------------------------------------------------------------------
Total Enthalpy                    ...    -99.56445247 Eh


Note: Only C1 symmetry has been detected, increase convergence thresholds 
      if your molecule has a higher symmetry. Symmetry factor of 1.0 is   
      used for the rotational entropy correction. 
 

Note: Rotational entropy computed according to Herzberg 
Infrared and Raman Spectra, Chapter V,1, Van Nostrand Reinhold, 1945 
Point Group:  C1, Symmetry Number:   1  
Rotational constants in cm-1:     0.031716     0.018799     0.015138 

Vibrational entropy computed according to the QRRHO of S. Grimme
Chem.Eur.J. 2012 18 9955 using a reference frequency of 100.0 cm-1


-------
ENTROPY
-------

The entropy contributions are T*S = T*(S(el)+S(vib)+S(rot)+S(trans))
     S(el)   - electronic entropy
     S(vib)  - vibrational entropy
     S(rot)  - rotational entropy
     S(trans)- translational entropy
The entropies will be listed as multiplied by the temperature to get
units of energy

Electronic entropy                ...      0.00000000 Eh      0.00 kcal/mol
Vibrational entropy               ...      0.01841853 Eh     11.56 kcal/mol
Rotational entropy                ...      0.01499435 Eh      9.41 kcal/mol
Translational entropy             ...      0.01988345 Eh     12.48 kcal/mol
-----------------------------------------------------------------------
Final entropy term                ...      0.05329633 Eh     33.44 kcal/mol

In case the symmetry of your molecule has not been determined correctly
or in case you have a reason to use a different symmetry number we print 
out the resulting rotational entropy values for sn=1,12:

 non-linear molecules -----------------------------------
|  sn= 1 | S(rot)=       0.01499435 Eh      9.41 kcal/mol|
|  sn= 2 | S(rot)=       0.01433990 Eh      9.00 kcal/mol|
|  sn= 3 | S(rot)=       0.01395706 Eh      8.76 kcal/mol|
|  sn= 4 | S(rot)=       0.01368544 Eh      8.59 kcal/mol|
|  sn= 5 | S(rot)=       0.01347475 Eh      8.46 kcal/mol|
|  sn= 6 | S(rot)=       0.01330261 Eh      8.35 kcal/mol|
|  sn= 7 | S(rot)=       0.01315706 Eh      8.26 kcal/mol|
|  sn= 8 | S(rot)=       0.01303098 Eh      8.18 kcal/mol|
|  sn= 9 | S(rot)=       0.01291978 Eh      8.11 kcal/mol|
|  sn=10 | S(rot)=       0.01282030 Eh      8.04 kcal/mol|
|  sn=11 | S(rot)=       0.01273031 Eh      7.99 kcal/mol|
|  sn=12 | S(rot)=       0.01264815 Eh      7.94 kcal/mol|
 linear molecules ---------------------------------------
|  Dinfh | S(rot)=       0.00928247 Eh      5.82 kcal/mol|
|  Cinfv | S(rot)=       0.00993693 Eh      6.24 kcal/mol|
 --------------------------------------------------------


-------------------
GIBBS FREE ENERGY
-------------------

The Gibbs free energy is G = H - T*S

Total enthalpy                    ...    -99.56445247 Eh 
Total entropy correction          ...     -0.05329633 Eh    -33.44 kcal/mol
-----------------------------------------------------------------------
Final Gibbs free energy         ...    -99.61774880 Eh

For completeness - the Gibbs free energy minus the electronic energy
G-E(el)                           ...      0.32902044 Eh    206.46 kcal/mol


Maximum memory used throughout the entire PROP-calculation: 242.1 MB

--------------------------------
SUGGESTED CITATIONS FOR THIS RUN
--------------------------------

Below you find a list of papers that are relevant to this ORCA run
We neither can nor want to force you to cite these papers, but we appreciate if you do
You receive ORCA, which is the product of decades of hard work by many enthusiastic individuals, for free
The only thing we kindly ask in return is that you cite our papers,
We deeply appreciate it, if you show your appreciation for ORCA by not just citing the generic ORCA reference.

Please note that relegating all ORCA citations to the supporting information does *not* help us.
SI sections are not indexed - citations you put there will not count into any citation statistics
But we need these citations in order to attract the funding resources that allow us to do what we are doing

Therefore, if you are a happy ORCA user, please consider citing a few of the papers listed below in the main body of your paper

In addition to the list printed below, the program has created the file ./output/alpha_cedrene/alpha_cedrene.bibtex that contains the list in bibtex format
You can import this file easily into all common literature databanks and citation aid programs


List of essential papers. We consider these as the minimum necessary citations

  1. Neese,F.
     Software update: the ORCA program system, version 5.0
     WIRES Comput. Molec. Sci., 2022 12(1)e1606
     doi.org/10.1002/wcms.1606
  2. Mueller,M.; Hansen,A.; Grimme,S.
     wB97X-3c: A composite range-separated hybrid DFT method with a molecule-optimized polarized valence double-zeta basis set
     J. Chem. Phys., 2023 158 014103
     doi.org/10.1063/5.0133026

List of papers to cite with high priority. The work reported in these papers was absolutely
necessary for this run to complete.
Our perspective: the developers of density functionals and basis sets usually get cited in chemistry papers
Good! But without the algorithms to do something with them, the functionals or basis sets would not do anything.
Hence, in our opinion, the algorithm design and method developments papers are equally worthy of getting cited

  1. Neese,F.
     An improvement of the resolution of the identity approximation for the formation of the Coulomb matrix
     J. Comp. Chem., 2003 24(14)1740-1747
     doi.org/10.1002/jcc.10318
  2. Neese,F.; Wennmohs,F.; Hansen,A.; Becker,U.
     Efficient, approximate and parallel Hartree-Fock and hybrid DFT calculations. A 'chain-of-spheres' algorithm for the Hartree-Fock exchange
     Chem. Phys., 2009 356(1-3)98-109
     doi.org/10.1016/j.chemphys.2008.10.036
  3. Bykov,D.; Petrenko,T.; Izsak,R.; Kossmann,S.; Becker,U.; Valeev,E.; Neese,F.
     Efficient implementation of the analytic second derivatives of Hartree-Fock and hybrid DFT energies: a detailed analysis of different approximations
     Molec. Phys., 2015 113 1961-1977
     doi.org/10.1080/00268976.2015.1025114
  4. Helmich-Paris,B.; de Souza,B.; Neese,F.; Izsák,R.
     An improved chain of spheres for exchange algorithm
     J. Chem. Phys., 2021 155 104109
     doi.org/doi: 10.1063/5.0058766.
  5. Neese,F.
     The SHARK Integral Generation and Digestion System
     J. Comp. Chem., 2022  1-16
     doi.org/10.1002/jcc.26942
  6. Caldeweyher,E.; Bannwarth,C.; Grimme,S.
     Extension of the D3 dispersion coefficient model
     J. Chem. Phys., 2017 147 034112
     doi.org/10.1063/1.4993215
  7. Caldeweyher,E.; Ehlert,S.; Hansen,A.; Neugebauer,H.; Spicher,S.; Bannwarth,C.; Grimme,S.
     A generally applicable atomic-charge dependent London dispersion correction
     J. Chem. Phys., 2019 150 154122
     doi.org/10.1063/1.5090222
  8. Caldeweyher,E.; Mewes,J.; Ehlert,S.; Grimme,S.
     Extension and evaluation of the D4 London-dispersion model for periodic systems
     Phys. Chem. Chem. Phys., 2020 22(16)8499-8512
     doi.org/10.1039/D0CP00502A
  9. Wittmann,L.; Gordiy,I.; Friede,M.; Helmich-Paris,B.; Grimme,S.; Hansen,A.; Bursch,M.
     Extension of the D3 and D4 London Dispersion Corrections to the full Actinides Series
     Phys. Chem. Chem. Phys., 2024 26(32)21379-21394
     doi.org/https://doi.org/10.1039/D4CP01514B 

List of suggested additional citations. These are papers that are important in the 'surrounding' of 
of this run, or papers that preceded the highly important papers. If you like your results we are grateful for a citation.

  1. Izsak,R.; Neese,F.
     An overlap fitted chain of spheres exchange method
     J. Chem. Phys., 2011 135 144105
     doi.org/10.1063/1.3646921
  2. Izsak,R.; Hansen,A.; Neese,F.
     The resolution of identity and chain of spheres approximations for the LPNO-CCSD singles Fock term
     Molec. Phys., 2012 110 2413-2417
     doi.org/10.1080/00268976.2012.687466
  3. Neese,F.
     The ORCA program system
     WIRES Comput. Molec. Sci., 2012 2(1)73-78
     doi.org/10.1002/wcms.81
  4. Izsak,R.; Neese,F.; Klopper,W.
     Robust fitting techniques in the chain of spheres approximation to the Fock exchange: The role of the complementary space
     J. Chem. Phys., 2013 139 
     doi.org/10.1063/1.4819264
  5. Neese,F.
     Software update: the ORCA program system, version 4.0
     WIRES Comput. Molec. Sci., 2018 8(1)1-6
     doi.org/10.1002/wcms.1327
  6. Neese,F.; Wennmohs,F.; Becker,U.; Riplinger,C.
     The ORCA quantum chemistry program package
     J. Chem. Phys., 2020 152 Art. No. L224108
     doi.org/10.1063/5.0004608

List of optional additional citations

  1. Neese,F.
     Approximate second-order SCF convergence for spin unrestricted wavefunctions
     Chem. Phys. Lett., 2000 325(1-3)93-98
     doi.org/10.1016/s0009-2614(00)00662-x

Timings for individual modules:

Sum of individual times          ...     2415.232 sec (=  40.254 min)
Startup calculation              ...      104.011 sec (=   1.734 min)   4.3 %
SCF iterations                   ...     1487.344 sec (=  24.789 min)  61.6 %
Property integrals               ...      152.082 sec (=   2.535 min)   6.3 %
SCF Response                     ...       88.269 sec (=   1.471 min)   3.7 %
Property calculations            ...      226.345 sec (=   3.772 min)   9.4 %
SCF Gradient evaluation          ...      356.459 sec (=   5.941 min)  14.8 %
Geometry relaxation              ...        0.723 sec (=   0.012 min)   0.0 %
                             ****ORCA TERMINATED NORMALLY****
TOTAL RUN TIME: 0 days 0 hours 40 minutes 25 seconds 83 msec
